/*--------------------------------*- C++ -*----------------------------------*\
  =========                 |
  \\      /  F ield         | OpenFOAM: The Open Source CFD Toolbox
   \\    /   O peration     | Website:  https://openfoam.org
    \\  /    A nd           | Version:  7
     \\/     M anipulation  |
\*---------------------------------------------------------------------------*/
FoamFile
{
    version     2.0;
    format      ascii;
    class       surfaceScalarField;
    location    "3500";
    object      alphaPhi;
}
// * * * * * * * * * * * * * * * * * * * * * * * * * * * * * * * * * * * * * //

dimensions      [0 3 -1 0 0 0 0];

internalField   nonuniform List<scalar> 
319200
(
2.61209e-19
4.17509e-17
-3.41484e-18
1.75867e-18
-1.34744e-16
-6.81899e-18
-2.70482e-16
-6.03939e-18
-3.36729e-16
-5.58371e-17
-4.19256e-16
-5.62162e-17
-5.60196e-16
-7.76978e-17
-5.48437e-16
-8.28436e-18
-6.79373e-16
2.45129e-17
-7.66041e-16
-3.46748e-18
-8.01764e-16
-3.52567e-17
-9.06161e-16
-6.35511e-18
-9.42993e-16
-1.17357e-16
-5.93727e-16
-1.55983e-16
-3.32751e-16
-1.05839e-16
-4.03804e-16
-4.76021e-17
-7.59987e-16
-9.60896e-17
-9.29054e-16
3.46818e-17
-8.74478e-16
1.18654e-16
-7.97264e-16
8.71296e-17
-1.31586e-15
4.76926e-17
-1.48541e-15
7.44406e-17
-1.62823e-15
4.32765e-17
-2.00446e-15
6.07403e-17
-2.09195e-15
2.94477e-17
-2.016e-15
-1.80366e-16
-1.77077e-15
-3.50132e-16
-6.23176e-16
-9.40386e-17
-3.75831e-16
-6.6191e-17
-2.05044e-16
-1.03118e-17
-2.34759e-16
1.08379e-16
-1.42279e-15
1.39295e-16
-2.66817e-15
3.38971e-17
-2.54509e-15
-4.40218e-17
-2.40495e-15
-6.37306e-17
-2.48793e-15
-1.00124e-17
-2.64612e-15
6.31855e-17
-5.85333e-16
-1.43122e-16
-2.08667e-15
-1.51905e-16
-8.96078e-16
8.16351e-17
-2.43832e-15
1.06284e-16
-2.29624e-15
8.62494e-17
-2.35466e-15
-2.80249e-17
-2.32398e-15
-1.05638e-16
-2.35494e-15
-5.4038e-17
-6.39873e-16
-2.03803e-17
-5.29572e-16
1.74577e-17
-1.09198e-15
-6.19643e-17
-1.72616e-15
-7.72446e-17
-2.52069e-15
1.56183e-16
-3.18746e-15
5.91336e-16
-3.42311e-15
1.48196e-16
-3.19243e-15
-3.11462e-16
-3.06857e-15
-1.99993e-16
-5.54388e-16
-7.8041e-17
-5.50294e-16
-1.06445e-16
-5.15758e-16
-1.24584e-16
-5.22827e-16
-1.32892e-16
-6.51706e-16
9.82861e-17
-9.80051e-16
2.55157e-16
-1.04469e-15
2.03676e-17
-7.94918e-16
-2.0062e-16
-7.44638e-16
-9.32344e-17
-6.95594e-16
-5.02542e-17
-1.48196e-15
1.27825e-16
-1.74025e-15
8.80153e-17
-1.70997e-15
-1.79713e-16
-1.2656e-15
-3.7312e-16
-1.09056e-15
-2.93076e-16
-1.16823e-15
2.17195e-16
-1.24477e-15
3.02011e-16
-1.2957e-15
2.31063e-16
-1.16863e-15
9.22412e-17
-4.86746e-16
-2.99233e-17
-3.56373e-16
-5.69455e-17
-3.80383e-16
1.29898e-19
-5.36919e-16
6.55657e-17
-9.35826e-16
2.15042e-17
-4.94685e-16
9.40589e-19
-1.31203e-15
5.36992e-17
-1.11534e-15
1.77188e-16
-1.55201e-15
-7.36132e-17
-9.36842e-16
-2.79337e-16
-5.9061e-16
-3.55314e-16
-4.48188e-16
-9.02176e-17
-5.97183e-16
8.11884e-17
-7.65377e-16
1.06941e-16
-8.9707e-16
7.37603e-17
-9.89511e-16
7.09654e-17
-1.02202e-15
-3.62012e-17
-1.14116e-15
9.89957e-17
-1.29222e-15
7.91449e-17
-1.14565e-15
2.53669e-17
-5.70727e-16
3.13818e-17
-1.07203e-15
-1.25576e-16
-7.02339e-16
-8.45566e-17
-1.11119e-15
-7.00893e-17
-4.07136e-16
-3.22277e-17
-9.05379e-16
-2.49222e-17
-4.62518e-16
-3.58996e-17
-9.99037e-16
-2.8103e-18
-2.46331e-15
1.55518e-16
-7.24832e-16
-1.62763e-16
-9.10192e-16
-2.4928e-16
-1.0511e-15
1.91924e-16
-1.03805e-15
4.89207e-17
-9.80749e-16
-7.16188e-18
-1.09103e-15
1.71922e-16
-1.37034e-15
1.72419e-16
1.23262e-15
1.3768e-16
-1.83791e-15
9.03769e-17
-1.32954e-15
1.28133e-16
-2.16564e-15
-2.11236e-17
-1.23726e-15
-2.44626e-16
-1.17434e-15
-1.75455e-16
-1.17676e-15
-1.12874e-16
-1.11144e-15
-4.76735e-17
-7.41635e-16
4.89944e-17
-2.62612e-16
-1.60424e-16
-3.30738e-16
-2.04098e-16
-4.73816e-16
1.62231e-16
-5.73052e-16
3.08711e-16
-1.13822e-15
2.75804e-16
-6.41615e-16
2.11023e-16
-1.22211e-15
2.03581e-16
-8.22022e-16
-3.64596e-17
-9.68954e-16
-2.44836e-16
-1.09674e-15
-1.99097e-16
-1.86186e-15
-4.30222e-18
-2.32773e-15
-5.02729e-17
-2.10097e-15
-1.91113e-16
-2.16714e-15
-1.65176e-16
-2.44305e-15
8.04215e-17
-2.64909e-15
1.40833e-16
-1.15864e-15
-1.69089e-16
-5.94683e-16
-5.21987e-16
-8.678e-16
-1.41179e-16
-1.66882e-15
3.67067e-16
-1.65031e-15
6.16868e-18
-1.65325e-15
2.78979e-17
-1.7681e-15
-9.20744e-17
-1.59177e-15
-2.05229e-16
-1.66407e-15
1.78262e-17
-1.98903e-15
2.97651e-16
-2.75013e-16
1.85347e-16
-2.97731e-15
4.738e-18
-2.41531e-16
-3.95186e-17
-2.80318e-15
-1.04969e-16
-9.836e-16
-2.22632e-16
-9.34693e-16
-4.22232e-16
-1.37e-15
4.35217e-17
-9.82542e-16
3.54755e-16
-1.15787e-15
4.1744e-17
-9.52935e-16
-5.52966e-17
-1.10474e-15
2.87383e-17
-1.05001e-15
9.08058e-17
-1.44411e-15
2.43873e-16
-4.8951e-16
6.91883e-17
-9.21015e-16
-9.76925e-17
-9.53895e-16
-1.95277e-16
-7.51265e-16
-1.60704e-16
-7.50767e-16
5.05875e-17
-1.16185e-15
2.03053e-16
-1.41924e-15
1.19789e-17
-1.56037e-15
-1.40898e-16
-1.43984e-15
-1.6113e-16
-9.79175e-16
-6.65722e-17
-6.33521e-16
4.43658e-17
-3.84472e-16
1.55952e-16
-6.29429e-16
3.32512e-16
-3.47243e-15
1.49756e-16
-1.37609e-15
2.60892e-16
-3.17688e-15
-1.01714e-16
-7.19687e-16
-1.57988e-16
-1.72877e-15
-4.57818e-17
-1.77132e-15
-2.6338e-16
-1.30835e-15
2.39724e-16
-2.34377e-15
3.3756e-16
-1.48269e-15
1.20828e-16
-1.99545e-15
-2.12569e-16
-2.44067e-15
-1.07256e-16
-2.11287e-15
-3.0162e-16
-1.66715e-15
-5.08628e-16
-1.30908e-15
-4.15466e-16
-7.73448e-16
-1.38993e-16
-3.90578e-16
6.27654e-17
-7.05487e-16
4.7124e-17
-6.67052e-16
-6.41897e-17
-3.42949e-16
-5.41775e-17
2.65684e-16
4.41809e-17
8.49176e-16
-1.30464e-16
1.24392e-15
-1.75172e-16
2.20798e-15
-7.81869e-16
2.07073e-15
-6.57038e-16
5.96155e-16
-4.00252e-16
-7.72287e-16
-2.75337e-17
9.72496e-16
3.96519e-16
1.78888e-15
-2.82068e-15
1.29402e-14
-7.85456e-15
-5.00322e-15
-2.96835e-15
6.97966e-16
-3.3932e-16
-4.36154e-15
-3.62154e-16
-1.3075e-16
-2.03113e-16
-1.51667e-15
-4.05789e-16
-6.72123e-16
3.3911e-17
-1.98416e-15
2.71463e-16
-3.06021e-16
-3.46869e-16
2.23105e-15
-1.12095e-15
2.05496e-15
-3.87824e-16
3.0939e-15
-1.98095e-16
2.15186e-15
-2.53913e-16
1.32921e-15
-3.82093e-16
4.28613e-16
-2.45042e-16
-3.7317e-16
-7.59414e-17
-1.3012e-15
-2.22553e-16
-2.30895e-15
-2.62498e-16
-1.94853e-15
2.36685e-16
-2.08824e-15
3.14645e-16
-2.24493e-15
-9.3868e-19
-1.89508e-15
-9.59558e-17
-2.8323e-15
-3.02741e-16
-2.6893e-15
-5.66125e-16
-2.50648e-15
-4.88002e-16
-2.50213e-15
-2.80786e-16
-1.76286e-15
-1.95787e-16
-1.10944e-15
-4.02419e-17
-4.68496e-16
2.8468e-17
1.19264e-16
5.12695e-17
7.38301e-16
7.55581e-18
-6.91996e-16
-8.81934e-17
-8.54053e-16
-5.15463e-17
-8.02753e-16
-1.42406e-16
5.07137e-17
1.69285e-17
5.10723e-16
2.45845e-16
6.36844e-16
1.91956e-16
-2.64504e-16
1.22331e-16
-3.05486e-16
2.22796e-17
-7.94679e-16
5.39619e-17
-8.83362e-16
7.04248e-17
-1.1053e-15
1.69292e-17
-1.53953e-15
-8.04271e-17
-1.423e-15
-2.43797e-16
-1.05933e-15
-1.42504e-16
-9.45968e-16
1.56479e-16
-9.84714e-16
4.01745e-17
-7.76368e-16
1.37331e-17
1.14803e-15
3.36975e-16
6.38307e-15
-5.33718e-16
1.60916e-14
-5.26149e-15
1.09799e-14
-2.83925e-17
1.64174e-14
-1.92501e-16
4.23928e-15
-4.8212e-17
3.67781e-15
-1.25203e-16
8.96323e-16
-1.4269e-16
-1.63169e-15
-9.95207e-17
-3.04158e-16
-3.20339e-17
-2.58249e-15
-1.2102e-16
-1.78168e-15
2.69129e-16
-3.36785e-15
5.06681e-16
-1.08744e-15
-3.09692e-16
-3.12701e-15
-3.6439e-16
-6.81423e-16
-3.00974e-16
-1.17671e-15
-3.47633e-16
-1.60319e-15
-2.06815e-16
-7.72622e-16
5.37907e-17
-1.51033e-15
1.62474e-16
-1.46641e-15
4.74448e-17
-1.96625e-15
3.9412e-17
-2.12573e-15
2.09713e-16
6.94132e-16
2.45861e-16
1.78565e-15
-1.0866e-16
1.44505e-15
2.74345e-17
4.75497e-16
9.25783e-17
-7.60169e-16
2.36898e-17
-1.73696e-15
-3.85419e-17
-1.78174e-15
-8.21241e-17
7.80369e-16
5.31306e-17
2.22794e-15
8.21483e-17
2.42889e-15
6.11315e-17
7.58426e-16
-5.5176e-17
-6.40334e-16
-2.94988e-17
-5.2391e-16
3.36156e-18
4.47893e-16
-5.93013e-17
1.79539e-15
-4.83258e-18
1.65515e-15
6.7e-17
4.98775e-16
9.70616e-17
-7.88929e-16
1.86934e-16
-1.8319e-15
1.20604e-16
-2.21416e-15
-7.44834e-17
-1.60174e-15
-4.0985e-16
-1.34196e-15
-4.65704e-16
-1.42017e-15
-2.07771e-16
-1.0678e-15
1.73618e-16
-9.2045e-16
3.45741e-16
-7.5386e-16
3.53057e-16
2.78684e-16
3.07323e-17
-7.02525e-16
-2.26919e-16
-7.00568e-16
-2.53475e-16
2.77778e-16
-1.65774e-16
3.27903e-15
-5.83606e-17
1.14337e-14
-5.77396e-15
3.51502e-14
-2.69628e-14
4.22144e-14
-1.06179e-14
2.95711e-14
-1.37979e-15
1.4214e-14
-2.32983e-16
5.17278e-15
3.45454e-17
1.86624e-15
-1.7417e-16
-7.81486e-16
-4.37752e-17
-1.70828e-16
-4.10373e-17
-7.54739e-16
-1.71092e-17
-9.34819e-16
-1.65348e-16
-1.53209e-15
-1.93158e-16
-1.16727e-15
-1.23945e-16
2.15156e-15
-5.15956e-17
6.93452e-15
4.16679e-17
4.29746e-15
-1.83968e-16
1.47661e-15
-1.49094e-17
-8.00863e-16
-4.70073e-17
-2.0165e-15
-4.83674e-17
-1.54506e-15
-9.72399e-17
-1.7287e-15
-8.05615e-17
-2.60716e-15
-7.34697e-17
-6.05515e-16
-1.95425e-17
6.49823e-15
-7.59808e-17
1.07347e-14
-4.42204e-16
1.51421e-14
-7.32959e-16
7.29349e-15
-1.20853e-16
3.6143e-15
1.06245e-17
2.68188e-15
4.55759e-17
1.65909e-15
2.74308e-17
1.03428e-15
3.44367e-17
6.91854e-16
2.83254e-17
4.46412e-16
-7.05289e-17
7.9019e-19
4.33416e-17
-3.35486e-16
1.46433e-17
-6.71473e-16
1.19397e-17
-1.4987e-15
1.02723e-16
-3.82029e-16
1.64036e-16
1.85301e-15
-7.18171e-17
4.28132e-16
-1.16642e-16
-5.13385e-16
-8.34481e-17
-9.054e-16
2.74649e-18
-1.29093e-15
-2.10083e-17
-2.16277e-15
3.60071e-17
-6.94296e-16
-9.71372e-17
1.35486e-15
-2.01491e-18
3.59313e-15
-1.0416e-16
5.42214e-15
-2.13795e-16
2.62738e-15
-1.71374e-16
8.83953e-16
1.41263e-17
-2.2811e-16
-9.78401e-18
-8.06489e-16
-4.86875e-17
-9.50727e-16
-1.33689e-16
-2.60821e-16
-4.62192e-17
6.0267e-17
6.65492e-17
2.52866e-16
1.853e-17
1.97353e-16
8.09093e-18
3.36629e-16
9.35094e-18
-2.25428e-17
-1.76633e-17
-4.67487e-16
-2.34706e-17
-8.8262e-16
-2.11035e-17
-6.96492e-16
-8.42428e-19
-6.62497e-16
8.7439e-18
-2.86047e-16
2.41612e-17
-1.40003e-16
-1.15172e-17
4.48513e-17
-3.25154e-17
1.18028e-16
1.00515e-16
1.19851e-15
9.83386e-17
1.16424e-15
4.89795e-17
7.46123e-16
-1.16866e-17
1.68332e-16
6.2532e-17
-2.61079e-16
9.46476e-17
-4.46833e-16
1.12632e-16
-5.31663e-16
-1.45485e-18
-4.85923e-16
-8.20839e-17
-4.04497e-16
-1.22613e-16
-5.26911e-16
-2.32174e-16
-3.67945e-16
-9.92715e-17
-3.54892e-16
-3.91728e-17
-1.13689e-16
-1.96327e-17
-1.08222e-16
2.20421e-18
-2.35853e-16
-2.85508e-18
-1.13637e-16
9.44181e-17
-1.53343e-16
1.25676e-16
-1.91621e-16
1.2671e-16
3.79364e-17
2.2502e-17
8.42856e-18
2.1824e-17
-1.63768e-16
-3.97679e-17
-2.87041e-16
-7.29098e-17
-1.38404e-16
-1.19117e-17
-1.48129e-16
9.83522e-18
-1.16417e-16
-5.89644e-18
1.59663e-16
9.9809e-18
-2.02699e-16
1.51128e-17
1.86472e-16
1.57128e-17
3.03629e-16
-1.45344e-17
-1.40846e-16
-3.99045e-18
-5.48471e-17
1.1751e-17
-2.5978e-16
6.59076e-18
-5.32369e-18
-4.38214e-17
-6.24689e-17
-8.51302e-17
-6.19052e-17
2.49291e-17
-6.28778e-17
-1.30631e-16
-6.69657e-17
-2.69965e-16
-5.58129e-17
-3.86055e-16
-4.72009e-17
-3.00398e-16
-7.19265e-17
-3.54787e-16
-3.67909e-17
-3.91655e-16
-2.25077e-17
-4.38275e-16
-4.32266e-17
-5.4801e-16
-4.00114e-17
-5.59732e-16
-6.32472e-18
-4.8355e-16
-8.01223e-17
-3.18922e-16
-1.3724e-16
-3.95719e-16
-7.55103e-17
-4.26448e-16
-5.55118e-17
-8.14314e-16
8.00016e-17
-1.04402e-15
1.5121e-16
-1.03264e-15
-3.51417e-17
-9.67348e-16
-8.0522e-17
-8.23479e-16
-1.06795e-17
-7.62067e-16
1.02237e-16
-1.19416e-15
2.09527e-17
-1.17075e-15
-4.22652e-17
-9.92276e-16
3.02674e-18
-1.27172e-15
5.44558e-18
-4.21714e-16
-5.66648e-17
-3.90758e-16
-1.72158e-16
-5.7056e-16
-7.88079e-17
-5.03534e-17
3.50579e-17
-1.15181e-16
-9.74293e-17
-1.77749e-16
-6.43651e-17
-1.04944e-15
-1.30561e-16
-1.40888e-15
-1.95092e-17
-1.5166e-15
1.11841e-16
-7.01173e-16
1.1261e-16
-8.29552e-16
-3.22208e-17
-8.1452e-16
-8.5476e-17
-1.11983e-15
-1.78495e-16
-7.00835e-16
-2.21127e-16
-9.91028e-16
-1.61925e-16
-1.4205e-15
-3.41176e-17
-1.66239e-15
-7.17822e-17
-1.73789e-15
-1.01032e-16
-6.68274e-16
1.32441e-16
-6.30747e-16
8.61435e-17
-3.93465e-16
-8.91784e-17
-3.17421e-16
-1.17178e-16
2.07638e-16
-8.25218e-17
-1.18622e-15
-1.10357e-17
-1.15009e-15
3.17292e-16
-1.16572e-15
8.70884e-17
-1.25683e-15
2.29661e-17
-1.15971e-15
-1.06271e-16
-8.24986e-16
-2.70179e-16
-1.21805e-16
-1.62534e-16
-4.77881e-16
-2.80219e-16
-4.92739e-16
-1.57104e-16
-6.51748e-16
1.7117e-16
-5.78611e-16
1.47034e-16
-4.00916e-16
-8.64532e-18
-5.5323e-16
-9.42314e-17
-6.55139e-16
7.46094e-18
-8.02042e-16
7.96825e-17
-6.7696e-16
-1.61581e-17
-7.28132e-16
1.24549e-16
-1.12147e-15
2.33894e-16
-1.84622e-15
1.90485e-16
-2.23141e-15
1.1733e-16
-2.02345e-15
2.22646e-17
-1.25167e-15
-2.82687e-16
-7.74916e-16
-2.32105e-16
-5.02444e-16
-1.00714e-16
-1.89588e-16
-5.35785e-17
-6.01283e-17
-3.88867e-17
-5.88782e-16
-9.13413e-17
-8.0108e-16
-1.72723e-16
-9.31713e-16
-7.71249e-17
-1.07253e-15
1.81595e-16
-1.03228e-15
8.68096e-17
-6.96695e-16
-1.03117e-16
-7.55945e-16
-4.63652e-17
-1.23213e-15
7.44369e-17
-1.74762e-15
6.11799e-17
-1.69691e-15
-8.63104e-17
-1.05996e-15
-4.21382e-16
-7.23539e-16
-2.75716e-16
-7.49303e-16
1.17512e-16
-9.7211e-16
1.7722e-16
-1.21959e-15
2.29239e-16
-2.31691e-16
9.25076e-17
-9.76085e-16
1.88636e-16
-2.91733e-16
-2.08848e-17
-7.67642e-16
-1.57985e-16
-3.55012e-16
-1.48248e-16
-4.52821e-16
-1.46439e-16
-4.19215e-16
-1.8616e-16
-1.11799e-15
-1.41684e-16
-5.49141e-16
-1.18239e-16
-1.683e-15
-1.85883e-17
-8.9746e-16
-7.63362e-17
-1.27601e-15
-9.8735e-17
-2.84698e-15
2.36142e-16
5.06861e-17
-9.65834e-18
-8.60108e-16
-1.62217e-16
-9.72183e-16
2.16084e-16
-9.78994e-16
6.49261e-17
-5.98499e-16
-1.4042e-16
-4.12003e-16
-2.24005e-16
-1.93219e-15
-9.41149e-17
-7.84806e-16
-7.95985e-17
-7.50274e-16
-4.22287e-17
-7.23524e-16
9.15686e-17
-9.12358e-16
-2.66765e-17
-8.1482e-16
-4.59163e-17
-7.01064e-16
6.23523e-18
-3.66926e-16
4.46005e-17
-4.34337e-18
1.42821e-16
-6.33899e-16
1.93866e-16
-7.55784e-16
1.62748e-16
-7.60003e-16
-1.35417e-16
-2.91418e-17
-2.09712e-16
-8.99621e-17
3.22194e-17
-2.38755e-16
6.95793e-17
-3.42174e-16
9.21466e-17
-6.35485e-16
3.10798e-17
-9.87776e-16
-8.00849e-17
-1.75025e-15
-5.65645e-17
-2.32977e-15
-5.94242e-17
-2.11959e-15
-2.24666e-16
-2.1336e-15
-1.34006e-16
-3.03919e-15
5.33995e-16
-2.57733e-15
3.02994e-16
-2.23967e-15
-8.42164e-17
-2.35028e-15
-1.12383e-16
-2.97497e-15
9.07833e-17
-2.38045e-15
-3.40798e-16
-1.55343e-15
-3.66791e-16
-1.52802e-15
4.22356e-18
-1.35587e-15
2.59644e-17
-1.09396e-15
-1.74805e-16
-1.14393e-15
-7.01699e-17
-1.18543e-15
1.72334e-16
4.33502e-17
-2.20369e-17
-6.03408e-16
4.30593e-17
-5.79461e-16
1.46378e-16
-1.9819e-15
3.24755e-17
-1.1839e-15
-3.40868e-17
-1.64517e-15
-2.56525e-17
-2.09853e-15
6.97328e-17
-2.12695e-15
-5.87738e-17
-1.61072e-15
-2.55535e-16
-1.58549e-15
-2.31997e-16
-6.72143e-16
3.13924e-17
-1.06514e-15
3.90751e-16
-3.72022e-16
2.13864e-16
-9.62484e-16
1.63164e-16
-7.47074e-16
2.13111e-16
-8.59369e-16
1.65486e-16
-8.9634e-16
4.47123e-17
-7.63264e-16
-9.61106e-17
-3.68225e-16
-1.35745e-16
-4.86758e-16
-1.1267e-16
-9.81604e-16
-4.97959e-18
-1.5644e-15
1.28251e-16
-1.68215e-15
1.01732e-16
-1.23377e-15
-1.74682e-16
-5.81713e-16
-2.65012e-16
-1.79444e-16
-1.49079e-16
1.74715e-17
4.84754e-17
4.75386e-16
1.8736e-16
-9.59454e-16
3.27892e-16
-1.25555e-15
6.22285e-16
-2.59706e-15
2.87518e-16
-1.94929e-15
-4.11358e-16
-1.01399e-15
-4.82111e-16
-1.00308e-15
-5.12392e-17
-8.72807e-16
2.54555e-16
-9.42265e-16
1.0726e-16
-1.32962e-15
-3.75673e-17
-2.163e-15
1.22965e-16
-2.28247e-15
-2.51235e-16
-2.336e-15
-5.29471e-16
-2.48434e-15
-3.20444e-16
-2.13914e-15
-1.76874e-16
-1.8673e-15
-2.78412e-16
-1.14769e-15
-1.9162e-16
-2.26853e-16
1.52094e-16
2.22179e-15
5.1771e-16
8.59967e-15
-2.31802e-15
1.19384e-14
6.41826e-16
1.08638e-14
-1.15695e-15
7.07152e-15
-2.23647e-15
1.82881e-15
-9.4693e-16
-9.05438e-18
-3.913e-16
2.44835e-15
2.62826e-17
3.04207e-15
-2.4223e-15
1.69214e-14
-8.93618e-15
3.32402e-15
-2.73695e-15
7.26376e-15
-3.92867e-16
1.93259e-15
-6.84006e-16
-7.85966e-16
-6.05146e-16
-2.45316e-15
-1.20375e-16
-3.02714e-15
1.0205e-16
-3.74122e-15
-2.56005e-16
-1.57081e-15
-6.50205e-16
1.09677e-16
-5.11848e-16
-1.3442e-15
-2.52925e-16
-9.68498e-16
-3.43566e-17
-1.31989e-15
-3.44509e-16
-1.50305e-15
-4.55209e-16
-2.17379e-15
-8.30727e-17
-2.51236e-15
-3.94376e-17
-2.13292e-15
-3.16023e-16
-2.24194e-15
-1.74389e-16
-2.37873e-15
-2.8538e-17
-1.59614e-15
1.42181e-17
-1.33323e-15
-7.87796e-17
-1.14901e-15
-2.52395e-16
-1.71285e-15
-3.32057e-16
-2.45071e-15
-2.49119e-16
-3.07686e-15
-1.65028e-16
-3.62184e-15
-1.70935e-16
-3.34243e-15
-1.14483e-16
-2.53367e-15
-1.42475e-16
-1.76667e-15
-1.88952e-16
-1.34911e-15
-2.83743e-16
-7.41687e-16
-2.36115e-16
-4.7482e-16
1.1778e-16
-5.9282e-16
1.79393e-16
-4.47929e-16
1.15235e-16
2.5223e-16
9.0334e-17
-1.11578e-15
-4.05972e-17
2.68738e-16
-3.09027e-16
-7.31144e-16
3.71753e-17
-9.38443e-16
3.03632e-16
-1.08127e-15
1.66959e-16
-1.2119e-15
-1.47664e-17
-1.27999e-15
-1.8284e-16
-1.42401e-15
-1.29315e-16
-2.05106e-15
3.61978e-17
-2.48796e-15
6.77025e-17
-3.59001e-15
-1.11803e-16
-2.34715e-15
-4.44804e-17
-1.62956e-15
3.32665e-16
3.21751e-15
3.7992e-16
8.93351e-15
1.07094e-16
3.39003e-14
-1.20526e-14
1.08989e-14
-2.20282e-14
2.22099e-14
-2.96961e-16
1.2042e-14
-4.41257e-16
1.82707e-15
-8.2368e-17
-2.84229e-15
-3.34775e-16
-7.9126e-16
-3.69383e-16
-8.8397e-16
-1.0654e-16
-1.51666e-15
-4.50942e-17
-2.06391e-15
4.0091e-18
-2.10259e-16
2.28826e-16
2.39249e-15
-4.29252e-16
2.75972e-15
-6.98092e-16
5.12503e-18
1.56517e-17
-2.06342e-15
-2.18734e-16
-2.80013e-15
-2.27938e-16
-2.21937e-15
-1.85775e-16
-1.02081e-15
-2.73212e-16
-1.97288e-15
-2.60027e-16
-2.09762e-15
2.40989e-16
-2.55468e-15
5.41694e-16
-2.38797e-15
4.75627e-17
1.0042e-15
8.62218e-18
1.07234e-15
-4.03161e-18
3.76493e-16
-1.11587e-16
-2.7793e-16
-1.31038e-16
-1.26484e-15
-5.97353e-17
-2.15532e-15
7.66271e-17
-1.58609e-15
9.95499e-18
8.49771e-16
-6.01061e-17
1.23023e-15
1.59399e-16
1.53183e-15
1.29346e-17
1.55126e-17
1.21557e-17
-2.88581e-16
2.03225e-17
5.5747e-16
1.41935e-16
9.67567e-16
1.43229e-16
3.24009e-16
2.68594e-17
5.0956e-16
-1.21382e-16
-4.20781e-16
5.65508e-18
-1.10088e-15
1.20457e-16
-1.3957e-15
1.20114e-16
-1.80735e-15
4.76336e-17
-1.99921e-15
-3.57145e-16
-2.28031e-15
-5.38755e-16
-2.1548e-15
-1.11903e-16
-1.54707e-15
-6.95187e-20
-1.49184e-15
-1.32845e-17
-1.80788e-15
2.1358e-16
-7.38797e-16
-5.53548e-17
-4.48253e-16
1.80208e-16
5.39357e-16
-6.99239e-17
1.12196e-14
-2.5142e-16
2.64712e-14
-9.27285e-15
6.18734e-14
-3.37429e-14
4.771e-14
-2.08814e-14
3.08216e-14
-1.16483e-15
7.03362e-15
1.81558e-16
6.29834e-16
-1.17694e-16
-1.1765e-15
-1.06869e-16
-8.63953e-16
1.97494e-17
-1.12016e-15
-8.3123e-17
-1.2465e-15
-9.46937e-17
-1.31907e-15
-5.86606e-17
-1.46666e-15
-8.67925e-17
-1.47697e-15
-4.79903e-17
-4.6112e-16
6.383e-17
1.49694e-15
2.3047e-17
3.58353e-15
-8.26729e-17
1.02386e-15
-1.56369e-16
-8.51791e-16
6.87945e-17
-1.84255e-15
1.2549e-16
-1.73144e-15
4.32114e-17
-1.98339e-15
-1.24819e-16
-2.78585e-15
-1.41876e-16
-1.23404e-15
2.20384e-16
5.63148e-15
-1.36413e-16
1.58911e-14
-5.44557e-16
1.2287e-14
-2.13059e-16
8.54678e-15
-4.7499e-17
1.0537e-15
8.1471e-17
2.18238e-16
-5.28886e-17
-5.18003e-16
-1.0047e-16
-5.78564e-16
-8.00521e-17
-7.3728e-16
-1.72795e-16
-2.74037e-16
3.05569e-17
-5.21454e-16
5.91023e-17
-6.28406e-16
1.80103e-16
-3.34618e-16
5.98815e-17
-6.88101e-16
4.03445e-17
-1.13493e-15
1.4841e-16
-6.44717e-16
7.92285e-17
-4.09657e-16
-2.47048e-18
-1.08683e-15
-9.27008e-17
-1.12857e-15
-4.02696e-17
-1.75235e-16
-2.16e-16
-1.19263e-15
-2.58769e-16
-9.80643e-16
-2.35414e-17
2.89414e-16
-1.50356e-17
1.64764e-15
4.65229e-17
3.61428e-15
-1.86017e-17
1.58033e-15
-2.06298e-16
3.75116e-16
-1.21483e-16
-2.91475e-16
-2.12374e-17
-6.65719e-16
-2.8206e-18
-1.02544e-15
-3.1172e-17
-1.10579e-15
-6.85943e-17
-8.88136e-16
2.7302e-17
-7.47739e-16
-2.72803e-17
-6.16432e-16
-6.87319e-17
-5.58737e-16
-7.94868e-18
-4.16926e-16
7.4892e-17
-4.16978e-16
9.4255e-17
-5.71572e-16
5.07091e-17
-6.85206e-16
-4.53659e-18
-8.05678e-16
-3.71007e-17
-4.98187e-16
4.27879e-17
-1.76333e-16
1.40424e-16
2.97525e-16
2.66911e-17
4.59451e-16
-4.22474e-17
3.59486e-16
1.76057e-17
-4.99021e-17
-4.23768e-17
-4.96834e-16
-8.35135e-17
-8.51905e-16
-7.19187e-17
-5.62295e-16
3.27615e-17
-4.93219e-16
4.64057e-17
-4.71068e-16
2.08496e-17
-5.21778e-16
2.38024e-17
-5.32342e-16
1.40783e-17
-7.5492e-16
2.24429e-17
-5.91415e-16
2.32936e-17
-6.17161e-16
-6.01937e-17
-5.8247e-16
-1.14792e-16
8.02294e-17
-3.64785e-18
-4.96957e-16
2.38975e-17
-9.26916e-16
1.58702e-17
-3.38932e-17
-2.31723e-18
-4.46492e-16
-2.21365e-17
-8.79365e-16
9.30164e-17
-1.25758e-16
2.21808e-17
-3.26324e-16
-3.87932e-17
-4.82357e-16
-2.03686e-18
-9.28647e-17
4.92932e-17
-2.01439e-16
4.01855e-17
-3.07965e-16
1.42263e-17
-8.16109e-17
1.50063e-17
3.05115e-17
7.36022e-18
-3.63517e-16
-5.85825e-18
7.39028e-17
5.0901e-17
2.01326e-16
2.43786e-17
-2.10906e-17
-9.61107e-18
-6.59025e-17
-5.17567e-18
-3.58209e-17
1.30059e-17
6.39543e-18
-4.23259e-17
-1.19718e-16
-6.85581e-17
-7.00405e-18
-8.32993e-17
1.24365e-17
-1.68926e-17
-2.89661e-18
-6.3662e-17
2.79253e-17
-1.4724e-16
-7.64694e-18
-1.2626e-16
-4.28564e-18
-1.62087e-16
1.00406e-17
-1.37749e-16
9.87283e-18
-2.7999e-16
4.45546e-17
-3.15673e-16
1.50959e-17
-2.1678e-16
-1.47085e-17
-1.09322e-16
-9.85811e-17
-4.89507e-17
-2.82399e-17
-2.01502e-16
2.63408e-17
-2.93397e-16
-1.59608e-17
-4.9519e-16
-4.34726e-17
-3.07532e-16
-4.63554e-17
-3.5611e-16
-7.87811e-17
-4.93024e-16
-7.97677e-17
-2.29188e-16
-9.80556e-17
-2.39768e-16
-5.08135e-17
-3.91764e-16
-1.32505e-17
-3.5671e-16
-8.86744e-17
-3.05403e-16
6.49533e-17
-3.43172e-16
1.00514e-16
-3.36783e-16
-3.45211e-18
-5.37929e-16
-1.26173e-17
-4.83215e-16
3.47719e-17
-1.75032e-16
-1.29196e-16
-5.33936e-17
-8.84278e-17
-5.43445e-17
-1.19461e-16
-4.38884e-16
-1.4805e-16
-4.79101e-16
-2.49844e-16
-5.39867e-16
-5.03713e-17
-7.1214e-16
4.15227e-17
-3.34544e-16
-6.43775e-17
-3.76643e-16
-1.37508e-16
-3.73193e-16
-1.56527e-16
-3.526e-16
-1.43344e-16
-1.45789e-15
-2.15853e-17
-3.08824e-16
6.64229e-17
-2.90367e-16
3.59369e-17
-5.24538e-16
5.50386e-17
-5.27775e-16
-5.05527e-17
-5.79676e-16
-1.51036e-16
-6.44841e-16
-2.26895e-17
-9.38129e-16
2.10427e-17
-1.11116e-15
9.20867e-17
-1.4554e-15
-1.41462e-16
-6.18218e-16
-1.91516e-16
-5.79239e-16
5.11834e-17
-4.32378e-16
6.13005e-17
-1.34809e-16
2.44064e-17
-1.78774e-16
1.59392e-16
-1.08174e-15
1.70935e-16
-5.53428e-16
7.37082e-17
-1.91096e-15
-2.10115e-17
-4.9955e-16
-2.96932e-16
-6.37257e-16
-2.45866e-16
-5.48259e-16
-7.95007e-17
-1.28872e-15
1.02024e-18
-6.42243e-16
7.16605e-17
-7.64612e-16
-6.64344e-17
-8.42233e-16
-4.0198e-17
-1.45355e-15
-1.27386e-16
-1.06252e-15
-1.43741e-16
-8.557e-16
2.97104e-18
-6.78765e-16
1.04301e-16
-9.1845e-16
1.45928e-16
-1.35757e-15
1.61107e-16
-1.46154e-15
-1.17018e-16
-1.22105e-15
-3.35074e-16
-9.50545e-16
-3.15395e-16
-7.73028e-16
1.07358e-16
-7.27621e-16
2.26589e-16
-6.69258e-16
1.34451e-16
-8.23451e-16
1.85897e-16
-7.28872e-16
1.26805e-17
-3.42663e-16
-1.82098e-16
-1.24692e-15
-3.47889e-17
-1.49537e-15
8.24984e-17
-1.31406e-15
-9.73971e-17
-1.05753e-15
-2.88707e-16
-1.10516e-15
-1.80904e-16
-1.81361e-15
-1.8163e-16
2.68679e-16
7.39116e-17
-2.16838e-15
-1.46244e-16
-1.13898e-15
-6.9079e-17
-1.19037e-15
1.78977e-16
-1.12059e-15
4.06028e-17
-9.86892e-16
8.8997e-18
-1.70151e-15
-5.83212e-18
-1.01003e-15
-1.56022e-16
-1.17621e-15
-2.26182e-16
-1.2813e-15
-5.27081e-17
-1.63235e-15
1.51782e-16
-9.12826e-16
-1.02857e-16
-9.6182e-16
-2.32298e-16
-7.79444e-16
-4.57681e-17
-9.83437e-16
2.82662e-16
-1.14018e-15
6.81351e-17
-8.61934e-16
6.54457e-17
-8.05706e-16
9.91369e-17
-7.03021e-16
-8.64475e-17
-2.49663e-16
-6.84842e-17
-4.9019e-16
6.58995e-17
-8.81426e-16
1.06382e-16
-1.25877e-15
5.60384e-17
-1.37151e-15
-8.77696e-17
-9.15968e-16
-2.45402e-16
-7.51103e-16
-9.00591e-17
-7.26638e-16
5.38289e-17
-9.91595e-16
1.0097e-16
-9.60289e-16
6.35419e-17
-7.59267e-16
-9.2258e-17
-3.88428e-16
-1.31063e-17
-3.82506e-16
3.57064e-17
-2.64957e-16
8.1443e-17
-5.37015e-16
3.70992e-17
-7.1129e-16
-3.41496e-17
-6.77971e-16
-2.22801e-17
-5.62953e-16
-3.48398e-17
-5.34475e-16
-1.19487e-16
-6.53014e-16
6.67145e-17
-8.77419e-16
1.29433e-16
-1.05458e-15
2.17467e-16
-1.09141e-15
1.4392e-16
-1.07392e-15
-3.9008e-17
-1.31002e-15
5.24291e-17
-1.63534e-15
1.74493e-16
-1.25532e-15
6.62351e-17
-1.03391e-15
1.86132e-16
-1.27409e-15
1.06065e-16
-1.58304e-15
9.76189e-17
-1.38697e-15
4.50875e-17
-1.25411e-15
-1.18221e-16
-1.22859e-15
-2.72355e-17
-1.1088e-15
4.19188e-17
-1.72732e-15
3.39045e-16
-2.77769e-15
4.40608e-16
-2.59346e-15
-1.23245e-16
-1.80572e-15
-5.24175e-16
-1.62635e-15
-2.65989e-16
-9.28269e-16
-2.61369e-16
-7.39187e-16
9.55848e-17
-5.39045e-16
2.90861e-16
-1.21917e-15
-4.69494e-17
-1.13194e-15
-2.09985e-16
-1.2574e-15
8.87387e-17
-1.15909e-15
2.25373e-16
-1.51245e-15
1.92359e-16
-1.90228e-15
4.27073e-16
-2.24103e-15
4.42347e-17
-1.45224e-15
-4.13584e-16
-1.03856e-15
-2.63326e-16
-5.12649e-16
4.2968e-18
-9.22518e-16
1.32941e-16
-7.92658e-16
-8.71245e-17
-1.12858e-15
-2.93324e-17
-1.17825e-15
1.2241e-16
-1.18047e-15
6.34438e-17
-4.28678e-16
4.38285e-17
-7.32712e-16
8.14777e-17
-8.23862e-16
6.27538e-18
-1.21042e-15
-9.74743e-17
-1.49789e-15
-7.57344e-17
-1.17352e-15
-7.72225e-17
-1.43905e-15
2.76788e-17
-1.2805e-15
-2.46684e-18
-1.18174e-15
-6.25219e-18
-2.34726e-15
-1.549e-16
-2.37145e-15
-2.35386e-16
-1.13571e-15
9.76319e-17
-1.92482e-15
2.64357e-16
-2.69819e-15
1.55953e-16
-1.89055e-15
-7.1718e-17
-1.42299e-15
-1.25428e-16
-1.05144e-15
-1.77424e-16
-8.64373e-16
-6.12867e-17
-1.0337e-15
1.58597e-16
-1.74188e-15
1.15232e-16
-2.39813e-15
-1.91938e-16
-2.29699e-15
-3.13118e-16
-2.10831e-15
-2.28706e-16
-1.17257e-15
1.08193e-16
1.71397e-15
3.37902e-16
5.88367e-15
2.5284e-16
1.25931e-14
-1.50836e-15
1.29586e-14
-6.00513e-15
2.49429e-14
-4.38411e-16
4.80256e-15
-1.05358e-15
4.518e-15
-1.73908e-16
1.24159e-15
-7.44935e-16
1.81643e-15
-6.69266e-16
8.17786e-16
-9.06851e-16
6.63195e-15
-2.1344e-15
-1.54724e-15
-1.84333e-15
2.10734e-15
-1.61473e-16
-2.23591e-17
-8.69308e-16
-1.71962e-15
-3.12123e-16
-2.33321e-15
-3.94009e-16
-2.041e-15
-2.25658e-16
-5.41727e-16
-2.34506e-16
3.36002e-16
-5.6185e-16
-6.06325e-16
-3.5527e-16
-1.57847e-15
-3.47433e-16
-2.09665e-15
-3.26503e-16
-1.95536e-15
-4.1623e-16
-1.71691e-15
-5.00135e-16
-2.33793e-15
-1.91785e-16
-2.71765e-15
2.23445e-16
-2.43072e-15
-1.29404e-16
-2.41011e-15
-2.14688e-16
-2.52076e-15
-7.29158e-17
-2.23132e-15
-7.13058e-17
-1.60594e-15
-1.33832e-16
-1.2715e-15
-1.995e-16
-2.05472e-15
-1.64268e-16
-2.83367e-15
-2.93917e-17
-3.37094e-15
-1.49279e-16
-2.99225e-15
-1.93564e-16
-2.53866e-15
-2.583e-17
-2.19942e-15
-1.49674e-17
-2.12045e-15
-1.22526e-16
-2.04381e-15
-1.6454e-16
-2.19462e-15
-3.92633e-17
-1.88319e-15
-9.28987e-17
-1.40535e-15
-2.48392e-16
-9.52062e-16
-1.68425e-16
-6.05903e-16
2.34018e-16
-8.17293e-17
2.11972e-16
-7.88932e-16
1.08677e-16
-2.27025e-15
2.10692e-16
-2.08202e-15
1.13727e-16
-1.11114e-15
-1.74318e-16
-1.27089e-15
5.69107e-17
-1.79864e-15
3.06681e-16
-1.81247e-15
3.80674e-16
-1.79194e-15
3.64677e-16
-2.26362e-15
1.19785e-16
-3.00948e-15
-9.56083e-17
-3.74031e-15
-4.28712e-16
-2.64367e-15
-2.205e-16
2.00844e-15
1.73586e-16
7.68364e-15
-4.12183e-17
2.05124e-14
-1.37595e-15
1.52481e-14
-3.00383e-14
8.26591e-15
-2.15057e-15
-3.11178e-15
-2.63428e-16
2.51414e-15
-1.02866e-16
-5.52353e-16
-1.8609e-16
-1.21562e-15
-3.28687e-16
-1.18602e-15
-2.17069e-16
-1.37794e-15
-5.54686e-18
-1.61638e-15
-1.52546e-16
-1.45195e-15
-9.61477e-18
2.13214e-17
1.77981e-16
1.17216e-15
-1.88518e-16
7.5573e-18
-1.65297e-16
-1.78093e-15
-6.06339e-17
-2.07879e-15
-1.55937e-16
-2.44094e-15
-1.06279e-16
-2.41511e-15
-5.3798e-17
-2.7898e-15
-1.69858e-16
-2.30754e-15
-3.48681e-16
-1.51214e-15
-1.27928e-16
5.11699e-17
1.41775e-16
1.3392e-15
-1.81629e-16
1.37013e-18
6.79663e-17
-6.64854e-16
5.12869e-16
-4.37348e-16
3.95145e-16
-5.93677e-16
3.62521e-17
-1.47714e-15
9.8601e-19
-2.14255e-15
1.62929e-17
-1.7089e-15
5.1728e-17
3.34631e-16
-6.31185e-17
1.56358e-15
1.5471e-16
1.7241e-15
1.14848e-16
7.1544e-16
1.68734e-17
6.07998e-16
-6.15594e-17
6.79119e-16
-1.27995e-16
1.77682e-16
-1.95228e-16
-5.58104e-16
5.11952e-18
-1.50009e-15
1.76327e-16
-2.19086e-15
1.00284e-16
-1.76131e-15
1.14344e-17
-1.7666e-15
5.83182e-18
-1.96842e-15
2.67772e-16
-2.56614e-15
2.59017e-16
-2.68903e-15
-3.97156e-16
-2.44637e-15
-5.90435e-16
-3.00372e-15
-3.52238e-16
-2.1203e-15
4.16729e-17
3.00043e-15
7.97125e-16
6.67558e-15
-2.42605e-16
1.05625e-14
-2.64191e-16
2.00563e-14
-9.83777e-16
3.81095e-14
-4.95732e-15
5.76431e-14
-1.35827e-14
3.56593e-14
-9.58061e-15
1.87558e-14
-2.03076e-15
2.93934e-15
-7.80188e-16
-1.38259e-15
-3.16346e-16
-1.47186e-15
-8.37627e-17
-1.78158e-15
-1.66385e-16
-1.30474e-15
-1.54914e-16
-1.11864e-15
-1.14383e-16
-1.31514e-15
-5.76003e-17
-1.30246e-15
-1.08107e-16
-1.17827e-15
-8.41485e-17
-7.41535e-16
-4.49623e-17
-2.68939e-16
4.90352e-17
8.81587e-16
2.05293e-17
-9.98223e-17
6.03843e-17
-1.09808e-15
1.2386e-16
-1.74193e-15
9.85361e-17
-1.54987e-15
-8.40337e-17
-1.46806e-15
-1.97041e-17
-2.07942e-15
1.65446e-16
-1.31341e-15
1.45044e-16
9.7037e-16
1.07311e-18
7.57121e-15
-6.95956e-16
3.16124e-15
-6.63122e-17
7.03961e-15
1.81274e-16
8.33692e-16
-6.78863e-18
-2.84622e-16
2.70231e-17
-5.60219e-16
6.06504e-17
-7.55039e-16
9.52467e-17
-1.28328e-15
-1.88393e-17
-1.27409e-15
-3.55118e-16
-5.94469e-16
-1.98709e-16
-6.09049e-16
1.39006e-17
-7.55461e-16
2.27595e-16
-8.17826e-16
1.69043e-16
-1.08992e-15
9.78034e-17
-1.37032e-15
2.64412e-16
-1.05765e-15
2.20738e-16
-9.34382e-16
1.53873e-16
-8.11489e-16
-1.7317e-17
-6.3856e-16
-1.01049e-17
-9.68283e-16
4.92951e-17
-9.55724e-16
-1.66973e-16
-1.90501e-16
-1.71538e-16
2.89621e-16
1.40403e-16
7.92186e-16
1.92637e-16
1.48746e-15
-1.48044e-17
7.51062e-16
-1.3201e-16
-1.54122e-16
6.73551e-18
-7.61679e-16
1.31451e-16
-1.10359e-15
1.56526e-16
-1.24118e-15
8.42289e-17
-7.49403e-16
-8.39114e-17
-3.00251e-16
-1.44496e-16
-7.51522e-16
-2.18058e-17
-1.15275e-15
-1.97708e-17
-8.40533e-16
-6.18984e-17
-2.82323e-16
-1.39125e-16
-3.38382e-16
-6.75171e-18
-6.31605e-16
1.36614e-16
-9.34382e-16
1.30046e-16
-7.20754e-16
8.94701e-17
-3.13866e-16
8.47966e-18
5.56756e-17
-2.22041e-17
2.18327e-16