/*--------------------------------*- C++ -*----------------------------------*\
  =========                 |
  \\      /  F ield         | OpenFOAM: The Open Source CFD Toolbox
   \\    /   O peration     | Website:  https://openfoam.org
    \\  /    A nd           | Version:  7
     \\/     M anipulation  |
\*---------------------------------------------------------------------------*/
FoamFile
{
    version     2.0;
    format      ascii;
    class       volScalarField;
    location    "3500";
    object      alpha.wetting;
}
// * * * * * * * * * * * * * * * * * * * * * * * * * * * * * * * * * * * * * //

dimensions      [0 0 0 0 0 0 0];

internalField   nonuniform List<scalar> 
160000
(
0.525123
0.525126
0.455412
0.454899
0.428045
0.430059
0.509754
0.581787
0.506361
0.495654
0.477027
0.458857
0.461542
0.481896
0.481902
0.484016
0.50245
0.517422
0.536802
0.536808
0.520487
0.454024
0.454024
0.465222
0.518408
0.447544
0.447544
0.452604
0.530772
0.530772
0.463332
0.459507
0.459521
0.517625
0.517628
0.457494
0.457494
0.496924
0.511322
0.511288
0.511317
0.511297
0.449887
0.449887
0.449887
0.509624
0.546339
0.524779
0.524765
0.524751
0.470947
0.470947
0.470947
0.470947
0.543632
0.531327
0.531326
0.531325
0.492436
0.492436
0.492435
0.496175
0.50407
0.50407
0.480405
0.480405
0.495092
0.49509
0.495092
0.471112
0.471107
0.471101
0.471091
0.497783
0.516278
0.517721
0.517722
0.517407
0.5174
0.517412
0.517398
0.517406
0.517398
0.504638
0.485236
0.484469
0.484466
0.484466
0.491031
0.491033
0.491032
0.491033
0.50113
0.510642
0.510654
0.499654
0.511335
0.511326
0.511337
0.511326
0.511336
0.504296
0.504262
0.515888
0.487808
0.487806
0.487804
0.487799
0.507066
0.52931
0.529366
0.52931
0.529326
0.52931
0.509571
0.509573
0.509467
0.499764
0.537115
0.542028
0.542023
0.522205
0.52221
0.523162
0.525902
0.525895
0.525902
0.498614
0.474519
0.474522
0.508546
0.49654
0.495182
0.495178
0.52012
0.526577
0.48556
0.485566
0.494588
0.480616
0.480617
0.498235
0.498234
0.498233
0.513062
0.52301
0.522954
0.52301
0.522954
0.522963
0.49758
0.49757
0.492416
0.502749
0.502752
0.502749
0.502752
0.523586
0.523604
0.517869
0.480862
0.471387
0.464643
0.464641
0.50021
0.508885
0.508884
0.493085
0.49308
0.467902
0.509706
0.514061
0.514103
0.514061
0.514082
0.494673
0.494658
0.494673
0.494655
0.508076
0.506014
0.51759
0.519116
0.519115
0.52681
0.526553
0.523664
0.523657
0.494953
0.47938
0.46935
0.406194
0.387195
0.387199
0.45473
0.454699
0.320025
0.320059
0.320008
0.410985
0.506235
0.506309
0.506228
0.482991
0.412938
0.412959
0.412937
0.426324
0.531218
0.531208
0.500716
0.500694
0.500672
0.494501
0.488309
0.488335
0.488687
0.467049
0.467053
0.467049
0.491767
0.508291
0.508301
0.508302
0.546626
0.546641
0.578231
0.548807
0.524393
0.524425
0.524413
0.532387
0.546695
0.549923
0.547956
0.521532
0.467996
0.467994
0.467984
0.470118
0.49639
0.504669
0.551764
0.559848
0.577627
0.57588
0.539738
0.339779
0.226573
0.226644
0.226577
0.315982
0.315808
0.278408
0.278349
0.376008
0.441142
0.44143
0.414608
0.414576
0.414608
0.427499
0.441434
0.441448
0.473504
0.502304
0.54767
0.544329
0.53468
0.535264
0.561035
0.497125
0.449061
0.456053
0.456077
0.467999
0.512342
0.573144
0.601813
0.589073
0.488755
0.463329
0.452293
0.444377
0.440612
0.437321
0.437299
0.437277
0.433676
0.48084
0.501629
0.510645
0.613268
0.646608
0.6466
0.621733
0.599727
0.584137
0.569405
0.413789
0.168327
0.159687
0.159729
0.189963
0.181445
0.127714
0.093603
0.0928456
0.114415
0.200729
0.304376
0.37787
0.463256
0.493538
0.449275
0.419345
0.419298
0.419251
0.401009
0.402913
0.466868
0.538771
0.616212
0.558186
0.527073
0.527024
0.494125
0.414055
0.385896
0.38588
0.383479
0.379162
0.379169
0.380723
0.378863
0.378869
0.387171
0.447739
0.411607
0.353521
0.348547
0.337728
0.337001
0.344616
0.635486
0.626016
0.625977
0.568987
0.452192
0.433343
0.427522
0.42282
0.461727
0.539238
0.543405
0.545579
0.506377
0.498302
0.498311
0.502766
0.502754
0.517853
0.557344
0.566993
0.570523
0.570524
0.570293
0.566912
0.566932
0.545524
0.463883
0.461762
0.459132
0.459135
0.458705
0.458706
0.462004
0.493618
0.509164
0.541994
0.544096
0.545323
0.55635
0.559427
0.559427
0.558368
0.514834
0.50605
0.506045
0.511363
0.509106
0.485333
0.471637
0.38187
0.323627
0.236076
0.153325
0.150869
0.150873
0.151373
0.473974
0.473974
0.564646
0.449054
0.440243
0.442307
0.459965
0.488981
0.488982
0.493755
0.502172
0.507717
0.495719
0.481902
0.514396
0.514397
0.510399
0.471448
0.471448
0.471448
0.498727
0.465157
0.511223
0.518409
0.518409
0.447544
0.504834
0.520887
0.517304
0.517291
0.5173
0.461904
0.459507
0.476647
0.517625
0.512498
0.512517
0.479413
0.479417
0.479413
0.492429
0.511297
0.468196
0.449887
0.471039
0.546339
0.546344
0.479926
0.47545
0.504871
0.483928
0.470947
0.51208
0.551412
0.551417
0.510794
0.531332
0.50549
0.492437
0.492436
0.500244
0.50407
0.50407
0.491905
0.491906
0.491907
0.468762
0.468764
0.468762
0.505601
0.505602
0.505606
0.472997
0.465761
0.465391
0.494161
0.517113
0.515259
0.501558
0.501555
0.501553
0.500231
0.492961
0.492959
0.496321
0.497452
0.497455
0.480508
0.48051
0.480508
0.505692
0.510658
0.510645
0.510658
0.491043
0.491891
0.509417
0.511207
0.511326
0.475872
0.475847
0.536729
0.504296
0.51586
0.515904
0.487808
0.487806
0.487804
0.502388
0.529344
0.52931
0.516449
0.514607
0.514604
0.523513
0.526711
0.50913
0.499755
0.495231
0.542023
0.542028
0.542022
0.524516
0.524476
0.510895
0.505065
0.505073
0.481414
0.481422
0.508546
0.508547
0.496534
0.497235
0.55305
0.553052
0.526575
0.533764
0.533772
0.494588
0.4917
0.504522
0.51457
0.519365
0.521505
0.521522
0.507426
0.507439
0.522954
0.52296
0.484195
0.484196
0.494757
0.485904
0.493761
0.505302
0.525291
0.525307
0.525291
0.491803
0.480335
0.48033
0.480324
0.494198
0.495122
0.48715
0.487142
0.507183
0.493821
0.467899
0.467901
0.488992
0.51409
0.485755
0.485766
0.51333
0.529227
0.529239
0.523566
0.525823
0.518586
0.506025
0.519116
0.519119
0.519114
0.544713
0.565572
0.56557
0.517723
0.400848
0.35157
0.351787
0.466051
0.56125
0.55425
0.462305
0.320043
0.320077
0.320181
0.506328
0.506224
0.506322
0.486069
0.442956
0.413253
0.412959
0.412938
0.530635
0.531216
0.531208
0.478707
0.476564
0.476571
0.486624
0.505574
0.533716
0.524907
0.488678
0.467053
0.486463
0.491726
0.491745
0.488415
0.48841
0.534779
0.54581
0.5618
0.588482
0.579738
0.578063
0.587936
0.587086
0.540301
0.541051
0.549937
0.53168
0.459129
0.459129
0.464018
0.47662
0.474695
0.482374
0.510688
0.589307
0.604991
0.603176
0.523143
0.286323
0.268712
0.338874
0.535287
0.535427
0.434807
0.303846
0.327399
0.40341
0.432447
0.446126
0.437609
0.414578
0.464358
0.466115
0.466074
0.441415
0.456369
0.50182
0.543896
0.547671
0.53468
0.534681
0.535372
0.561047
0.452681
0.449043
0.453246
0.454583
0.510159
0.533881
0.601027
0.601816
0.532421
0.456129
0.44477
0.429075
0.429086
0.433458
0.437298
0.432251
0.423436
0.423428
0.44196
0.472157
0.556832
0.611515
0.631664
0.644542
0.78469
0.814925
0.78397
0.577256
0.236771
0.236659
0.498609
0.498505
0.356961
0.134988
0.125606
0.213479
0.296629
0.368676
0.429811
0.475542
0.511134
0.529699
0.519308
0.510158
0.42342
0.405039
0.392979
0.401899
0.4827
0.556376
0.611179
0.558467
0.558323
0.588783
0.588737
0.485143
0.382393
0.381902
0.381904
0.402565
0.460001
0.467345
0.465175
0.465976
0.434599
0.434246
0.497914
0.496636
0.426592
0.437336
0.474756
0.438112
0.543671
0.63546
0.635486
0.623143
0.464223
0.429021
0.423639
0.419673
0.419677
0.481219
0.544598
0.547264
0.547264
0.547264
0.545233
0.546476
0.549045
0.549186
0.559806
0.567812
0.567002
0.567011
0.570526
0.521965
0.484912
0.484925
0.484912
0.490789
0.503797
0.507047
0.488881
0.494409
0.483074
0.516282
0.520309
0.521089
0.537485
0.540111
0.540099
0.548689
0.5484
0.548387
0.554302
0.519868
0.512677
0.567438
0.567447
0.539921
0.537482
0.538362
0.462111
0.437904
0.364856
0.1818
0.151113
0.150871
0.151377
0.473974
0.505442
0.564649
0.563658
0.563663
0.490115
0.507589
0.51853
0.48914
0.489144
0.518031
0.518034
0.495923
0.501596
0.514397
0.513186
0.513187
0.513184
0.471448
0.471448
0.483695
0.508883
0.509327
0.506055
0.510559
0.53064
0.530643
0.520886
0.524741
0.524746
0.482532
0.482041
0.489286
0.491106
0.49111
0.491106
0.501429
0.524138
0.510911
0.492493
0.492421
0.492472
0.492497
0.44989
0.487273
0.521782
0.470869
0.470871
0.470869
0.498965
0.498958
0.48754
0.488675
0.495367
0.490917
0.494714
0.531321
0.531338
0.531315
0.531323
0.480455
0.474211
0.474194
0.482309
0.454352
0.461932
0.490862
0.490862
0.473815
0.497954
0.488029
0.488026
0.488028
0.488029
0.463115
0.463106
0.463089
0.50592
0.510017
0.510017
0.495355
0.515022
0.51502
0.51502
0.511348
0.492182
0.492133
0.492181
0.492943
0.480514
0.480513
0.502701
0.489295
0.489278
0.491052
0.468643
0.46864
0.482258
0.511322
0.508121
0.480089
0.544279
0.544412
0.508887
0.508883
0.508876
0.526282
0.500332
0.498714
0.498713
0.514724
0.517527
0.51753
0.499814
0.527219
0.527222
0.497243
0.495076
0.495074
0.501378
0.47898
0.457984
0.485271
0.509921
0.509139
0.509081
0.491233
0.491226
0.508545
0.508547
0.488783
0.515688
0.55305
0.553052
0.547115
0.539013
0.524161
0.524156
0.513384
0.482019
0.495494
0.519362
0.519368
0.490889
0.51163
0.51649
0.507099
0.50711
0.522251
0.484196
0.489904
0.490509
0.485898
0.485897
0.515406
0.524115
0.493663
0.493672
0.494664
0.498721
0.480335
0.48033
0.503552
0.526199
0.526194
0.519367
0.512131
0.479821
0.467901
0.467899
0.467901
0.489349
0.524984
0.524963
0.502606
0.502603
0.521876
0.545805
0.545806
0.536376
0.523233
0.500493
0.500489
0.558656
0.558658
0.543343
0.442453
0.274199
0.202512
0.302127
0.677925
0.678062
0.677775
0.505992
0.36819
0.320096
0.335458
0.439123
0.506219
0.506264
0.476078
0.465181
0.460094
0.471693
0.471697
0.508956
0.531762
0.499668
0.46463
0.465556
0.496444
0.497812
0.512887
0.537808
0.547985
0.533929
0.517874
0.518621
0.504372
0.490393
0.490379
0.530035
0.558792
0.569107
0.588483
0.588484
0.588485
0.563979
0.588465
0.588466
0.578234
0.550368
0.534524
0.464346
0.468145
0.510529
0.498799
0.481644
0.492701
0.510933
0.554644
0.569431
0.590244
0.604985
0.537462
0.277926
0.264361
0.268979
0.535293
0.535448
0.535321
0.323507
0.339676
0.430116
0.451314
0.46463
0.482983
0.483308
0.478348
0.494918
0.466171
0.444244
0.444236
0.524975
0.546395
0.546388
0.545732
0.537523
0.549518
0.542813
0.518815
0.493058
0.520324
0.530246
0.528051
0.546373
0.548465
0.580779
0.582971
0.467354
0.414348
0.414344
0.429481
0.432572
0.432588
0.432572
0.46988
0.501573
0.509398
0.509399
0.509399
0.512034
0.550349
0.679193
0.716237
0.793035
0.845213
0.690064
0.404531
0.404331
0.550356
0.55038
0.350836
0.159959
0.211475
0.367342
0.483772
0.51017
0.486053
0.489712
0.524675
0.546182
0.546174
0.528402
0.417293
0.385334
0.385316
0.4421
0.532225
0.576651
0.625386
0.601731
0.601638
0.626766
0.626709
0.478084
0.400196
0.390799
0.405519
0.400516
0.444753
0.505956
0.515113
0.51581
0.518949
0.513646
0.545757
0.615703
0.625619
0.626815
0.626819
0.61435
0.606607
0.64418
0.644191
0.613747
0.512903
0.423576
0.425354
0.421689
0.434781
0.492321
0.541952
0.544376
0.514251
0.510573
0.541748
0.539897
0.525909
0.525915
0.526114
0.567556
0.567805
0.56965
0.569653
0.534046
0.525946
0.543803
0.515865
0.558155
0.646235
0.649921
0.65216
0.62222
0.51092
0.449456
0.449461
0.450658
0.480633
0.5375
0.533654
0.553592
0.567104
0.568582
0.568581
0.559599
0.567994
0.568373
0.568374
0.527959
0.519886
0.538524
0.538525
0.538175
0.495512
0.354104
0.19183
0.151077
0.151078
0.151563
0.483644
0.503688
0.532438
0.530606
0.526729
0.526731
0.512691
0.518529
0.48361
0.489146
0.482776
0.481939
0.495928
0.478907
0.490125
0.483774
0.470702
0.473426
0.471448
0.494034
0.473247
0.473232
0.473247
0.473227
0.531085
0.531072
0.501231
0.520886
0.506417
0.43334
0.461695
0.479217
0.480274
0.476002
0.475987
0.532186
0.532183
0.531371
0.492505
0.492497
0.512209
0.51222
0.480219
0.460517
0.480665
0.476593
0.483916
0.48884
0.48884
0.475585
0.475582
0.47558
0.473125
0.473128
0.473125
0.485334
0.470458
0.470459
0.464959
0.46495
0.464949
0.474197
0.47421
0.454352
0.454351
0.485953
0.490336
0.475205
0.475183
0.548149
0.548159
0.485477
0.47269
0.472686
0.472679
0.492475
0.456257
0.491754
0.510017
0.470455
0.470453
0.476924
0.515021
0.492176
0.492188
0.492173
0.496761
0.496739
0.492971
0.492943
0.487817
0.491924
0.491923
0.491921
0.468646
0.468646
0.468646
0.438541
0.438526
0.504903
0.504902
0.460079
0.551439
0.551434
0.531491
0.54917
0.544457
0.519438
0.512036
0.512031
0.487244
0.49751
0.51491
0.49293
0.492928
0.497178
0.498693
0.498694
0.498694
0.496128
0.463936
0.45559
0.455594
0.455732
0.456118
0.507116
0.507114
0.507112
0.494435
0.501142
0.488781
0.498953
0.51668
0.543878
0.559192
0.566581
0.546844
0.533164
0.492102
0.482016
0.503846
0.514795
0.490889
0.490888
0.490889
0.518861
0.520732
0.520732
0.486921
0.486912
0.50407
0.501736
0.498925
0.485891
0.485897
0.485879
0.520713
0.527454
0.527456
0.504548
0.51571
0.530123
0.530123
0.530123
0.520873
0.494698
0.494205
0.497327
0.608596
0.617832
0.617831
0.593787
0.524244
0.524239
0.524237
0.513822
0.521896
0.516753
0.496176
0.49529
0.507553
0.503819
0.49872
0.544538
0.545804
0.427926
0.202244
0.202321
0.202402
0.618316
0.678212
0.677925
0.489437
0.415516
0.450592
0.50429
0.491253
0.477174
0.496061
0.501482
0.501481
0.463561
0.498465
0.506227
0.525592
0.552534
0.531788
0.481381
0.464626
0.48458
0.49441
0.494399
0.510893
0.548951
0.548951
0.548951
0.544649
0.54109
0.532702
0.532259
0.549817
0.561008
0.570203
0.579352
0.580301
0.539901
0.511994
0.513352
0.537616
0.554496
0.553434
0.527528
0.449393
0.433276
0.525513
0.582989
0.584504
0.604643
0.595923
0.534433
0.524567
0.52457
0.596566
0.53989
0.297323
0.264361
0.26453
0.397018
0.535471
0.535333
0.316418
0.316713
0.411794
0.444483
0.464109
0.495363
0.510659
0.508111
0.51792
0.517919
0.465355
0.464874
0.516235
0.529863
0.534481
0.487878
0.479044
0.535324
0.549499
0.547141
0.518807
0.543236
0.543216
0.543196
0.528036
0.547375
0.554386
0.597089
0.597101
0.537491
0.451753
0.430429
0.428521
0.428513
0.458234
0.465017
0.467891
0.477437
0.483842
0.49396
0.499012
0.535219
0.658311
0.585737
0.555898
0.851435
0.859734
0.859738
0.735431
0.607003
0.586146
0.514289
0.449151
0.441957
0.516188
0.569357
0.57487
0.57487
0.565745
0.536389
0.506988
0.50699
0.533112
0.550423
0.520417
0.462514
0.417046
0.420589
0.468781
0.59268
0.629454
0.629511
0.617123
0.464155
0.405429
0.384608
0.392757
0.456618
0.515276
0.512732
0.480776
0.478071
0.502159
0.537075
0.611804
0.626082
0.627944
0.628339
0.628957
0.628957
0.625503
0.570228
0.570231
0.626531
0.631075
0.559466
0.434261
0.417348
0.416659
0.416662
0.441545
0.470221
0.49649
0.520866
0.511508
0.506395
0.514748
0.541093
0.549089
0.554017
0.556537
0.556542
0.510137
0.505531
0.520594
0.467609
0.444127
0.563813
0.596237
0.640339
0.65207
0.652067
0.652159
0.641204
0.550905
0.45151
0.450334
0.450327
0.497276
0.515408
0.514317
0.514309
0.565687
0.568581
0.568582
0.568581
0.567672
0.548871
0.511214
0.474268
0.458063
0.457509
0.489069
0.537438
0.501211
0.440991
0.375462
0.284409
0.151687
0.151682
0.502738
0.545942
0.533577
0.505551
0.49658
0.497769
0.475281
0.475278
0.475281
0.475275
0.48289
0.477676
0.477676
0.478904
0.505907
0.470702
0.470701
0.470702
0.484518
0.502914
0.502908
0.483704
0.473239
0.473247
0.48185
0.467662
0.467656
0.467651
0.451316
0.432458
0.480266
0.480272
0.476387
0.481975
0.465688
0.465688
0.465688
0.485311
0.558675
0.558676
0.502848
0.502846
0.505136
0.487064
0.476557
0.476562
0.476557
0.478678
0.48884
0.48884
0.480055
0.481147
0.48115
0.473125
0.473128
0.487756
0.481202
0.493034
0.493032
0.480982
0.450506
0.438305
0.443459
0.45964
0.481597
0.481576
0.499589
0.475216
0.475204
0.480941
0.554937
0.518184
0.53987
0.510279
0.481224
0.492482
0.455723
0.447027
0.44701
0.490466
0.490449
0.48038
0.503371
0.520075
0.52008
0.520075
0.52008
0.495754
0.485761
0.485759
0.485758
0.469981
0.464937
0.475481
0.428291
0.411687
0.41173
0.43853
0.438553
0.410114
0.434731
0.426807
0.426807
0.515397
0.588169
0.600766
0.600773
0.574207
0.516325
0.506324
0.487251
0.462694
0.462698
0.48224
0.511337
0.51135
0.49224
0.492234
0.498694
0.482657
0.482655
0.484227
0.467781
0.455736
0.47752
0.507114
0.499735
0.465268
0.461285
0.458037
0.401577
0.4138
0.413779
0.432847
0.478165
0.566558
0.608438
0.564302
0.562238
0.565817
0.546951
0.507745
0.50773
0.502244
0.494136
0.518135
0.514607
0.49017
0.514448
0.516929
0.509369
0.485897
0.48587
0.485897
0.485866
0.50438
0.523285
0.523308
0.469972
0.447253
0.447233
0.447215
0.437179
0.415032
0.391106
0.342333
0.422273
0.476392
0.550179
0.617831
0.617805
0.586842
0.567865
0.527688
0.523983
0.523983
0.516776
0.512332
0.508237
0.495283
0.49529
0.49537
0.498725
0.493162
0.325126
0.195361
0.195297
0.336743
0.678253
0.678572
0.678093
0.510154
0.41451
0.414492
0.492039
0.512551
0.480711
0.483096
0.496059
0.452063
0.456804
0.39925
0.463525
0.514079
0.540878
0.562635
0.562517
0.512791
0.498813
0.510972
0.499925
0.494687
0.539319
0.548951
0.534573
0.502821
0.511986
0.543548
0.555673
0.56141
0.56142
0.560551
0.517439
0.493774
0.493774
0.499788
0.505236
0.524009
0.527961
0.503172
0.43157
0.400207
0.377287
0.42768
0.510007
0.58068
0.618601
0.617733
0.618185
0.626447
0.66248
0.662491
0.613968
0.377079
0.297433
0.338563
0.535281
0.535425
0.535328
0.301117
0.286537
0.389923
0.466983
0.501358
0.515693
0.517684
0.526718
0.526722
0.517924
0.488397
0.465925
0.473602
0.491623
0.456535
0.371625
0.347849
0.396111
0.439225
0.486913
0.55859
0.558574
0.554967
0.530996
0.530882
0.548286
0.549998
0.595192
0.608767
0.585393
0.468526
0.438015
0.432318
0.462242
0.464161
0.468673
0.483538
0.486562
0.501412
0.514176
0.498233
0.514089
0.642813
0.606513
0.409883
0.441433
0.745898
0.768343
0.497175
0.373815
0.431125
0.349953
0.452463
0.525163
0.544989
0.548952
0.553286
0.549947
0.546654
0.546643
0.559992
0.583655
0.597624
0.60031
0.611362
0.611362
0.611362
0.609823
0.601659
0.602313
0.594355
0.551722
0.427054
0.407381
0.399661
0.388833
0.384611
0.449311
0.523578
0.516268
0.460416
0.354632
0.34701
0.335733
0.349192
0.501601
0.610714
0.625228
0.624308
0.628957
0.617064
0.614029
0.623779
0.623785
0.617279
0.500975
0.429641
0.429617
0.442181
0.480564
0.489064
0.526642
0.568641
0.552209
0.499676
0.498261
0.497625
0.523744
0.549162
0.553022
0.553018
0.554051
0.531446
0.46732
0.38645
0.281663
0.27504
0.284352
0.464418
0.594247
0.603609
0.628081
0.649645
0.622944
0.55826
0.555665
0.551579
0.604487
0.568348
0.546145
0.566813
0.567264
0.567261
0.56747
0.567952
0.498732
0.512833
0.576153
0.578855
0.57255
0.527084
0.486927
0.456573
0.456575
0.458101
0.458093
0.496124
0.456181
0.335726
0.165685
0.151414
0.470869
0.540354
0.499953
0.489407
0.4864
0.503355
0.485095
0.490076
0.47966
0.493139
0.493137
0.490245
0.492719
0.497222
0.505907
0.505907
0.505906
0.485301
0.486762
0.493426
0.487616
0.487598
0.487607
0.473245
0.473248
0.493848
0.46953
0.471009
0.429192
0.429196
0.429192
0.47112
0.486123
0.486124
0.465688
0.465688
0.472889
0.511059
0.558673
0.558675
0.552585
0.538304
0.506345
0.47656
0.476562
0.503801
0.503808
0.492683
0.474499
0.481003
0.480981
0.474492
0.47449
0.474486
0.486284
0.488462
0.500637
0.500637
0.481548
0.481552
0.481546
0.426581
0.42658
0.436616
0.481617
0.485377
0.499698
0.480105
0.475216
0.476217
0.567185
0.567179
0.5672
0.552558
0.48123
0.492482
0.492482
0.492481
0.474088
0.460203
0.460204
0.485744
0.503362
0.489143
0.489151
0.50686
0.50557
0.505568
0.505566
0.505564
0.487132
0.464937
0.464933
0.464936
0.43465
0.434646
0.396653
0.361182
0.361174
0.410125
0.468642
0.426807
0.493316
0.600809
0.600775
0.600782
0.546413
0.501448
0.501449
0.506319
0.506318
0.506316
0.462693
0.462698
0.477881
0.51136
0.51135
0.492017
0.492012
0.502797
0.533196
0.540023
0.539888
0.516919
0.516922
0.505536
0.483543
0.457445
0.415184
0.37631
0.376302
0.377747
0.430096
0.46679
0.45123
0.550325
0.625414
0.629158
0.611316
0.584225
0.555775
0.509686
0.498419
0.49839
0.498403
0.480834
0.480831
0.490169
0.516929
0.516932
0.50109
0.485889
0.496262
0.500873
0.503068
0.504225
0.487383
0.480944
0.468441
0.459731
0.470829
0.483997
0.426242
0.359417
0.369669
0.342345
0.426621
0.471485
0.552374
0.608214
0.605366
0.573491
0.567858
0.577217
0.57723
0.550376
0.524016
0.518285
0.506216
0.520275
0.520277
0.520282
0.448628
0.242069
0.09781
0.224882
0.678803
0.67833
0.678789
0.678253
0.477182
0.439962
0.439546
0.488503
0.527388
0.519843
0.467974
0.429344
0.429361
0.403511
0.403523
0.399245
0.447585
0.539657
0.562635
0.562635
0.562638
0.546406
0.533351
0.531009
0.526422
0.524939
0.524629
0.503977
0.497041
0.492298
0.497509
0.496854
0.49359
0.493593
0.501064
0.490041
0.49003
0.498142
0.532655
0.540761
0.54129
0.528267
0.498693
0.460537
0.419847
0.397829
0.371576
0.397521
0.497161
0.571401
0.618608
0.624976
0.630009
0.655474
0.688315
0.635458
0.435926
0.407091
0.535319
0.535232
0.535369
0.377781
0.297854
0.295354
0.357331
0.444932
0.505572
0.523379
0.527466
0.514143
0.492921
0.492932
0.497652
0.492657
0.509607
0.515856
0.494376
0.407002
0.373352
0.340366
0.37134
0.449232
0.553841
0.558574
0.545877
0.512528
0.512504
0.542329
0.55447
0.593943
0.60878
0.608779
0.506194
0.464962
0.464961
0.529275
0.544106
0.544107
0.544107
0.526075
0.492387
0.489754
0.518682
0.575998
0.652138
0.640376
0.409875
0.409914
0.502893
0.678951
0.41602
0.278831
0.272153
0.268441
0.268435
0.379019
0.520204
0.538532
0.539403
0.545458
0.549557
0.548222
0.583675
0.600672
0.600684
0.59046
0.553627
0.47094
0.473634
0.46388
0.463857
0.509242
0.602297
0.600928
0.537226
0.404846
0.388272
0.387103
0.387105
0.463061
0.528633
0.528638
0.520171
0.42485
0.348516
0.345964
0.335735
0.342953
0.484285
0.596934
0.590596
0.590596
0.598418
0.596228
0.611376
0.620785
0.622493
0.616205
0.606423
0.549982
0.438419
0.434563
0.50096
0.574523
0.574574
0.574574
0.547607
0.499455
0.499447
0.49763
0.497625
0.503321
0.502938
0.502941
0.50261
0.493875
0.38195
0.279947
0.278134
0.27504
0.27978
0.37431
0.548386
0.649236
0.653033
0.653033
0.651518
0.652732
0.652732
0.652732
0.64112
0.559399
0.48546
0.467618
0.467346
0.467348
0.468208
0.493349
0.494767
0.495709
0.561997
0.578856
0.578238
0.578683
0.578684
0.56224
0.545631
0.480897
0.497936
0.499216
0.499218
0.394461
0.202162
0.151741
0.513477
0.495214
0.482415
0.482815
0.486128
0.512465
0.512466
0.508389
0.503428
0.514247
0.491147
0.48517
0.499383
0.499385
0.486487
0.495811
0.484578
0.50124
0.486766
0.497919
0.506009
0.506023
0.478049
0.473248
0.503675
0.503696
0.487359
0.490629
0.451467
0.442967
0.456966
0.470389
0.463984
0.481998
0.465688
0.465688
0.521509
0.558672
0.558675
0.530183
0.544619
0.54462
0.535027
0.488776
0.51624
0.516241
0.479668
0.479666
0.474501
0.47449
0.474497
0.474486
0.474492
0.486838
0.486852
0.485086
0.500637
0.500637
0.493086
0.487624
0.446513
0.42658
0.435865
0.495629
0.495917
0.495942
0.499698
0.475249
0.475228
0.536628
0.527484
0.527505
0.527447
0.527492
0.527449
0.527458
0.469717
0.469717
0.474834
0.468333
0.488949
0.488953
0.470118
0.470117
0.512245
0.512254
0.508093
0.479767
0.46852
0.468519
0.46852
0.46494
0.466634
0.485237
0.484257
0.409937
0.409953
0.456629
0.456652
0.410114
0.482294
0.426821
0.488203
0.600775
0.600809
0.600775
0.600788
0.524772
0.493914
0.493936
0.493931
0.481892
0.48189
0.512878
0.512878
0.512878
0.492017
0.492012
0.492017
0.529049
0.540023
0.540025
0.513987
0.481003
0.495986
0.508656
0.48955
0.481227
0.459869
0.421796
0.39619
0.411369
0.411338
0.41584
0.445856
0.495634
0.622448
0.629156
0.629158
0.593757
0.546173
0.523116
0.50697
0.48934
0.487424
0.48743
0.499812
0.499807
0.482783
0.482782
0.498961
0.498988
0.492129
0.492122
0.498147
0.504208
0.487349
0.479843
0.470415
0.471916
0.521631
0.521633
0.488462
0.354741
0.350249
0.34984
0.465467
0.474656
0.543543
0.621371
0.62284
0.622844
0.578505
0.568506
0.5685
0.568502
0.532337
0.508486
0.506219
0.511371
0.51581
0.454186
0.247318
0.0977254
0.0975672
0.314793
0.678356
0.678812
0.678326
0.499989
0.441678
0.441683
0.485024
0.485378
0.527386
0.527388
0.511424
0.443877
0.428361
0.409787
0.42535
0.399249
0.399245
0.504037
0.541028
0.556593
0.562638
0.562638
0.562634
0.521376
0.510846
0.513205
0.491297
0.470978
0.47098
0.491376
0.496639
0.500467
0.516628
0.533578
0.522295
0.502211
0.501782
0.509226
0.51484
0.530405
0.544432
0.544433
0.541907
0.474576
0.403814
0.390865
0.371574
0.413042
0.537888
0.625637
0.625664
0.56676
0.557788
0.659372
0.688313
0.63486
0.544491
0.525747
0.512858
0.462034
0.374237
0.321521
0.314218
0.35953
0.417837
0.484088
0.528437
0.535047
0.535043
0.52955
0.533082
0.540591
0.540592
0.540356
0.540591
0.540591
0.514526
0.385432
0.355882
0.340367
0.366756
0.464522
0.47492
0.501459
0.501444
0.52988
0.559622
0.581377
0.583745
0.60878
0.608779
0.60878
0.567262
0.526718
0.496216
0.493021
0.491191
0.48893
0.474744
0.472828
0.472831
0.489658
0.522711
0.562219
0.614821
0.517358
0.409914
0.409875
0.501446
0.435774
0.287045
0.274329
0.281329
0.320699
0.321466
0.435823
0.509079
0.524556
0.533877
0.548242
0.554265
0.576092
0.594716
0.598919
0.595054
0.495072
0.458591
0.45053
0.450521
0.474026
0.528976
0.568841
0.574909
0.559649
0.553874
0.543944
0.515323
0.46509
0.440366
0.466585
0.515969
0.525667
0.512096
0.413945
0.34656
0.34953
0.335976
0.347983
0.458059
0.59729
0.603441
0.601971
0.601315
0.596225
0.611035
0.620578
0.622369
0.599803
0.591961
0.531125
0.434189
0.434177
0.485261
0.566194
0.573269
0.567822
0.502667
0.498633
0.498634
0.537994
0.540936
0.540936
0.522228
0.530661
0.538567
0.53857
0.522961
0.433138
0.281882
0.27504
0.284013
0.467924
0.592671
0.600783
0.600778
0.623643
0.651341
0.649426
0.625086
0.597258
0.59326
0.59149
0.589733
0.519837
0.469646
0.469098
0.529288
0.561157
0.540866
0.53671
0.576649
0.576021
0.4985
0.472596
0.469521
0.469521
0.470016
0.470301
0.470297
0.499214
0.495825
0.398671
0.207808
0.152053
0.478387
0.495217
0.476884
0.512815
0.512818
0.494994
0.492019
0.492015
0.510858
0.514247
0.514245
0.481127
0.481125
0.481123
0.481121
0.479554
0.484573
0.507774
0.507774
0.49792
0.505433
0.498041
0.498038
0.503034
0.502393
0.492607
0.492575
0.492588
0.469185
0.47207
0.472072
0.461967
0.461968
0.484278
0.485877
0.554785
0.554787
0.532888
0.526182
0.530178
0.512966
0.512964
0.527867
0.507633
0.51624
0.515588
0.508065
0.508063
0.508059
0.508057
0.490581
0.49058
0.490577
0.473712
0.473717
0.473712
0.476229
0.492359
0.482855
0.482851
0.48285
0.463327
0.468712
0.47912
0.478276
0.478275
0.478275
0.487511
0.54413
0.544132
0.560173
0.575917
0.575919
0.544842
0.489659
0.488873
0.488868
0.514544
0.494855
0.486237
0.478225
0.470118
0.470117
0.479319
0.492068
0.494108
0.479768
0.479766
0.485224
0.488945
0.464948
0.464943
0.470136
0.485231
0.492756
0.492743
0.489743
0.436363
0.450661
0.5006
0.507325
0.438274
0.537196
0.575123
0.544615
0.539885
0.523434
0.501252
0.501277
0.50123
0.501239
0.49449
0.485535
0.483959
0.483961
0.483959
0.508409
0.518113
0.518112
0.496803
0.4968
0.4968
0.481003
0.481002
0.504348
0.508668
0.477577
0.45874
0.458661
0.45874
0.45866
0.446114
0.452101
0.514403
0.56361
0.615779
0.615764
0.626785
0.619203
0.538285
0.528263
0.52827
0.513739
0.489348
0.493159
0.499812
0.499807
0.491422
0.491414
0.513567
0.513571
0.498986
0.492122
0.492129
0.49717
0.503408
0.493486
0.510147
0.5125
0.520089
0.521633
0.521631
0.474593
0.44433
0.517443
0.523258
0.523265
0.491531
0.606445
0.622839
0.622845
0.576464
0.576461
0.576459
0.576461
0.516962
0.487134
0.487132
0.525358
0.510013
0.415402
0.218379
0.097739
0.0975739
0.0977412
0.313754
0.678813
0.678348
0.434395
0.398861
0.475784
0.518681
0.518688
0.490728
0.490744
0.523112
0.523119
0.50231
0.442313
0.422064
0.425355
0.418077
0.488608
0.521587
0.53361
0.52243
0.522408
0.560676
0.553718
0.508869
0.499941
0.486508
0.470361
0.482231
0.50632
0.521266
0.524238
0.533574
0.533594
0.533574
0.533588
0.531071
0.513626
0.509222
0.534904
0.54443
0.544433
0.535168
0.536912
0.53692
0.518401
0.498374
0.500845
0.531
0.574681
0.625664
0.595979
0.537311
0.545463
0.590275
0.57848
0.535874
0.523179
0.497744
0.465383
0.434973
0.423821
0.404467
0.399205
0.416657
0.439783
0.463698
0.489725
0.511973
0.516057
0.524355
0.538958
0.540215
0.540592
0.540592
0.540592
0.531509
0.464637
0.420419
0.409236
0.430668
0.430678
0.430668
0.43264
0.475624
0.516929
0.5376
0.546584
0.549835
0.580066
0.59894
0.598055
0.575369
0.559043
0.549026
0.535868
0.516687
0.50544
0.496191
0.488203
0.501139
0.522231
0.528355
0.556551
0.593764
0.618346
0.505768
0.418216
0.437396
0.445933
0.334599
0.277024
0.274328
0.341904
0.448625
0.5095
0.510846
0.547223
0.537974
0.535131
0.557666
0.596964
0.603072
0.605987
0.609335
0.586125
0.466996
0.458574
0.468339
0.491055
0.474876
0.480444
0.481801
0.511581
0.545251
0.547883
0.552906
0.552909
0.522243
0.4881
0.506625
0.52412
0.524521
0.506194
0.376329
0.345288
0.392286
0.47433
0.527918
0.601956
0.611046
0.616083
0.616083
0.616083
0.616083
0.604342
0.518982
0.498904
0.493566
0.487776
0.453755
0.434177
0.448654
0.532958
0.576237
0.576239
0.571097
0.522711
0.507663
0.536214
0.536426
0.540936
0.540892
0.476602
0.465436
0.482862
0.538192
0.538197
0.525172
0.438292
0.384215
0.395053
0.569027
0.650595
0.650599
0.631198
0.651606
0.651345
0.651891
0.651893
0.627548
0.594889
0.592986
0.558306
0.469836
0.469839
0.546012
0.562163
0.564703
0.576724
0.578966
0.578966
0.578966
0.542074
0.57035
0.570353
0.569552
0.524575
0.521588
0.521595
0.495283
0.372293
0.265896
0.151809
0.151813
0.467425
0.480383
0.476882
0.493856
0.493855
0.51014
0.506207
0.492013
0.481315
0.475215
0.498733
0.496287
0.496286
0.496286
0.479554
0.479555
0.483711
0.502762
0.497664
0.523163
0.523165
0.505649
0.515544
0.515547
0.500538
0.500524
0.500537
0.492044
0.464226
0.464231
0.472071
0.484044
0.48736
0.504977
0.485889
0.485894
0.485899
0.495125
0.525239
0.5368
0.536801
0.512967
0.482206
0.482205
0.482206
0.484969
0.50165
0.479416
0.479418
0.479416
0.504579
0.476371
0.476367
0.476367
0.476366
0.473717
0.483935
0.488426
0.485483
0.485485
0.475849
0.42401
0.408575
0.408568
0.497566
0.501346
0.501348
0.479508
0.479508
0.479509
0.527083
0.575037
0.558246
0.514997
0.514989
0.514994
0.514985
0.51455
0.48625
0.486241
0.509497
0.509495
0.500246
0.482861
0.501732
0.493961
0.490539
0.48679
0.50859
0.511844
0.511846
0.467811
0.479932