/*--------------------------------*- C++ -*----------------------------------*\
  =========                 |
  \\      /  F ield         | OpenFOAM: The Open Source CFD Toolbox
   \\    /   O peration     | Website:  https://openfoam.org
    \\  /    A nd           | Version:  7
     \\/     M anipulation  |
\*---------------------------------------------------------------------------*/
FoamFile
{
    version     2.0;
    format      ascii;
    class       volScalarField;
    location    "3500";
    object      epss;
}
// * * * * * * * * * * * * * * * * * * * * * * * * * * * * * * * * * * * * * //

dimensions      [0 0 0 0 0 0 0];

internalField   nonuniform List<scalar> 
160000
(
0.550457
0.516369
0.540411
0.501188
0.469811
0.542699
0.477897
0.5523
0.521919
0.450319
0.480155
0.519685
0.456999
0.464337
0.570045
0.529818
0.561987
0.556528
0.482036
0.489395
0.504773
0.522553
0.500321
0.462289
0.484805
0.453178
0.450667
0.498318
0.478645
0.535955
0.538624
0.491202
0.412236
0.483738
0.501142
0.474706
0.463332
0.423257
0.550739
0.501828
0.501009
0.502248
0.472059
0.53176
0.469118
0.47208
0.489108
0.545064
0.482202
0.534976
0.496583
0.41688
0.460868
0.492374
0.427914
0.535136
0.433335
0.554978
0.572065
0.531458
0.383691
0.509513
0.515393
0.539298
0.568299
0.435492
0.47762
0.455319
0.587367
0.652924
0.439279
0.552028
0.454439
0.526838
0.476137
0.499175
0.466417
0.510527
0.442172
0.496008
0.43322
0.404497
0.474972
0.504991
0.508485
0.517946
0.516763
0.560975
0.520601
0.47117
0.564561
0.444148
0.42248
0.438885
0.479597
0.556924
0.498695
0.527609
0.521335
0.566008
0.506164
0.597204
0.467031
0.526141
0.572042
0.486445
0.579983
0.490127
0.466848
0.468357
0.435226
0.55229
0.443944
0.5184
0.540841
0.506359
0.557522
0.520511
0.450679
0.478709
0.498486
0.538155
0.482874
0.463657
0.447791
0.399018
0.426028
0.525681
0.499862
0.492758
0.531023
0.566728
0.507085
0.413028
0.463073
0.490093
0.543512
0.506466
0.554418
0.602265
0.499974
0.46127
0.618417
0.491354
0.4125
0.483979
0.48138
0.489475
0.506562
0.55823
0.581287
0.52631
0.577004
0.485694
0.588959
0.499802
0.498215
0.433804
0.482436
0.471136
0.532804
0.508837
0.537411
0.454364
0.585422
0.489489
0.488733
0.547431
0.513074
0.54844
0.43568
0.401402
0.513737
0.414087
0.475285
0.548396
0.512211
0.504345
0.42487
0.436765
0.588288
0.462967
0.553438
0.587635
0.575229
0.56174
0.540817
0.550742
0.583507
0.514365
0.48378
0.501842
0.451103
0.393655
0.3333
0.578789
0.567046
0.364478
0.219193
0.17961
0.227029
0.304208
0.39432
0.507058
0.552619
0.449776
0.338922
0.314597
0.355736
0.397811
0.411543
0.405855
0.438774
0.481191
0.466627
0.467743
0.532611
0.516259
0.415331
0.37648
0.38821
0.448727
0.602154
0.639604
0.616992
0.567895
0.484135
0.579257
0.492555
0.51532
0.636013
0.545828
0.568942
0.489909
0.497404
0.486647
0.566023
0.507552
0.577266
0.522896
0.556219
0.588933
0.544969
0.567788
0.525042
0.535837
0.497346
0.488776
0.326244
0.2261
0.197029
0.25935
0.377494
0.469822
0.523305
0.491762
0.503685
0.624041
0.605018
0.381371
0.235109
0.33466
0.496011
0.621317
0.60884
0.495406
0.480307
0.620504
0.56877
0.376735
0.444126
0.512328
0.474258
0.496099
0.577911
0.637697
0.577386
0.408755
0.428079
0.467281
0.544435
0.547203
0.518045
0.465511
0.444108
0.471697
0.448494
0.542285
0.554898
0.538171
0.541597
0.674158
0.592723
0.538913
0.514156
0.490307
0.461911
0.598937
0.505606
0.550124
0.420646
0.216288
0.139998
0.156782
0.217364
0.277982
0.336834
0.388441
0.44468
0.491341
0.50334
0.54971
0.585969
0.515021
0.416818
0.347692
0.338829
0.466068
0.601434
0.607779
0.637387
0.6342
0.624503
0.469689
0.313767
0.255921
0.291768
0.360955
0.391534
0.407166
0.462986
0.476883
0.474782
0.497255
0.501452
0.501834
0.528714
0.520082
0.416368
0.413621
0.56736
0.586392
0.546249
0.56227
0.463526
0.48327
0.462142
0.39465
0.380325
0.414277
0.453726
0.526491
0.53553
0.537993
0.492863
0.484501
0.48448
0.487036
0.491131
0.540184
0.571802
0.577895
0.537583
0.555291
0.475427
0.435472
0.483844
0.390766
0.377746
0.464992
0.515822
0.496582
0.500553
0.412598
0.51717
0.454102
0.534491
0.538017
0.567518
0.551903
0.527307
0.53764
0.547602
0.491286
0.475039
0.473666
0.455977
0.465899
0.505681
0.524813
0.497718
0.527453
0.484441
0.512795
0.565227
0.440883
0.487918
0.603441
0.408912
0.460221
0.422436
0.569905
0.512912
0.548324
0.562596
0.533757
0.482732
0.513935
0.508123
0.493658
0.478973
0.528454
0.510369
0.491797
0.449723
0.542472
0.537908
0.41618
0.427522
0.472004
0.527416
0.509415
0.465276
0.468356
0.562769
0.509663
0.404582
0.424323
0.49552
0.452467
0.481485
0.523169
0.497319
0.524215
0.55699
0.465127
0.426043
0.638683
0.477302
0.422174
0.493949
0.537798
0.473933
0.557168
0.471802
0.42396
0.495596
0.558783
0.49087
0.439677
0.517791
0.487927
0.518406
0.400133
0.577811
0.493196
0.467041
0.540856
0.518007
0.510593
0.503924
0.481867
0.538177
0.548129
0.494334
0.509335
0.560884
0.449523
0.45366
0.41317
0.426024
0.473738
0.562578
0.512179
0.517945
0.472987
0.517744
0.51668
0.523908
0.449524
0.465786
0.497066
0.493923
0.494911
0.408323
0.409005
0.536063
0.517351
0.50078
0.465188
0.437523
0.471667
0.409674
0.447928
0.536758
0.482587
0.503843
0.483391
0.492881
0.549406
0.478083
0.504373
0.565978
0.422179
0.47979
0.537862
0.459079
0.429078
0.474591
0.465867
0.484885
0.561625
0.536175
0.545562
0.522265
0.511543
0.510356
0.483156
0.467107
0.416023
0.421779
0.493309
0.498374
0.49738
0.508315
0.496216
0.505081
0.540035
0.4982
0.529248
0.544091
0.613511
0.434301
0.400468
0.459692
0.565472
0.418046
0.521868
0.577226
0.544434
0.497031
0.466504
0.482573
0.459892
0.453188
0.541444
0.491492
0.51962
0.537151
0.581171
0.438443
0.567985
0.56396
0.516444
0.505559
0.459151
0.519278
0.469959
0.543015
0.484814
0.497496
0.468125
0.496701
0.518029
0.537067
0.492103
0.448157
0.521407
0.493185
0.496336
0.488969
0.503306
0.576184
0.433464
0.507682
0.499558
0.486726
0.518722
0.495597
0.527504
0.542595
0.50963
0.562359
0.620729
0.505582
0.52417
0.517199
0.580986
0.519098
0.407216
0.329109
0.31498
0.349013
0.364216
0.470311
0.491599
0.294413
0.1817
0.190128
0.277267
0.368956
0.44445
0.509575
0.536836
0.469117
0.364045
0.340045
0.402294
0.477791
0.512944
0.510597
0.527267
0.564431
0.557955
0.53641
0.556134
0.561511
0.515926
0.482491
0.532071
0.599767
0.672296
0.668109
0.625994
0.558108
0.506568
0.470293
0.540297
0.488656
0.51438
0.511671
0.514202
0.414769
0.400438
0.542734
0.557701
0.523799
0.510109
0.577072
0.553354
0.583778
0.596017
0.509518
0.50171
0.59678
0.47789
0.428969
0.292461
0.162596
0.161946
0.263702
0.390392
0.4673
0.49689
0.517908
0.514952
0.572755
0.583728
0.447871
0.313231
0.37481
0.5475
0.631248
0.609101
0.524261
0.469805
0.590313
0.61179
0.436493
0.348952
0.461606
0.504726
0.473607
0.544356
0.600195
0.593714
0.492779
0.407453
0.446667
0.517
0.522387
0.49211
0.445433
0.401272
0.419126
0.48827
0.557946
0.606652
0.614469
0.601343
0.660881
0.618376
0.559254
0.541486
0.632233
0.517795
0.448644
0.490908
0.504716
0.315766
0.157431
0.123556
0.19465
0.307359
0.413062
0.496247
0.554939
0.576604
0.578749
0.573838
0.570035
0.573657
0.536427
0.461307
0.415817
0.436798
0.535102
0.645947
0.651141
0.625696
0.627872
0.61762
0.491096
0.261441
0.201703
0.280093
0.394484
0.442646
0.447897
0.487119
0.528131
0.521178
0.524262
0.531539
0.514853
0.522105
0.542136
0.514117
0.495474
0.555812
0.580804
0.519333
0.510209
0.503485
0.472276
0.44967
0.439069
0.444495
0.476132
0.503481
0.551973
0.57992
0.576324
0.526209
0.508591
0.542388
0.560412
0.552415
0.551895
0.555223
0.559485
0.54137
0.531873
0.513688
0.431731
0.432262
0.452647
0.437259
0.506876
0.575156
0.56921
0.580606
0.554713
0.569054
0.534697
0.565837
0.546124
0.506771
0.559064
0.531383
0.45953
0.599933
0.453554
0.503134
0.586395
0.4906
0.52464
0.557292
0.5218
0.464572
0.542431
0.49973
0.461514
0.525881
0.553212
0.447397
0.59098
0.509852
0.576009
0.475042
0.592021
0.609323
0.480782
0.577562
0.452791
0.585774
0.512392
0.459369
0.552171
0.461136
0.410504
0.470901
0.520738
0.452956
0.399644
0.47667
0.406209
0.448068
0.52431
0.459657
0.506579
0.491879
0.533951
0.562383
0.553389
0.518946
0.499708
0.492391
0.403939
0.490191
0.513689
0.47841
0.481376
0.471053
0.564094
0.524215
0.495429
0.532793
0.534637
0.517302
0.493189
0.495956
0.495217
0.511196
0.404837
0.528568
0.557571
0.552263
0.480795
0.409925
0.493894
0.546273
0.540225
0.509661
0.48473
0.476808
0.416758
0.443156
0.401698
0.522815
0.527881
0.512262
0.455799
0.553583
0.542094
0.458884
0.547752
0.559732
0.601032
0.513394
0.590319
0.475724
0.490044
0.588371
0.5537
0.497861
0.494985
0.465551
0.418198
0.48874
0.464708
0.451347
0.451586
0.53905
0.483832
0.524582
0.465443
0.455163
0.527679
0.557462
0.472914
0.524491
0.578178
0.518901
0.585583
0.605427
0.540231
0.518587
0.510257
0.536632
0.544917
0.477551
0.527601
0.498853
0.456988
0.487236
0.491821
0.542553
0.507641
0.460005
0.514126
0.506022
0.526618
0.569029
0.506307
0.523879
0.512555
0.487253
0.49072
0.509482
0.549523
0.549271
0.52168
0.533116
0.547047
0.542275
0.561606
0.527101
0.514353
0.557255
0.536852
0.458207
0.4427
0.499939
0.508392
0.524619
0.507504
0.494079
0.530189
0.532039
0.472946
0.400565
0.483848
0.495152
0.456473
0.505795
0.512573
0.50711
0.519341
0.542643
0.491266
0.533928
0.518685
0.428746
0.428388
0.549219
0.498542
0.506601
0.530885
0.53712
0.571515
0.499213
0.498972
0.500848
0.509681
0.511407
0.516748
0.532815
0.486432
0.439124
0.455147
0.464411
0.489686
0.541159
0.612853
0.53874
0.468608
0.475003
0.540502
0.533921
0.556614
0.597661
0.57423
0.524009
0.546178
0.529234
0.520859
0.468075
0.362449
0.198622
0.170375
0.254696
0.381785
0.444056
0.456734
0.385605
0.315137
0.320634
0.372749
0.431117
0.481155
0.519471
0.532873
0.504913
0.459668
0.44543
0.476593
0.528129
0.55482
0.547507
0.552628
0.585998
0.594789
0.573209
0.570808
0.580849
0.561322
0.535722
0.5576
0.617354
0.648519
0.622001
0.576587
0.530322
0.503207
0.491735
0.530669
0.541391
0.485284
0.513513
0.556563
0.51378
0.472881
0.56528
0.565674
0.51489
0.560631
0.594675
0.579009
0.513948
0.481532
0.518831
0.508623
0.559669
0.50648
0.470501
0.282334
0.141077
0.126655
0.24633
0.401222
0.502732
0.523714
0.523746
0.541325
0.558425
0.575371
0.545999
0.467968
0.451923
0.544459
0.613658
0.604599
0.558062
0.517722
0.540716
0.576789
0.527481
0.452638
0.480233
0.545272
0.516869
0.478263
0.503351
0.525978
0.536941
0.481311
0.419916
0.457082
0.481296
0.463349
0.43597
0.441618
0.487106
0.563823
0.596373
0.58951
0.590489
0.582874
0.579222
0.573977
0.601396
0.642737
0.635233
0.497679
0.320013
0.310131
0.415751
0.27069
0.168137
0.162792
0.251097
0.373494
0.484443
0.551314
0.571329
0.565223
0.559271
0.571243
0.576992
0.559586
0.536922
0.517989
0.4991
0.506756
0.5645
0.627504
0.61594
0.566936
0.568902
0.575449
0.480804
0.307002
0.243573
0.318472
0.432938
0.509555
0.530244
0.537059
0.556216
0.558197
0.529337
0.530137
0.553769
0.56561
0.577461
0.571561
0.537525
0.52403
0.533789
0.523769
0.522485
0.517928
0.481406
0.464933
0.474446
0.470967
0.471096
0.518539
0.584674
0.58861
0.554173
0.508433
0.479109
0.520782
0.564236
0.550699
0.518349
0.532965
0.588982
0.592476
0.544281
0.489309
0.466319
0.457648
0.52721
0.552649
0.525315
0.554848
0.564686
0.522075
0.482931
0.482063
0.490313
0.498664
0.52043
0.53366
0.573986
0.586749
0.527877
0.565059
0.547924
0.510942
0.484709
0.527185
0.568721
0.509263
0.49384
0.484641
0.515409
0.564494
0.482381
0.479186
0.511712
0.481657
0.511844
0.583421
0.501607
0.507259
0.547748
0.438961
0.447446
0.436498
0.426771
0.420001
0.427414
0.467578
0.42326
0.472876
0.440562
0.522199
0.51083
0.502686
0.528097
0.414302
0.47135
0.441597
0.460004
0.483654
0.475869
0.542066
0.413369
0.543484
0.488831
0.41174
0.550682
0.523457
0.472074
0.527988
0.630389
0.562802
0.531861
0.488389
0.464632
0.448255
0.475682
0.458756
0.594322
0.517692
0.417868
0.413936
0.467934
0.48946
0.483512
0.457083
0.495911
0.491093
0.527192
0.503859
0.530733
0.432921
0.4631
0.586119
0.478061
0.499689
0.533605
0.546165
0.506147
0.518321
0.462339
0.49708
0.435709
0.510244
0.537358
0.518228
0.496766
0.499715
0.513559
0.476484
0.463554
0.581859
0.569533
0.535252
0.470004
0.416967
0.452441
0.541598
0.468344
0.508488
0.602182
0.450526
0.471862
0.502188
0.526
0.438589
0.431496
0.441512
0.42602
0.501636
0.42644
0.53478
0.470093
0.502527
0.514443
0.546286
0.466604
0.555982
0.557664
0.509366
0.432966
0.504921
0.48874
0.461484
0.486756
0.452396
0.437991
0.471857
0.500514
0.493587
0.484847
0.535563
0.473311
0.501129
0.542086
0.528088
0.491922
0.486273
0.453372
0.456515
0.520126
0.529993
0.532779
0.497885
0.578319
0.501042
0.471842
0.467255
0.518084
0.541654
0.515137
0.528174
0.483452
0.50806
0.498465
0.488288
0.541452
0.50172
0.50691
0.52943
0.52114
0.474916
0.57668
0.532101
0.478873
0.47762
0.452448
0.493563
0.533171
0.562103
0.469847
0.522445
0.51924
0.552719
0.552382
0.521679
0.519282
0.45882
0.466417
0.537242
0.503666
0.491893
0.479652
0.470503
0.485284
0.542159
0.527866
0.491555
0.447518
0.410869
0.392468
0.442231
0.522714
0.513512
0.473182
0.497277
0.497728
0.497807
0.552602
0.569844
0.528112
0.520598
0.605616
0.612116
0.53358
0.513091
0.502766
0.482499
0.323857
0.165847
0.136767
0.234813
0.377939
0.455595
0.451117
0.422768
0.413111
0.43945
0.467334
0.47969
0.487015
0.505343
0.535137
0.552094
0.530895
0.496033
0.485751
0.506196
0.534171
0.541131
0.543078
0.570565
0.58873
0.560482
0.529539
0.532458
0.545914
0.560748
0.57734
0.597336
0.603562
0.574101
0.533776
0.510846
0.495462
0.497585
0.518883
0.552619
0.567019
0.565045
0.574323
0.556686
0.545117
0.606278
0.620523
0.58652
0.570917
0.555476
0.533788
0.56296
0.573552
0.572775
0.590844
0.547052
0.525499
0.477488
0.299748
0.157625
0.131795
0.236333
0.394378
0.519806
0.559249
0.546066
0.551179
0.563227
0.554917
0.53116
0.490732
0.464733
0.505531
0.571656
0.592379
0.563858
0.520621
0.50858
0.538905
0.578208
0.546152
0.480096
0.461029
0.434285
0.400685
0.446546
0.555877
0.61408
0.57152
0.471365
0.42187
0.443729
0.46564
0.480955
0.508289
0.541167
0.561542
0.555878
0.563596
0.590338
0.598651
0.565066
0.539876
0.592915
0.644533
0.624792
0.499234
0.305023
0.203494
0.241704
0.314576
0.319927
0.322166
0.363465
0.444283
0.528544
0.567285
0.553984
0.532496
0.525733
0.528323
0.539117
0.541702
0.533249
0.534861
0.536947
0.526689
0.53272
0.562182
0.578026
0.585581
0.589624
0.557048
0.477722
0.380456
0.352695
0.416681
0.493793
0.55114
0.572308
0.573003
0.559781
0.545382
0.543022
0.544264
0.540936
0.537172
0.511266
0.482172
0.472612
0.459987
0.448276
0.478031
0.5217
0.538889
0.538158
0.515884
0.478201
0.457308
0.493828
0.548569
0.580157
0.594458
0.589656
0.579456
0.572134
0.548401
0.545795
0.540428
0.539576
0.536976
0.526339
0.500954
0.505958
0.515182
0.515572
0.531925
0.505959
0.544093
0.57038
0.547783
0.550329
0.527072
0.503976
0.528058
0.521964
0.525949
0.52934
0.521603
0.566931
0.617167
0.569617
0.511093
0.506265
0.607687
0.48972
0.444402
0.494279
0.551693
0.541537
0.495592
0.558603
0.492325
0.525409
0.570821
0.593939
0.523383
0.544513
0.556869
0.5672
0.533807
0.500412
0.479213
0.465184
0.450714
0.427321
0.490635
0.504126
0.509604
0.557239
0.475031
0.492622
0.554305
0.540702
0.644559
0.445716
0.396197
0.522989
0.569404
0.457254
0.463098
0.423984
0.403097
0.513267
0.535582
0.579505
0.530838
0.52589
0.590391
0.477806
0.433134
0.503525
0.469452
0.482882
0.555559
0.504225
0.447419
0.48913
0.575267
0.528801
0.490464
0.424613
0.458196
0.514022
0.448146
0.51186
0.543939
0.534132
0.490628
0.524443
0.463198
0.397472
0.487554
0.480867
0.48002
0.503975
0.53974
0.501013
0.481288
0.541216
0.492209
0.4888
0.549487
0.520212
0.521765
0.513726
0.55775
0.54459
0.466373
0.48247
0.470085
0.517263
0.487801
0.53973
0.544738
0.472496
0.489826
0.452998
0.44033
0.508034
0.492632
0.495561
0.413664
0.542791
0.527123
0.498037
0.512096
0.485017
0.45191
0.499811
0.503072
0.504165
0.499824
0.517088
0.535742
0.50725
0.50642
0.532739
0.486375
0.488616
0.524473
0.544396
0.469412
0.440398
0.480869
0.561422
0.460808
0.463154
0.440127
0.450222
0.504857
0.500954
0.497091
0.52427
0.522209
0.458144
0.418129
0.447049
0.559437
0.547337
0.445341
0.483911
0.522672
0.491094
0.514595
0.510431
0.507918
0.449339
0.478188
0.544925
0.54893
0.526233
0.507941
0.535878
0.481839
0.474454
0.485955
0.525763
0.509256
0.541709
0.528852
0.468265
0.464572
0.470705
0.494181
0.459983
0.516995
0.503503
0.482377
0.533054
0.550586
0.506747
0.518804
0.534099
0.521245
0.49268
0.465125
0.469847
0.46297
0.474457
0.548162
0.577379
0.513008
0.466914
0.454723
0.458387
0.512188
0.566591
0.533446
0.441926
0.432563
0.467841
0.468018
0.523066
0.518567
0.518332
0.544362
0.505559
0.508066
0.524623
0.529812
0.536486
0.534042
0.509842
0.502211
0.544463
0.580224
0.59099
0.457991
0.262375
0.136167
0.126645
0.240342
0.390231
0.4927
0.516269
0.497184
0.490999
0.517977
0.544508
0.537233
0.504358
0.479062
0.485007
0.509909
0.522863
0.511043
0.491193
0.487154
0.508153
0.536911
0.546419
0.539424
0.523517
0.491208
0.467658
0.479095
0.515119
0.553077
0.566779
0.557825
0.544931
0.523201
0.506411
0.513933
0.528636
0.533721
0.547756
0.571944
0.574357
0.562371
0.546387
0.553559
0.544531
0.551203
0.598158
0.587032
0.529779
0.522107
0.553261
0.583852
0.59247
0.529112
0.464919
0.460165
0.473207
0.447172
0.286423
0.176869
0.169637
0.268791
0.408273
0.529238
0.588441
0.590095
0.575465
0.566947
0.554608
0.531454
0.507177
0.492139
0.49777
0.530704
0.569876
0.588667
0.579859
0.552825
0.540359
0.561977
0.553999
0.450447
0.352539
0.363227
0.419774
0.480713
0.55954
0.595834
0.550569
0.469747
0.400488
0.404665
0.459996
0.510264
0.550312
0.569156
0.564019
0.564761
0.580706
0.580774
0.539843
0.511367
0.535
0.588097
0.621317
0.616636
0.53612
0.343424
0.194501
0.193007
0.307768
0.396747
0.433456
0.457619
0.48808
0.513907
0.521159
0.512705
0.505324
0.509838
0.530293
0.560549
0.578774
0.564224
0.532531
0.50273
0.468484
0.441151
0.450043
0.485773
0.510709
0.511417
0.492411
0.450554
0.394158
0.375351
0.41784
0.471724
0.528788
0.571514
0.574942
0.552142
0.518685
0.501885
0.519078
0.551471
0.553106
0.520884
0.502097
0.515314
0.520561
0.495121
0.485992
0.519163
0.542465
0.516777
0.47976
0.464834
0.486162
0.540871
0.577254
0.583484
0.580935
0.590755
0.576261
0.536495
0.519748
0.522997
0.543522
0.551107
0.535475
0.5187
0.525558
0.524782
0.52402
0.527731
0.521108
0.512777
0.498616
0.484283
0.483088
0.512314
0.509558
0.530417
0.540247
0.528469
0.518054
0.546366
0.6176
0.619971
0.531717
0.550997
0.543975
0.503309
0.489773
0.506259
0.47406
0.474638
0.564773
0.570153
0.521748
0.452596
0.482807
0.526348
0.506915
0.516653
0.488014
0.565049
0.617283
0.526819
0.524944
0.509475
0.654673
0.49843
0.565652
0.567004
0.436255
0.476954
0.52824
0.483137
0.564207
0.546786
0.609819
0.531058
0.468447
0.53998
0.436706
0.450099
0.440132
0.40561
0.52445
0.516629
0.491146
0.443726
0.457899
0.43825
0.508239
0.581361
0.533478
0.524614
0.606493
0.52165
0.562907
0.412539
0.504222
0.505428
0.486939
0.487359
0.453543
0.529016
0.527511
0.489717
0.446589
0.445775
0.497063
0.484334
0.535675
0.532202
0.494736
0.490234
0.506356
0.501055
0.47942
0.407379
0.456849
0.533512
0.488712
0.474396
0.522418
0.488745
0.473416
0.49909
0.532617
0.502437
0.517178
0.554353
0.476092
0.528813
0.490978
0.41177
0.453354
0.502238
0.470496
0.423311
0.471464
0.442807
0.437539
0.506009
0.502434
0.426719
0.469831
0.506723
0.53071
0.533705
0.487917
0.475137
0.508134
0.512006
0.469093
0.451401
0.465858
0.416911
0.435711
0.479723
0.538706
0.494388
0.440301
0.49971
0.531868
0.507835
0.581542
0.57537
0.511684
0.566328
0.542819
0.522383
0.468414
0.43784
0.492284
0.516568
0.550328
0.507338
0.459078
0.452436
0.501451
0.550991
0.55393
0.501505
0.516062
0.550841
0.554654
0.552571
0.465094
0.455969
0.487857
0.433441
0.487588
0.443621
0.448636
0.484607
0.474584
0.486192
0.498678
0.503127
0.485808
0.457358
0.504885
0.551999
0.535168
0.462547
0.502778
0.501079
0.510556
0.501819
0.512428
0.52256
0.485911
0.459792
0.50718
0.531112
0.488828
0.47013
0.486681
0.540184
0.535598
0.52717
0.485216
0.507713
0.493738
0.526786
0.547111
0.510161
0.497511
0.453041
0.432232
0.44013
0.49318
0.49213
0.494308
0.505741
0.505545
0.525729
0.560971
0.551059
0.556223
0.572222
0.511144
0.470958
0.490927
0.535718
0.511123
0.516214
0.511897
0.468512
0.488573
0.551007
0.564749
0.543693
0.418577
0.198715
0.107456
0.121205
0.243775
0.399123
0.501757
0.524818
0.509186
0.499489
0.507882
0.528963
0.54223
0.527143
0.492863
0.467919
0.466917
0.482401
0.498583
0.501735
0.498459
0.51027
0.533861
0.542375
0.527262
0.51032
0.501875
0.491553
0.488479
0.505138
0.528552
0.539987
0.537355
0.525988
0.516617
0.526175
0.55957
0.592401
0.597315
0.575649
0.561855
0.563641
0.567511
0.556884
0.540442
0.526967
0.553429
0.613528
0.608021
0.533903
0.496891
0.529965
0.567305
0.571262
0.531556
0.461761
0.445488
0.471853
0.43882
0.299882
0.222135
0.244371
0.333883
0.425956
0.496828
0.548567
0.579845
0.583866
0.564802
0.53694
0.516784
0.511078
0.518177
0.529224
0.545321
0.569415
0.571926
0.536881
0.496876
0.490997
0.515304
0.513932
0.43269
0.332667
0.327572
0.420574
0.513212
0.559339
0.570662
0.550821
0.499138
0.433744
0.406076
0.453374
0.520047
0.552633
0.544703
0.518342
0.502814
0.507834
0.515386
0.518594
0.532627
0.551335
0.553076
0.542735
0.544636
0.532733
0.409723
0.236627
0.204087
0.316313
0.435569
0.492915
0.509842
0.528023
0.54886
0.549675
0.52725
0.503964
0.505085
0.525764
0.547502
0.563591
0.560656
0.525711
0.478016
0.442439
0.421393
0.423408
0.464361
0.527614
0.570669
0.565967
0.5267
0.481882
0.467624
0.492748
0.527836
0.556754
0.573629
0.563014
0.531365
0.516685
0.52632
0.531073
0.53921
0.565037
0.574904
0.546768
0.518558
0.513121
0.510322
0.50571
0.520349
0.547058
0.539335
0.513055
0.516044
0.52629
0.511636
0.504564
0.529007
0.555426
0.550721
0.519754
0.505367
0.510588
0.491064
0.480522
0.503611
0.526032
0.532247
0.522281
0.519628
0.533051
0.550968
0.527943
0.509994
0.505263
0.487062
0.495362
0.52989
0.577779
0.568342
0.509686
0.466484
0.507381
0.515916
0.508226
0.518305
0.528082
0.482984
0.528038
0.555941
0.533347
0.513042
0.518521
0.606979
0.57726
0.57649
0.643837
0.581356
0.516412
0.531415
0.500291
0.481244
0.544154
0.507788
0.577059
0.552982
0.42889
0.428991
0.495034
0.556829
0.534181
0.528183
0.52751
0.501472
0.469741
0.45525
0.373052
0.452703
0.473798
0.519339
0.500941
0.539892
0.468664
0.440522
0.464816
0.510796
0.499817
0.546803
0.499891
0.531612
0.427121
0.375849
0.492672
0.534335
0.527381
0.45331
0.440454
0.528651
0.464458
0.519794
0.444568
0.472839
0.466519
0.557066
0.502322
0.528503
0.435458
0.443278
0.438927
0.516127
0.499565
0.441902
0.445456
0.519829
0.526108
0.483218
0.525958
0.554364
0.508443
0.521439
0.466126
0.433228
0.518607
0.484339
0.452512
0.502982
0.512984
0.47262
0.517073
0.524893
0.537857
0.559839
0.521019
0.45549
0.443969
0.549024
0.532539
0.452037
0.468861
0.507295
0.547886
0.50489
0.441086
0.436209
0.472083
0.452783
0.48417
0.500096
0.472872
0.506643
0.522821
0.512226
0.537678
0.568419
0.45454
0.471242
0.488216
0.493928
0.499797
0.499889
0.474637
0.53167
0.491524
0.452014
0.481345
0.531253
0.584915
0.49061
0.423958
0.508797
0.554487
0.478371
0.461258
0.428131
0.452034
0.482604
0.465305
0.505513
0.5509
0.466896
0.478612
0.562817
0.554577
0.494586
0.466796
0.482953
0.548144
0.551145
0.45422
0.436508
0.425436
0.455426
0.484516
0.526999
0.485008
0.449978
0.498755
0.487503
0.464437
0.490574
0.517615
0.541693
0.547116
0.533178
0.537615
0.465588
0.456355
0.442352
0.465865
0.522901
0.530141
0.54873
0.517974
0.494386
0.476016
0.471744
0.463865
0.490218
0.535784
0.553239
0.538717
0.450351
0.489844
0.511443
0.490815
0.51565
0.55657
0.573789
0.516884
0.479443
0.440875
0.400748
0.438835
0.53521
0.535851
0.507602
0.495761
0.507672
0.503691
0.51788
0.51801
0.481747
0.510662
0.535045
0.486523
0.475593
0.497676
0.502275
0.496323
0.504777
0.503555
0.546194
0.567063
0.555984
0.416731
0.178417
0.0983808
0.137661
0.268956
0.414239
0.511097
0.546581
0.542167
0.526534
0.505377
0.481212
0.473033
0.483222
0.489106
0.479334
0.46858
0.477198
0.505426
0.53163
0.534121
0.521305
0.509719
0.499927
0.500076
0.516621
0.52178
0.498185
0.480544
0.499025
0.522837
0.524898
0.526628
0.541376
0.544023
0.528928
0.531129
0.547964
0.549683
0.54338
0.552677
0.561375
0.539899
0.519859
0.53355
0.564584
0.579566
0.588977
0.587266
0.554674
0.506485
0.481522
0.49311
0.505916
0.480741
0.398662
0.333249
0.348134
0.372583
0.331542
0.296855
0.323587
0.379794
0.440601
0.499772
0.555286
0.598623
0.61364
0.598147
0.570845
0.552418
0.54648
0.539411
0.521179
0.503525
0.502143
0.508297
0.502488
0.492246
0.50079
0.515342
0.499726
0.441755
0.385652
0.391358
0.463127
0.538724
0.57531
0.573133
0.558409
0.541004
0.504389
0.456228
0.44427
0.479409
0.511086
0.515108
0.515098
0.527055
0.541398
0.54461
0.541913
0.54701
0.556173
0.559128
0.547962
0.537036
0.541104
0.488907
0.326166
0.234903
0.301359
0.425166
0.508008
0.528864
0.522992
0.523409
0.522767
0.513195
0.509697
0.518496
0.529229
0.533975
0.538484
0.544725
0.532629
0.495317
0.466534
0.473888
0.5028
0.529815
0.554719
0.563088
0.540025
0.51125
0.497488
0.495268
0.50021
0.501649
0.500862
0.507144
0.519273
0.524615
0.518462
0.501849
0.483694
0.472224
0.477453
0.50148
0.521936
0.525869
0.527531
0.528036
0.510895
0.49475
0.517596
0.548969
0.538124
0.513357
0.517615
0.538355
0.548437
0.549393
0.557003
0.573572
0.575479
0.540804
0.496988
0.499687
0.529593
0.544061
0.551643
0.5437
0.523918
0.523996
0.539368
0.528732
0.516616
0.50563
0.512005
0.515331
0.492385
0.476084
0.498909
0.512381
0.516003
0.542161
0.554849
0.541122
0.53486
0.526048
0.536389
0.586379
0.593331
0.538628
0.497883
0.494268
0.542933
0.574933
0.569629
0.498614
0.545119
0.573193
0.509161
0.445236
0.467358
0.496792
0.543414
0.501291
0.556777
0.559779
0.605046
0.5123
0.527958
0.481549
0.576235
0.458488
0.55051
0.493916
0.576402
0.467748
0.469029
0.508294
0.489373
0.447663
0.461592
0.528056
0.534584
0.621803
0.477159
0.52137
0.495013
0.565312
0.44914
0.456962
0.518945
0.581345
0.49271
0.522329
0.484561
0.507457
0.49581
0.478642
0.373432
0.486349
0.488403
0.459053
0.493513
0.529616
0.509167
0.460849
0.485518
0.508998
0.52202
0.557135
0.504614
0.52066
0.502156
0.458068
0.456038
0.478794
0.422119
0.465129
0.451913
0.456492
0.429761
0.47828
0.488074
0.472039
0.48604
0.536647
0.497868
0.539819
0.494398
0.502517
0.500703
0.454207
0.48272
0.486262
0.454545
0.477207
0.508532
0.490449
0.446834
0.436207
0.480307
0.500674
0.46905
0.427159
0.493444
0.546922
0.549995
0.514254
0.479704
0.531826
0.52149
0.500187
0.497187
0.50253
0.456605
0.50129
0.492608
0.523949
0.506251
0.455599
0.494375
0.555432
0.548535
0.516487
0.488495
0.489924
0.479433
0.468761
0.501229
0.490251
0.454687
0.450601
0.495814
0.529624
0.501984
0.531412
0.553948
0.509821
0.515922
0.491322
0.444071
0.488748
0.510432
0.555457
0.584675
0.571384
0.544262
0.517394
0.476124
0.440922
0.496475
0.514782
0.493152
0.520555
0.519719
0.439791
0.451647
0.550615
0.578768
0.515357
0.439937
0.460278
0.552985
0.58367
0.513723
0.438159
0.431425
0.485394
0.471448
0.496528
0.549833
0.546446
0.49053
0.487257
0.513978
0.481545
0.46202
0.51304
0.582552
0.540728
0.502286
0.510585
0.516915
0.541157
0.496396
0.459325
0.521906
0.565814
0.55491
0.524122
0.509581
0.466508
0.449519
0.505135
0.559135
0.502102
0.465194
0.490514
0.527951
0.490798
0.443202
0.477654
0.55838
0.528235
0.465723
0.470864
0.550281
0.576627
0.546978
0.512068
0.545735
0.582401
0.57332
0.513081
0.384948
0.168267
0.0976403
0.144928
0.275901
0.426703
0.525294
0.552773
0.541354
0.537913
0.554407
0.556411
0.523151
0.483008
0.469341
0.480193
0.489677
0.488445
0.491108
0.505567
0.520285
0.519885
0.506628
0.491005
0.476967
0.469705
0.479172
0.499853
0.523107
0.547512
0.563133
0.55741
0.536415
0.518298
0.505741
0.49514
0.494961
0.505797
0.517511
0.528964
0.537178
0.520006
0.482622
0.484244
0.531129
0.557408
0.546412
0.529302
0.535215
0.547568
0.510427
0.442378
0.431651
0.479234
0.502602
0.449822
0.379352
0.373587
0.414409
0.428667
0.416434
0.422594
0.452009
0.492057
0.530501
0.565802
0.592949
0.600876
0.59507
0.591544
0.589717
0.578997
0.551405
0.512733
0.488493
0.490702
0.502088
0.506641
0.505859
0.509471
0.520518
0.521068
0.483828
0.426059
0.415027
0.478038
0.555327
0.58307
0.561492
0.54197
0.555549
0.575386
0.559919
0.523909
0.507638
0.519087
0.538561
0.547477
0.543337
0.536256
0.531667
0.529071
0.536148
0.542738
0.523233
0.482681
0.460697
0.483052
0.501758
0.419364
0.298048
0.291174
0.374427
0.471932
0.556137
0.601702
0.597088
0.55721
0.511216
0.490164
0.509578
0.551861
0.578991
0.56749
0.532738
0.506754
0.50122
0.505826
0.515461
0.533219
0.551918
0.554616
0.539249
0.527777
0.539131
0.560208
0.558746
0.527099
0.493592
0.479911
0.482384
0.497591
0.513504
0.513341
0.499916
0.486704
0.488579
0.521037
0.560657
0.559566
0.528781
0.50953
0.508474
0.506844
0.487956
0.472608
0.481975
0.50015
0.509315
0.517876
0.546675
0.573928
0.581246
0.584964
0.599404
0.598973
0.566118
0.543706
0.555199
0.56209
0.555787
0.547865
0.522827
0.488023
0.477194
0.500108
0.52702
0.55312
0.561569
0.548186
0.537324
0.539344
0.552566
0.570302
0.58532
0.558627
0.523698
0.528491
0.549181
0.547132
0.514862
0.497631
0.516505
0.558769
0.587977
0.560555
0.52745
0.561421
0.590749
0.54477
0.466179
0.508315
0.504397
0.456928
0.480339
0.46244
0.541292
0.515133
0.498935
0.503585
0.528311
0.554011
0.448572
0.474368
0.545337
0.592424
0.503271
0.425812
0.488239
0.492732
0.437203
0.422304
0.486127
0.356811
0.472912
0.446353
0.486529
0.468606
0.425171
0.465652
0.451955
0.477098
0.568288
0.521461
0.443762
0.540464
0.524214
0.516805
0.493639
0.533728
0.483751
0.468737
0.531611
0.471351
0.45857
0.527588
0.506592
0.486321
0.508777
0.521468
0.504648
0.43884
0.486979
0.539449
0.516686
0.537091
0.4099
0.426176
0.467346
0.536678
0.525243
0.501126
0.492344
0.511574
0.498745
0.544157
0.490219
0.471176
0.521539
0.532426
0.454034
0.47155
0.524866
0.494723
0.479175
0.487606
0.460051
0.434922
0.47291
0.486963
0.467058
0.46508
0.456983
0.463174
0.475066
0.433353
0.45034
0.490716
0.485467
0.476252
0.509263
0.534789
0.487619
0.490692
0.538733
0.565834
0.547673
0.465751
0.44644
0.484322
0.511201
0.516328
0.504992
0.523456
0.477519
0.477578
0.479625
0.499421
0.538427
0.55725
0.513145
0.528636
0.493814
0.496672