/*--------------------------------*- C++ -*----------------------------------*\
  =========                 |
  \\      /  F ield         | OpenFOAM: The Open Source CFD Toolbox
   \\    /   O peration     | Website:  https://openfoam.org
    \\  /    A nd           | Version:  7
     \\/     M anipulation  |
\*---------------------------------------------------------------------------*/
FoamFile
{
    version     2.0;
    format      ascii;
    class       volScalarField;
    location    "3500";
    object      k1Write;
}
// * * * * * * * * * * * * * * * * * * * * * * * * * * * * * * * * * * * * * //

dimensions      [0 2 0 0 0 0 0];

internalField   nonuniform List<scalar> 
160000
(
7.80597e-19
1.10397e-18
7.49759e-19
1.11271e-18
1.4302e-18
6.90726e-19
1.57069e-18
8.45979e-19
1.00373e-18
2.00543e-18
1.4356e-18
9.29646e-19
1.74683e-18
1.69578e-18
5.81793e-19
8.84564e-19
6.59785e-19
7.19057e-19
1.58435e-18
1.47256e-18
1.22456e-18
8.93272e-19
1.11712e-18
1.67107e-18
1.48953e-18
1.76004e-18
1.80479e-18
1.13739e-18
1.62304e-18
9.1311e-19
7.7593e-19
1.24139e-18
2.71835e-18
1.5076e-18
1.26794e-18
1.45889e-18
1.6339e-18
2.64101e-18
7.59068e-19
1.24717e-18
1.25827e-18
1.24351e-18
1.47887e-18
8.13658e-19
1.52479e-18
1.67853e-18
1.52047e-18
8.30993e-19
1.56674e-18
9.22739e-19
1.22041e-18
2.6937e-18
1.74356e-18
1.27628e-18
2.7946e-18
9.37918e-19
2.59343e-18
7.66614e-19
5.95167e-19
9.06037e-19
3.96049e-18
1.14201e-18
1.09476e-18
8.60026e-19
6.0799e-19
2.31772e-18
1.57549e-18
1.96765e-18
5.14705e-19
2.36143e-19
2.20254e-18
7.12119e-19
1.90042e-18
9.75994e-19
1.68412e-18
1.34441e-18
1.86479e-18
1.2024e-18
2.37584e-18
1.39451e-18
2.60356e-18
3.46915e-18
1.72686e-18
1.25056e-18
1.16282e-18
1.0572e-18
1.07152e-18
6.82874e-19
1.04797e-18
1.7201e-18
6.69887e-19
2.25504e-18
2.85755e-18
2.47888e-18
1.65882e-18
7.4407e-19
1.37767e-18
1.03159e-18
1.1011e-18
6.97397e-19
1.28705e-18
4.9562e-19
1.88047e-18
1.06724e-18
6.29959e-19
1.50808e-18
5.81378e-19
1.45888e-18
1.91461e-18
1.97256e-18
2.74391e-18
8.50287e-19
2.52584e-18
1.20565e-18
9.25797e-19
1.31488e-18
7.82403e-19
1.12256e-18
2.42453e-18
1.85691e-18
1.52785e-18
9.88232e-19
1.72637e-18
2.09692e-18
2.4713e-18
4.02009e-18
3.07838e-18
1.08393e-18
1.3401e-18
1.4415e-18
1.0534e-18
7.13433e-19
1.3111e-18
3.34413e-18
2.14336e-18
1.66262e-18
8.96147e-19
1.30688e-18
8.19112e-19
4.80648e-19
1.38856e-18
2.11953e-18
4.19872e-19
1.57846e-18
3.56145e-18
1.79087e-18
1.84134e-18
1.70252e-18
1.43808e-18
8.51515e-19
6.37468e-19
1.12817e-18
6.62799e-19
1.72025e-18
5.98472e-19
1.50065e-18
1.52788e-18
3.02166e-18
1.87019e-18
2.07371e-18
1.04014e-18
1.30173e-18
9.63015e-19
2.21561e-18
6.31555e-19
1.71955e-18
1.73624e-18
9.3199e-19
1.32414e-18
8.78867e-19
2.96718e-18
4.21679e-18
1.38292e-18
3.73108e-18
2.03851e-18
9.41219e-19
1.36225e-18
1.47721e-18
3.25868e-18
2.98126e-18
6.40537e-19
2.35266e-18
9.51391e-19
6.65827e-19
7.72331e-19
8.9097e-19
1.10193e-18
9.97347e-19
6.7061e-19
1.32815e-18
1.76976e-18
1.28202e-18
2.02758e-18
3.59681e-18
7.84995e-18
6.57679e-19
5.24693e-19
4.02557e-18
2.06902e-17
4.60193e-17
2.97414e-17
1.21078e-17
4.76166e-18
1.48379e-18
7.99817e-19
2.25046e-18
6.8876e-18
9.21747e-18
7.47513e-18
4.89029e-18
4.02662e-18
4.26934e-18
3.08423e-18
2.0045e-18
2.29136e-18
2.27044e-18
1.18869e-18
1.34294e-18
3.67035e-18
5.42834e-18
5.08747e-18
2.8848e-18
6.03208e-19
3.98084e-19
5.53127e-19
9.39201e-19
2.33018e-18
8.39675e-19
1.95014e-18
1.55535e-18
4.33191e-19
1.16196e-18
9.40561e-19
2.11813e-18
1.96196e-18
2.08238e-18
8.3592e-19
1.52155e-18
7.45289e-19
1.31392e-18
9.88332e-19
7.13453e-19
1.23757e-18
9.92928e-19
1.59235e-18
1.42496e-18
1.97216e-18
1.35483e-18
4.65169e-18
1.47158e-17
2.16877e-17
1.37256e-17
3.85085e-18
1.35602e-18
7.95468e-19
1.47686e-18
1.54034e-18
4.37059e-19
5.07112e-19
4.91054e-18
2.4468e-17
8.20935e-18
1.67973e-18
4.54742e-19
5.60597e-19
1.93093e-18
2.45053e-18
5.6903e-19
9.77415e-19
6.74374e-18
3.61378e-18
1.62715e-18
2.15223e-18
1.76128e-18
7.63873e-19
4.07635e-19
8.65051e-19
5.29437e-18
4.59414e-18
3.05401e-18
1.16891e-18
1.07844e-18
1.41829e-18
2.35695e-18
2.89256e-18
2.18737e-18
2.75597e-18
1.07889e-18
9.4084e-19
1.24027e-18
1.25083e-18
2.95482e-19
8.97439e-19
1.66277e-18
2.13952e-18
2.61501e-18
3.34797e-18
8.03969e-19
2.06216e-18
9.54809e-19
1.42054e-18
1.26356e-17
3.99254e-17
3.57395e-17
1.42184e-17
4.81004e-18
1.8625e-18
1.09053e-18
7.68525e-19
8.4952e-19
1.14371e-18
8.87963e-19
7.4541e-19
1.65367e-18
3.99987e-18
7.51613e-18
8.24904e-18
2.29795e-18
5.49482e-19
5.15634e-19
4.2963e-19
5.14528e-19
6.56973e-19
2.9661e-18
1.36118e-17
2.61064e-17
1.62542e-17
6.54341e-18
4.47783e-18
3.83259e-18
2.19124e-18
1.88911e-18
1.9304e-18
1.55097e-18
1.48103e-18
1.47647e-18
1.15172e-18
1.45449e-18
3.75464e-18
3.3165e-18
6.98465e-19
5.53919e-19
8.41516e-19
7.29613e-19
3.64667e-18
2.95492e-18
3.64596e-18
6.48271e-18
5.95428e-18
4.06363e-18
2.71294e-18
1.29846e-18
1.29415e-18
1.47463e-18
2.34301e-18
2.55797e-18
2.37582e-18
2.28031e-18
2.19022e-18
1.34832e-18
9.72182e-19
9.39506e-19
1.53688e-18
1.30391e-18
2.93888e-18
4.36766e-18
2.70419e-18
6.77957e-18
7.73337e-18
3.12237e-18
1.59971e-18
1.93185e-18
1.84667e-18
4.42286e-18
1.56235e-18
2.92961e-18
1.32103e-18
1.3619e-18
1.03602e-18
1.29732e-18
1.6751e-18
1.51165e-18
1.39285e-18
2.47455e-18
2.90899e-18
2.94378e-18
3.23475e-18
2.88237e-18
1.9399e-18
1.61691e-18
2.11398e-18
1.49439e-18
2.2359e-18
1.36359e-18
6.75979e-19
1.72377e-18
7.02295e-19
2.09821e-19
1.51326e-18
9.12783e-19
2.53705e-18
5.7532e-19
1.22847e-18
6.81334e-19
5.75986e-19
7.78333e-19
1.35079e-18
1.05086e-18
1.11373e-18
1.29935e-18
1.52913e-18
9.4129e-19
1.10292e-18
1.29094e-18
2.09174e-18
8.26265e-19
8.58971e-19
2.67303e-18
2.38832e-18
1.53728e-18
9.3399e-19
1.0447e-18
1.78248e-18
1.75348e-18
6.75683e-19
1.00332e-18
3.21658e-18
2.72776e-18
1.33722e-18
2.05108e-18
1.53886e-18
9.05453e-19
1.16838e-18
9.25309e-19
7.18837e-19
1.79712e-18
2.64818e-18
2.75132e-19
1.49228e-18
2.57839e-18
1.30036e-18
8.68369e-19
1.51071e-18
6.2692e-19
1.55454e-18
2.8985e-18
1.42522e-18
6.59635e-19
1.30215e-18
2.29932e-18
1.01374e-18
1.33166e-18
1.06798e-18
3.73392e-18
6.24838e-19
1.37554e-18
1.85745e-18
8.43357e-19
1.03718e-18
1.1187e-18
1.21637e-18
1.52902e-18
8.68966e-19
7.66607e-19
1.32232e-18
1.13932e-18
6.42499e-19
1.97297e-18
1.89612e-18
3.05916e-18
2.69577e-18
1.68251e-18
6.41743e-19
1.05882e-18
9.9962e-19
1.6654e-18
1.11601e-18
1.12554e-18
1.0199e-18
2.14447e-18
1.82817e-18
1.33796e-18
1.36255e-18
1.35115e-18
3.2174e-18
3.20789e-18
9.04777e-19
1.05809e-18
1.25155e-18
1.78606e-18
2.47596e-18
1.78576e-18
3.30729e-18
2.26665e-18
8.98209e-19
1.55353e-18
1.30359e-18
1.60698e-18
1.46487e-18
7.70978e-19
1.58483e-18
1.3778e-18
6.91541e-19
3.00519e-18
1.7011e-18
8.98889e-19
1.98206e-18
2.67259e-18
1.75677e-18
2.02198e-18
1.67712e-18
7.53137e-19
9.7702e-19
8.89157e-19
1.14885e-18
1.29015e-18
1.26439e-18
1.63168e-18
1.89982e-18
3.45654e-18
3.2708e-18
1.61199e-18
1.48583e-18
1.50347e-18
1.31522e-18
1.47054e-18
1.34847e-18
9.04287e-19
1.38236e-18
1.07045e-18
9.21833e-19
4.32091e-19
2.71305e-18
4.23364e-18
2.35671e-18
7.72846e-19
3.45008e-18
1.23032e-18
6.45442e-19
9.04239e-19
1.50115e-18
2.07833e-18
1.79214e-18
2.25817e-18
2.41837e-18
9.74187e-19
1.61561e-18
1.25845e-18
1.05552e-18
6.19812e-19
2.63029e-18
7.3071e-19
7.49949e-19
1.24196e-18
1.42088e-18
2.34876e-18
1.29219e-18
2.11915e-18
9.54424e-19
1.67905e-18
1.48277e-18
1.99003e-18
1.54434e-18
1.25181e-18
1.01749e-18
1.60375e-18
2.58785e-18
1.21678e-18
1.53346e-18
1.48911e-18
1.67841e-18
1.5324e-18
6.8775e-19
2.90873e-18
1.4735e-18
1.65121e-18
1.88058e-18
1.35315e-18
1.71741e-18
1.2315e-18
1.03249e-18
1.48247e-18
8.67281e-19
4.64252e-19
1.63011e-18
1.40665e-18
1.51254e-18
7.18852e-19
1.05638e-18
2.8266e-18
6.29282e-18
9.71112e-18
8.19211e-18
6.93438e-18
2.00993e-18
1.12823e-18
8.42654e-18
3.46022e-17
4.85657e-17
1.62633e-17
6.1278e-18
2.77162e-18
1.32433e-18
9.3942e-19
1.85464e-18
5.30426e-18
8.74851e-18
4.65794e-18
2.20654e-18
1.40241e-18
1.43216e-18
1.21271e-18
8.46824e-19
9.4282e-19
1.24439e-18
1.00118e-18
8.83068e-19
1.34751e-18
1.9645e-18
1.20943e-18
5.96721e-19
2.59382e-19
2.73306e-19
4.88634e-19
1.03662e-18
1.80645e-18
2.72097e-18
1.3298e-18
2.23491e-18
1.76026e-18
1.80938e-18
1.62609e-18
4.38315e-18
5.14888e-18
1.20423e-18
8.92763e-19
1.26522e-18
1.4704e-18
7.60598e-19
9.71969e-19
7.19325e-19
6.69077e-19
1.89376e-18
2.10581e-18
7.87489e-19
2.31605e-18
2.06183e-18
7.93523e-18
5.38016e-17
8.60615e-17
2.20611e-17
4.64736e-18
1.51489e-18
1.21813e-18
1.21738e-18
1.34645e-18
7.6844e-19
6.72142e-19
2.5276e-18
1.11569e-17
5.91072e-18
1.05187e-18
4.06161e-19
5.37998e-19
1.44152e-18
2.69707e-18
7.9477e-19
6.15479e-19
3.70317e-18
8.96126e-18
3.03963e-18
1.59918e-18
2.16612e-18
1.07487e-18
5.99865e-19
7.22899e-19
2.13954e-18
5.62459e-18
3.82156e-18
1.68063e-18
1.36538e-18
1.80639e-18
2.77268e-18
4.30542e-18
3.64543e-18
1.8552e-18
9.06423e-19
5.29804e-19
4.86798e-19
5.87274e-19
3.20117e-19
6.15209e-19
1.27392e-18
1.58219e-18
6.11792e-19
2.5059e-18
5.18795e-18
3.28506e-18
2.10933e-18
5.83469e-18
4.38728e-17
1.69159e-16
5.2942e-17
9.68503e-18
1.23546e-18
5.04143e-19
4.73008e-19
5.24659e-19
6.38105e-19
7.8423e-19
9.03878e-19
9.36117e-19
1.42751e-18
2.97224e-18
4.58753e-18
3.0951e-18
1.11069e-18
3.26939e-19
3.15044e-19
5.06573e-19
5.70262e-19
7.0295e-19
2.39683e-18
2.58672e-17
5.79305e-17
2.20519e-17
5.45601e-18
2.66592e-18
2.52975e-18
1.71598e-18
1.19933e-18
1.47151e-18
1.4502e-18
1.34175e-18
1.59235e-18
1.38135e-18
1.12658e-18
1.71775e-18
2.06671e-18
9.63352e-19
7.60708e-19
1.55809e-18
1.57717e-18
2.09502e-18
3.34355e-18
4.18539e-18
4.56096e-18
3.22198e-18
2.17782e-18
1.63842e-18
9.92705e-19
7.41718e-19
8.83893e-19
1.67892e-18
2.01613e-18
1.43223e-18
1.1898e-18
1.28836e-18
1.29885e-18
1.26141e-18
1.20772e-18
1.48444e-18
1.65954e-18
1.99257e-18
4.50289e-18
4.50883e-18
3.37238e-18
3.64993e-18
1.82841e-18
9.08364e-19
9.78964e-19
8.91487e-19
1.17684e-18
9.77623e-19
1.40997e-18
9.99622e-19
1.31062e-18
1.96902e-18
1.15793e-18
1.58732e-18
3.27284e-18
7.78945e-19
3.52885e-18
2.15503e-18
9.15254e-19
2.46951e-18
1.64606e-18
1.16225e-18
1.84954e-18
3.27562e-18
1.42701e-18
2.18756e-18
3.2042e-18
1.44595e-18
1.03621e-18
2.49769e-18
2.89245e-19
5.55891e-19
2.81461e-19
7.8809e-19
4.55294e-19
4.02254e-19
1.6935e-18
6.30607e-19
2.22918e-18
5.02157e-19
1.10828e-18
1.91928e-18
7.11996e-19
1.77808e-18
3.11024e-18
1.70865e-18
9.93949e-19
1.97568e-18
3.43982e-18
1.59767e-18
3.21351e-18
2.12097e-18
9.11021e-19
1.73738e-18
1.11759e-18
1.36205e-18
8.92768e-19
6.62111e-19
7.33447e-19
1.08349e-18
1.31472e-18
1.38874e-18
3.36694e-18
1.43097e-18
1.04042e-18
1.47902e-18
1.45826e-18
1.62236e-18
6.33476e-19
9.54273e-19
1.30172e-18
9.34526e-19
8.94489e-19
1.02841e-18
1.31022e-18
1.27549e-18
1.28585e-18
1.0016e-18
3.12461e-18
9.76228e-19
6.54871e-19
6.92363e-19
1.42559e-18
3.05322e-18
1.32825e-18
7.65098e-19
8.16643e-19
1.1292e-18
1.43695e-18
1.56818e-18
3.05707e-18
2.35542e-18
3.55935e-18
1.06717e-18
9.17709e-19
1.06168e-18
1.86476e-18
7.10564e-19
7.54177e-19
1.76792e-18
7.70664e-19
6.81732e-19
4.25217e-19
1.11261e-18
4.92799e-19
1.59226e-18
1.38273e-18
5.05111e-19
6.90732e-19
1.21848e-18
1.25566e-18
1.84053e-18
2.97054e-18
1.47795e-18
1.82497e-18
2.16902e-18
2.16711e-18
9.0442e-19
1.56743e-18
1.00434e-18
1.81618e-18
2.01419e-18
9.79383e-19
7.04666e-19
1.65705e-18
1.03649e-18
5.8049e-19
1.07093e-18
5.40309e-19
4.17039e-19
8.30016e-19
1.06587e-18
1.23102e-18
9.38369e-19
8.15928e-19
1.82549e-18
1.10778e-18
1.38525e-18
2.1036e-18
1.56093e-18
1.54497e-18
8.81921e-19
1.25427e-18
2.01885e-18
1.21735e-18
1.33017e-18
1.08284e-18
6.77096e-19
1.35859e-18
1.14035e-18
1.20787e-18
1.55187e-18
1.50212e-18
1.26343e-18
8.05151e-19
7.73338e-19
1.08773e-18
1.01981e-18
8.84759e-19
9.30893e-19
7.37251e-19
1.05256e-18
1.24187e-18
8.03248e-19
9.54052e-19
2.21633e-18
2.77701e-18
1.57638e-18
1.43575e-18
1.20348e-18
1.39332e-18
1.59676e-18
1.08975e-18
1.00606e-18
1.87357e-18
4.03592e-18
1.76961e-18
1.49748e-18
2.29654e-18
1.42244e-18
1.30738e-18
1.38397e-18
1.26282e-18
9.25749e-19
1.57608e-18
1.02934e-18
1.19239e-18
2.92366e-18
3.11896e-18
9.48346e-19
1.49543e-18
1.38248e-18
1.08646e-18
1.03014e-18
6.96599e-19
1.46063e-18
1.53826e-18
1.58093e-18
1.45001e-18
1.4095e-18
1.31989e-18
1.05315e-18
1.64022e-18
2.62719e-18
2.24658e-18
2.14804e-18
1.79657e-18
1.07146e-18
4.81417e-19
1.05572e-18
2.21993e-18
2.18359e-18
1.13304e-18
1.19326e-18
9.2401e-19
5.73979e-19
7.38355e-19
1.38573e-18
1.1078e-18
1.28366e-18
1.1403e-18
1.19995e-18
2.55114e-18
2.52379e-17
8.56023e-17
2.78369e-17
7.08151e-18
2.8475e-18
1.83124e-18
3.23723e-18
7.05064e-18
8.72273e-18
5.86919e-18
3.28051e-18
1.88281e-18
1.25636e-18
1.0869e-18
1.48039e-18
2.32643e-18
2.89594e-18
2.22644e-18
1.25082e-18
8.86683e-19
9.59871e-19
9.72794e-19
6.8882e-19
6.47096e-19
8.55217e-19
8.95318e-19
7.86135e-19
9.37679e-19
1.22441e-18
9.52763e-19
4.89897e-19
3.44678e-19
5.04642e-19
8.71686e-19
1.43491e-18
1.95364e-18
2.19482e-18
1.48647e-18
1.27925e-18
2.3528e-18
1.77728e-18
1.12782e-18
1.66349e-18
2.43439e-18
8.31601e-19
8.36405e-19
1.53667e-18
9.42465e-19
6.36065e-19
7.70305e-19
1.56284e-18
2.34955e-18
1.66354e-18
1.9139e-18
1.1677e-18
1.78616e-18
1.32406e-18
8.72515e-18
6.10989e-17
1.58958e-16
2.70685e-17
5.12446e-18
1.13163e-18
9.63625e-19
1.22169e-18
1.07359e-18
9.2809e-19
8.09278e-19
1.1007e-18
2.39024e-18
2.90368e-18
1.08372e-18
4.96656e-19
5.49277e-19
1.06532e-18
1.67672e-18
1.32954e-18
9.14392e-19
1.50096e-18
3.24394e-18
2.44119e-18
1.21368e-18
1.54175e-18
2.39662e-18
1.90452e-18
1.51219e-18
1.40144e-18
2.46384e-18
4.80118e-18
3.3392e-18
2.10831e-18
2.23643e-18
2.93673e-18
2.88233e-18
1.85171e-18
8.51184e-19
6.03614e-19
7.06715e-19
7.4742e-19
8.24297e-19
8.57854e-19
9.07745e-19
6.81546e-19
4.62293e-19
6.22367e-19
2.79566e-18
1.85939e-17
2.20596e-17
6.09409e-18
1.64104e-17
6.31714e-17
9.36389e-17
2.82106e-17
4.76457e-18
7.20455e-19
4.85352e-19
6.85359e-19
9.63176e-19
1.08175e-18
9.10425e-19
8.64244e-19
1.11209e-18
1.46314e-18
1.77449e-18
2.07714e-18
1.5208e-18
7.79734e-19
3.95209e-19
5.16305e-19
1.05274e-18
1.11833e-18
1.13314e-18
2.85873e-18
1.66856e-17
3.59462e-17
1.53919e-17
3.66317e-18
1.43334e-18
1.13677e-18
1.10143e-18
8.94155e-19
9.73512e-19
1.49014e-18
1.50599e-18
1.18472e-18
1.05475e-18
9.22462e-19
1.0437e-18
1.67561e-18
1.95421e-18
1.77449e-18
1.96571e-18
1.95304e-18
2.02049e-18
3.09379e-18
3.64542e-18
3.16241e-18
2.73725e-18
2.25901e-18
1.41322e-18
7.07811e-19
7.0016e-19
1.13897e-18
1.99768e-18
2.69016e-18
1.67568e-18
1.06619e-18
1.30237e-18
1.8056e-18
1.51747e-18
8.47329e-19
8.16845e-19
1.46076e-18
2.54575e-18
3.2105e-18
3.49994e-18
1.63855e-18
1.24452e-18
1.70214e-18
1.19412e-18
1.16689e-18
2.0923e-18
3.11521e-18
3.15399e-18
2.77278e-18
2.09534e-18
1.48171e-18
1.29608e-18
8.56601e-19
7.98204e-19
1.6449e-18
1.11459e-18
1.3811e-18
2.06026e-18
2.68529e-18
1.75395e-18
1.1259e-18
2.09997e-18
2.45239e-18
2.68809e-18
1.83566e-18
1.09393e-18
2.60563e-18
2.6899e-18
1.94276e-18
2.41533e-18
1.27673e-18
3.30847e-19
6.03645e-19
5.70428e-19
3.79474e-19
2.19762e-18
2.10317e-18
2.47653e-18
2.71655e-18
2.88291e-18
2.6773e-18
1.75003e-18
2.74462e-18
1.56527e-18
2.17979e-18
9.53776e-19
1.06749e-18
1.19175e-18
8.90823e-19
2.83172e-18
1.58775e-18
2.07414e-18
1.73859e-18
1.36926e-18
1.55031e-18
7.63381e-19
2.75984e-18
7.52548e-19
1.30605e-18
3.14938e-18
7.84698e-19
9.78084e-19
1.69964e-18
9.44425e-19
2.72292e-19
6.02584e-19
8.60132e-19
1.33493e-18
1.67579e-18
1.97168e-18
1.68074e-18
1.98877e-18
4.98464e-19
1.02379e-18
2.76449e-18
2.99169e-18
1.75292e-18
1.32789e-18
1.35199e-18
1.83539e-18
1.23839e-18
1.32032e-18
9.2884e-19
1.17591e-18
8.73189e-19
2.31787e-18
1.72067e-18
4.89956e-19
1.47839e-18
1.19298e-18
8.70182e-19
7.42571e-19
1.11523e-18
9.76205e-19
1.70811e-18
1.21065e-18
2.27259e-18
1.08465e-18
7.90713e-19
9.61127e-19
1.27649e-18
1.2521e-18
1.05743e-18
1.53301e-18
2.01287e-18
6.05771e-19
6.11714e-19
8.49691e-19
1.63643e-18
2.77164e-18
2.03447e-18
7.72832e-19
1.74019e-18
1.21151e-18
4.23073e-19
1.99451e-18
1.63919e-18
1.31067e-18
9.86991e-19
2.3623e-18
2.53813e-18
2.32342e-18
2.7131e-18
1.27311e-18
2.68959e-18
9.04567e-19
1.74734e-18
1.26719e-18
1.12616e-18
7.77521e-19
1.73449e-18
7.05866e-19
6.50175e-19
1.06522e-18
2.62487e-18
1.28681e-18
1.38062e-18
2.17273e-18
1.69361e-18
2.29926e-18
2.7448e-18
1.94925e-18
1.40057e-18
1.48217e-18
1.61993e-18
9.27459e-19
1.77152e-18
1.39242e-18
8.82605e-19
1.0198e-18
1.48206e-18
1.57553e-18
2.18767e-18
2.12483e-18
1.12316e-18
9.52226e-19
9.10731e-19
1.29693e-18
5.7063e-19
1.26296e-18
1.88167e-18
1.97313e-18
1.19035e-18
9.15269e-19
1.21654e-18
1.04213e-18
1.66945e-18
1.35491e-18
1.57328e-18
1.79405e-18
1.06587e-18
1.54035e-18
1.42854e-18
1.05264e-18
1.12358e-18
1.86836e-18
6.79772e-19
1.03019e-18
1.76091e-18
1.7867e-18
2.42873e-18
1.62404e-18
1.09227e-18
7.59953e-19
1.93408e-18
1.18606e-18
1.22192e-18
8.65315e-19
8.47394e-19
1.16176e-18
1.19267e-18
2.34088e-18
2.20397e-18
1.08585e-18
1.46116e-18
1.6835e-18
1.95897e-18
2.14982e-18
1.86028e-18
1.0328e-18
1.13704e-18
1.63942e-18
2.55914e-18
4.51431e-18
5.51969e-18
3.37118e-18
1.456e-18
1.41332e-18
2.11805e-18
1.66988e-18
1.63267e-18
1.66042e-18
9.45326e-19
7.60183e-19
1.16877e-18
1.29506e-18
5.29957e-19
4.89523e-19
1.22555e-18
1.51454e-18
1.31995e-18
7.65314e-19
3.79951e-18
2.72921e-17
1.36231e-16
3.5384e-17
7.34987e-18
2.45237e-18
2.18067e-18
3.13802e-18
3.87376e-18
2.91181e-18
2.15057e-18
1.982e-18
1.86686e-18
1.55787e-18
1.06799e-18
9.67014e-19
1.22246e-18
1.80623e-18
2.10788e-18
1.65734e-18
1.13318e-18
1.02068e-18
1.0455e-18
8.03803e-19
6.64385e-19
9.26277e-19
1.37002e-18
1.33246e-18
1.16341e-18
9.92085e-19
8.2986e-19
6.61147e-19
6.18611e-19
8.77313e-19
1.36083e-18
1.74713e-18
2.07451e-18
2.03796e-18
1.53387e-18
1.03294e-18
8.93344e-19
9.56747e-19
8.96899e-19
1.07808e-18
1.15986e-18
5.18877e-19
4.28332e-19
7.53547e-19
9.87672e-19
1.16507e-18
1.50814e-18
1.10265e-18
8.86527e-19
8.78733e-19
7.2656e-19
1.3097e-18
1.47902e-18
1.31944e-18
7.17856e-18
4.53198e-17
1.06773e-16
3.05408e-17
5.47851e-18
9.30717e-19
6.23348e-19
9.30143e-19
9.53992e-19
8.80509e-19
1.02601e-18
1.35133e-18
2.02195e-18
2.67241e-18
1.78322e-18
8.15793e-19
6.54994e-19
9.84817e-19
1.57672e-18
1.7981e-18
1.20932e-18
7.90708e-19
1.23555e-18
2.47095e-18
2.97698e-18
3.68406e-18
5.39577e-18
3.42613e-18
1.14396e-18
5.98641e-19
9.81818e-19
2.74891e-18
4.84121e-18
3.90353e-18
2.83229e-18
2.04762e-18
1.48709e-18
1.06262e-18
8.62288e-19
9.7918e-19
9.18282e-19
6.97484e-19
6.51587e-19
9.44351e-19
1.25201e-18
7.27056e-19
4.39855e-19
6.77834e-19
2.24824e-18
1.52986e-17
7.93587e-17
4.90683e-17
2.14176e-17
1.73221e-17
1.39783e-17
8.79392e-18
3.44066e-18
1.29801e-18
8.58259e-19
1.15238e-18
1.58606e-18
1.71701e-18
1.67423e-18
1.47764e-18
1.36572e-18
1.40855e-18
1.38695e-18
1.42909e-18
1.63928e-18
1.45926e-18
9.58767e-19
7.32843e-19
6.82737e-19
7.2945e-19
1.30047e-18
3.08088e-18
8.11608e-18
1.05689e-17
4.17166e-18
1.69725e-18
9.01869e-19
7.39511e-19
8.54199e-19
1.10767e-18
1.27991e-18
1.23053e-18
1.20907e-18
1.31505e-18
1.46275e-18
2.16749e-18
2.96836e-18
3.27596e-18
3.71749e-18
4.18145e-18
3.11578e-18
2.00307e-18
1.53443e-18
1.5469e-18
2.1316e-18
3.13081e-18
3.41639e-18
1.84634e-18
1.02068e-18
7.33308e-19
6.29835e-19
7.03133e-19
8.35114e-19
9.53052e-19
1.28024e-18
1.29204e-18
1.35213e-18
1.38713e-18
1.49807e-18
1.69461e-18
2.20851e-18
2.11104e-18
1.92504e-18
1.75834e-18
1.47735e-18
1.97801e-18
1.20785e-18
8.7388e-19
1.40327e-18
1.44609e-18
1.97031e-18
2.53282e-18
1.98769e-18
2.11514e-18
1.99798e-18
1.65905e-18
1.47094e-18
9.21518e-19
5.37295e-19
9.89821e-19
1.86848e-18
1.95753e-18
6.81715e-19
2.54115e-18
4.00431e-18
2.44153e-18
1.36543e-18
1.51343e-18
2.3272e-18
1.14342e-18
2.07802e-18
1.43981e-18
9.011e-19
7.53622e-19
1.72473e-18
1.29712e-18
1.00482e-18
7.68319e-19
8.21239e-19
6.13385e-19
7.57644e-19
1.762e-18
2.20706e-18
2.71815e-18
1.37398e-18
1.17892e-18
1.11812e-18
6.56907e-19
1.50621e-18
1.26405e-18
6.76544e-19
7.90398e-19
2.54951e-19
2.02156e-18
3.31526e-18
9.90893e-19
5.72053e-19
1.77633e-18
1.67641e-18
2.54222e-18
3.24864e-18
1.08648e-18
8.33775e-19
5.17246e-19
8.56344e-19
9.16975e-19
4.55463e-19
1.44116e-18
2.24405e-18
1.0769e-18
1.44919e-18
1.409e-18
6.76047e-19
1.13044e-18
2.01213e-18
1.28605e-18
5.34552e-19
8.64227e-19
1.32453e-18
2.93106e-18
2.10289e-18
1.08598e-18
2.09338e-18
1.11637e-18
7.77893e-19
8.41933e-19
1.3053e-18
9.30345e-19
1.72426e-18
3.38451e-18
1.38498e-18
1.4549e-18
1.47183e-18
1.16012e-18
7.95311e-19
1.17727e-18
1.47883e-18
7.9907e-19
1.34349e-18
1.39135e-18
7.35938e-19
9.29927e-19
8.91637e-19
9.79404e-19
6.48572e-19
7.79214e-19
1.71128e-18
1.51501e-18
1.63164e-18
1.01997e-18
1.38823e-18
9.50615e-19
8.44294e-19
1.82106e-18
1.45076e-18
1.97432e-18
2.29366e-18
1.08446e-18
1.24265e-18
1.20848e-18
2.99273e-18
8.25301e-19
9.49658e-19
1.33529e-18
1.20004e-18
1.57548e-18
2.19113e-18
1.36359e-18
1.26004e-18
1.22313e-18
1.27946e-18
1.07758e-18
8.64345e-19
1.14227e-18
1.17988e-18
8.16097e-19
1.25207e-18
1.22664e-18
9.1326e-19
7.46772e-19
1.48607e-18
2.10327e-18
1.38516e-18
6.13806e-19
2.04795e-18
2.28741e-18
2.93982e-18
2.66493e-18
1.48235e-18
1.38852e-18
1.41782e-18
1.04018e-18
1.01037e-18
1.91819e-18
2.97772e-18
2.37486e-18
7.6845e-19
8.3974e-19
2.33798e-18
1.61923e-18
1.06488e-18
1.46462e-18
1.16352e-18
1.17433e-18
1.1756e-18
2.20991e-18
1.76686e-18
8.9108e-19
7.97707e-19
9.99071e-19
1.1953e-18
7.91679e-19
1.40694e-18
1.51708e-18
1.4185e-18
1.05328e-18
1.47693e-18
1.14388e-18
1.21179e-18
2.21814e-18
2.32009e-18
2.1147e-18
1.55753e-18
2.19201e-18
1.23075e-18
1.38952e-18
1.80258e-18
1.07848e-18
8.60191e-19
1.41192e-18
1.25928e-18
1.06485e-18
1.15959e-18
1.54753e-18
2.03927e-18
1.95001e-18
2.17166e-18
2.01476e-18
9.61258e-19
6.38032e-19
1.17926e-18
1.87126e-18
2.11595e-18
1.99911e-18
1.11297e-18
6.02354e-19
7.43492e-19
2.2919e-18
2.84306e-18
2.32011e-18
2.60616e-18
1.50646e-18
1.50047e-18
1.45833e-18
1.04213e-18
1.53626e-18
1.50119e-18
1.25559e-18
1.18339e-18
1.09906e-18
1.1003e-18
1.40818e-18
1.52352e-18
1.00215e-18
6.84202e-19
4.03048e-19
9.40626e-19
7.24045e-18
7.46586e-17
1.8012e-16
3.30013e-17
6.48281e-18
1.76521e-18
1.13477e-18
1.37687e-18
1.74206e-18
1.38761e-18
9.95774e-19
1.08028e-18
1.54956e-18
1.82116e-18
1.73832e-18
1.18707e-18
1.21193e-18
1.51712e-18
1.95069e-18
2.11661e-18
1.71897e-18
1.1738e-18
1.03787e-18
1.14435e-18
1.31863e-18
1.80794e-18
2.49548e-18
2.27185e-18
1.54641e-18
9.89848e-19
8.7575e-19
1.02244e-18
1.19612e-18
1.51059e-18
1.79211e-18
1.66209e-18
1.32481e-18
1.20269e-18
1.04368e-18
8.2309e-19
8.12635e-19
9.57194e-19
1.13974e-18
1.01063e-18
9.52924e-19
8.26539e-19
4.75795e-19
6.08866e-19
1.31836e-18
1.6252e-18
1.26166e-18
9.15969e-19
8.37353e-19
1.64397e-18
3.30931e-18
3.47453e-18
2.834e-18
2.25624e-18
9.34544e-18
4.29099e-17
7.58769e-17
2.06848e-17
4.75952e-18
8.03664e-19
4.14034e-19
5.54425e-19
7.76855e-19
9.13465e-19
1.06983e-18
1.3637e-18
1.77551e-18
2.06679e-18
1.92418e-18
1.3044e-18
8.32138e-19
6.94311e-19
7.9269e-19
9.77915e-19
9.06183e-19
6.79688e-19
8.41996e-19
2.64591e-18
7.84329e-18
8.07559e-18
4.58096e-18
2.49139e-18
1.07513e-18
7.33346e-19
1.22128e-18
2.76758e-18
5.96323e-18
5.85808e-18
3.25782e-18
1.58273e-18
9.86182e-19
8.01354e-19
9.05277e-19
9.03191e-19
7.72191e-19
7.97102e-19
1.22918e-18
1.6924e-18
1.36809e-18
7.63459e-19
5.49035e-19
7.23928e-19
1.60266e-18
7.4937e-18
4.65251e-17
8.0389e-17
2.05787e-17
5.30925e-18
2.77365e-18
2.52136e-18
1.51464e-18
1.5142e-18
1.6355e-18
1.85034e-18
2.00942e-18
1.93771e-18
1.56825e-18
1.14368e-18
9.45684e-19
1.12981e-18
1.63336e-18
2.26106e-18
3.19693e-18
4.27201e-18
3.91587e-18
2.75016e-18
2.14002e-18
2.09824e-18
2.54286e-18
3.80465e-18
6.19186e-18
5.79791e-18
3.61633e-18
2.08188e-18
1.14497e-18
7.2962e-19
8.22855e-19
1.21712e-18
1.68943e-18
1.78513e-18
1.15778e-18
8.14902e-19
7.75819e-19
1.12203e-18
1.94824e-18
2.07881e-18
2.01991e-18
2.6054e-18
2.87679e-18
2.02601e-18
1.59192e-18
2.1006e-18
3.04333e-18
3.49439e-18
2.29626e-18
1.13574e-18
7.78769e-19
7.50786e-19
8.38824e-19
7.69264e-19
9.66899e-19
1.5773e-18
1.81635e-18
1.59131e-18
1.28827e-18
1.19069e-18
1.4717e-18
1.8301e-18
1.72032e-18
1.73465e-18
1.7521e-18
1.6193e-18
1.52326e-18
1.37058e-18
1.15179e-18
1.29801e-18
1.35856e-18
1.65747e-18
2.18115e-18
1.79532e-18
1.69055e-18
1.97207e-18
2.10174e-18
1.41253e-18
6.59302e-19
6.37614e-19
1.77789e-18
1.37253e-18
1.418e-18
2.22171e-18
2.54588e-18
2.15961e-18
2.97858e-18
2.96462e-18
1.04555e-18
1.01644e-18
1.87842e-18
3.76131e-18
2.75769e-18
1.64091e-18
1.84406e-18
1.568e-18
2.08889e-18
9.58594e-19
5.47227e-19
1.53786e-18
1.44122e-18
1.23971e-18
1.2928e-19
6.24539e-19
5.97883e-19
6.76136e-19
2.33108e-18
1.524e-18
9.05635e-19
1.4728e-18
6.23613e-19
7.54249e-19
3.786e-19
8.90792e-19
1.66694e-18
8.08229e-19
2.2798e-18
2.01463e-18
2.26213e-18
3.18704e-18
9.76231e-19
1.01341e-18
1.31211e-18
2.12901e-18
1.82864e-18
2.22148e-18
1.10827e-18
5.07261e-19
8.33815e-19
9.52234e-19
3.84296e-19
9.36311e-19
5.59165e-19
2.52841e-18
1.01769e-18
1.1041e-18
1.37084e-18
1.36571e-18
1.83063e-18
8.61913e-19
8.89148e-19
1.40522e-18
2.35754e-18
2.37802e-18
1.41454e-18
1.56539e-18
8.79384e-19
8.58024e-19
1.25198e-18
1.38534e-18
1.18007e-18
1.21789e-18
1.45636e-18
3.01896e-18
1.84971e-18
8.484e-19
1.33243e-18
1.5376e-18
9.75727e-19
1.37506e-18
1.64289e-18
1.27366e-18
8.74734e-19
1.18719e-18
1.0249e-18
6.22058e-19
1.37184e-18
8.28882e-19
1.33873e-18
2.96366e-18
2.02254e-18
1.19688e-18
1.62699e-18
2.60524e-18
1.92809e-18
2.56399e-18
2.7049e-18
1.33645e-18
1.20794e-18
2.62485e-18
1.71493e-18
1.1891e-18
8.99841e-19
8.48463e-19
1.34651e-18
1.61611e-18
1.20686e-18
1.12968e-18
1.73564e-18
2.14622e-18
1.85806e-18
3.02266e-18
2.5123e-18
1.62694e-18
8.67809e-19
1.29698e-18
2.22173e-18
1.23389e-18
8.35587e-19
1.06682e-18
4.5708e-19
4.45009e-19
8.57157e-19
5.57511e-19
8.13814e-19
9.14061e-19
1.8148e-18
2.99705e-18
1.74947e-18
1.37396e-18
8.87603e-19
1.26265e-18
2.04479e-18
2.20907e-18
1.35982e-18
8.2425e-19
7.32038e-19
1.24877e-18
1.1165e-18
8.39935e-19
8.08962e-19
7.96788e-19
1.92547e-18
2.15806e-18
1.67103e-18
2.90825e-18
1.70307e-18
2.52654e-18
2.40901e-18
1.65245e-18
1.74947e-18
1.47762e-18
1.18643e-18
1.03058e-18
1.22746e-18
1.63736e-18
1.16442e-18
7.84804e-19
9.03338e-19
2.28432e-18
1.74324e-18
1.78722e-18
1.58222e-18
1.65379e-18
1.41726e-18
1.17586e-18
1.66361e-18
2.16021e-18
1.35082e-18
1.02565e-18
1.57197e-18
1.93364e-18
1.73363e-18
1.01352e-18
1.03165e-18
1.09208e-18
1.70265e-18
1.37553e-18
1.59221e-18
1.14729e-18
9.03091e-19
1.29947e-18
1.43964e-18
2.20211e-18
2.7774e-18
2.64601e-18
1.37971e-18
1.17814e-18
1.18823e-18
9.836e-19
1.23077e-18
1.11229e-18
9.09746e-19
1.11223e-18
1.0516e-18
8.44784e-19
1.56767e-18
2.38394e-18
1.95883e-18
1.19221e-18
1.45878e-18
1.37355e-18
1.40397e-18
2.22846e-18
1.82956e-18
9.75295e-19
7.30721e-19
4.91209e-19
6.94382e-19
1.85962e-17
2.6606e-16
1.99958e-16
3.15927e-17
5.91982e-18
1.50541e-18
1.1027e-18
1.29221e-18
1.58584e-18
1.57721e-18
1.25933e-18
9.92258e-19
1.06379e-18
1.50441e-18
1.81547e-18
1.83753e-18
1.56232e-18
1.49362e-18
1.74838e-18
1.88718e-18
1.67983e-18
1.32594e-18
1.18272e-18
1.34923e-18
1.59678e-18
1.72613e-18
1.91183e-18
1.9739e-18
1.60858e-18
1.25524e-18
1.10862e-18
1.153e-18
1.29494e-18
1.41678e-18
1.28874e-18
9.30688e-19
6.44858e-19
6.12702e-19
7.86186e-19
9.73066e-19
9.71392e-19
9.35473e-19
1.02155e-18
1.14419e-18
1.21418e-18
8.45908e-19
4.23479e-19
4.20921e-19
9.8365e-19
1.78947e-18
1.47691e-18
1.09036e-18
1.05856e-18
1.61019e-18
3.37308e-18
4.16816e-18
2.96844e-18
2.82899e-18
1.10041e-17
3.62391e-17
2.74998e-17
1.01144e-17
2.81192e-18
1.09951e-18
6.46958e-19
5.65721e-19
6.76058e-19
9.40466e-19
1.29969e-18
1.60929e-18
1.66391e-18
1.4875e-18
1.33228e-18
1.14302e-18
8.82757e-19
8.90717e-19
1.29753e-18
1.86419e-18
1.62987e-18
1.17383e-18
1.08662e-18
2.66311e-18
8.8852e-18
1.15766e-17
4.53848e-18
1.76868e-18
1.03849e-18
9.23927e-19
1.20328e-18
2.07985e-18
4.26914e-18
5.76851e-18
3.61277e-18
1.5475e-18
1.02074e-18
1.10899e-18
1.65266e-18
1.98844e-18
1.89332e-18
1.75713e-18
1.64692e-18
1.33886e-18
1.10085e-18
1.1465e-18
1.41774e-18
1.57594e-18
1.74952e-18
3.82069e-18
2.48125e-17
4.64501e-17
1.65684e-17
3.01609e-18
1.14593e-18
9.45355e-19
7.77109e-19
6.28862e-19
8.81559e-19
1.52322e-18
1.99602e-18
1.97913e-18
1.62678e-18
1.31435e-18
1.11115e-18
1.22091e-18
1.79964e-18
2.9045e-18
4.06561e-18
4.70094e-18
3.92354e-18
2.63267e-18
1.37128e-18
8.80737e-19
1.0166e-18
1.80182e-18
2.81982e-18
2.90666e-18
1.70799e-18
1.15236e-18
8.55056e-19
7.17583e-19
9.60091e-19
1.51895e-18
1.76369e-18
1.57572e-18
1.22736e-18
9.2747e-19
7.05777e-19
6.18061e-19
8.46623e-19
1.59428e-18
2.07723e-18
2.11531e-18
2.21703e-18
1.9401e-18
1.47365e-18
1.63662e-18
2.17037e-18
2.11315e-18
1.88728e-18
2.15463e-18
2.0991e-18
1.30866e-18
9.90168e-19
1.19899e-18
1.88655e-18
2.18166e-18
2.07142e-18
2.40133e-18
2.43373e-18
1.93414e-18
1.53841e-18
1.44503e-18
1.61775e-18
1.66119e-18
1.45057e-18
1.20712e-18
1.50158e-18
1.39246e-18
1.07066e-18
1.27629e-18
1.16237e-18
8.3574e-19
6.81585e-19
1.10313e-18
2.3807e-18
3.68407e-18
2.45222e-18
2.24605e-18
2.43182e-18
2.19792e-18
1.99149e-18
3.07567e-18
1.70833e-18
1.11423e-18
1.35366e-18
1.66173e-18
1.57283e-18
6.25552e-19
9.07061e-19
9.17251e-19
4.38298e-19
9.89903e-19
1.99192e-18
1.70974e-18
2.34165e-18
2.83151e-18
1.46013e-18
2.04874e-18
8.87104e-19
1.18107e-18
4.1051e-18
4.10117e-18
1.68313e-18
4.60866e-19
4.36504e-19
9.58465e-19
9.30221e-19
1.17722e-18
1.61503e-18
1.87631e-18
4.48853e-18
2.02689e-18
1.63095e-18
1.02424e-18
1.25831e-18
8.10607e-19
1.63615e-18
2.22494e-18
1.74899e-18
1.07746e-18
1.22575e-18
7.44502e-19
1.23817e-18
8.73464e-19
2.53258e-18
4.29882e-18
1.34373e-18
8.34671e-19
8.86928e-19
1.97779e-18
2.24682e-18
9.02268e-19
1.72645e-18
9.1472e-19
1.89921e-18
1.48126e-18
1.624e-18
6.43271e-19
1.16627e-18
8.65979e-19
2.19064e-18
2.27159e-18
2.54195e-18
1.17982e-18
1.32285e-18
2.41028e-18
2.32846e-18
1.09121e-18
9.36174e-19
1.5211e-18
9.91726e-19
6.89618e-19
1.10111e-18
9.56418e-19
1.66307e-18
2.30559e-18
9.86693e-19
1.39169e-18
1.95962e-18
1.18779e-18
1.07148e-18
1.65592e-18
1.06332e-18
9.68722e-19
8.40572e-19
6.14465e-19