/*--------------------------------*- C++ -*----------------------------------*\
  =========                 |
  \\      /  F ield         | OpenFOAM: The Open Source CFD Toolbox
   \\    /   O peration     | Website:  https://openfoam.org
    \\  /    A nd           | Version:  7
     \\/     M anipulation  |
\*---------------------------------------------------------------------------*/
FoamFile
{
    version     2.0;
    format      ascii;
    class       volScalarField;
    location    "3500";
    object      k2Write;
}
// * * * * * * * * * * * * * * * * * * * * * * * * * * * * * * * * * * * * * //

dimensions      [0 2 0 0 0 0 0];

internalField   nonuniform List<scalar> 
160000
(
1.52967e-18
2.16459e-18
1.94556e-18
2.89484e-18
4.15146e-18
1.98944e-18
3.28337e-18
1.32183e-18
2.12837e-18
4.44006e-18
3.42569e-18
2.38703e-18
4.43788e-18
3.97059e-18
1.36238e-18
2.05407e-18
1.42314e-18
1.46073e-18
2.97745e-18
2.76717e-18
2.4569e-18
2.33969e-18
2.9256e-18
4.18247e-18
3.01164e-18
4.72877e-18
4.84765e-18
2.9922e-18
3.11909e-18
1.75415e-18
1.9528e-18
3.17141e-18
6.94099e-18
3.0478e-18
2.56201e-18
3.75001e-18
4.19743e-18
5.78801e-18
1.5694e-18
2.57728e-18
2.59816e-18
2.56608e-18
3.90218e-18
2.1453e-18
4.01708e-18
3.47617e-18
2.71457e-18
1.61679e-18
3.04576e-18
1.79228e-18
2.93818e-18
6.47873e-18
4.1892e-18
3.06336e-18
5.00576e-18
1.76354e-18
4.87104e-18
1.43827e-18
1.30356e-18
1.98222e-18
8.65421e-18
2.45528e-18
2.27769e-18
1.78714e-18
1.38734e-18
5.28186e-18
3.38067e-18
4.21644e-18
1.10146e-18
5.55623e-19
5.17538e-18
1.67093e-18
4.45306e-18
2.05193e-18
3.28313e-18
2.6019e-18
3.60357e-18
2.32299e-18
4.58312e-18
2.68574e-18
5.00661e-18
6.65985e-18
3.30976e-18
2.51853e-18
2.52685e-18
2.30051e-18
2.32775e-18
1.48099e-18
2.21009e-18
3.62118e-18
1.40781e-18
4.73082e-18
5.74662e-18
4.78985e-18
3.19928e-18
1.49704e-18
2.64041e-18
1.97355e-18
2.10256e-18
1.3293e-18
2.44853e-18
9.68049e-19
3.66655e-18
1.98234e-18
1.3069e-18
3.1226e-18
1.20147e-18
3.00911e-18
3.64844e-18
3.43112e-18
4.76199e-18
1.47306e-18
4.36691e-18
2.08036e-18
1.72566e-18
2.44592e-18
1.45308e-18
2.163e-18
4.01298e-18
3.00667e-18
2.46861e-18
1.7256e-18
3.00814e-18
3.6321e-18
4.22462e-18
6.85724e-18
5.23901e-18
2.05347e-18
2.79017e-18
2.99466e-18
1.90539e-18
1.35117e-18
2.49126e-18
6.33968e-18
3.6684e-18
2.76672e-18
1.75384e-18
2.552e-18
1.5394e-18
9.5331e-19
2.74805e-18
3.89973e-18
7.70811e-19
2.89144e-18
6.13317e-18
2.95654e-18
3.03366e-18
2.79796e-18
2.35857e-18
1.39342e-18
1.15228e-18
2.03476e-18
1.21763e-18
3.02526e-18
1.05007e-18
2.62709e-18
2.66852e-18
4.8433e-18
2.99042e-18
3.38513e-18
1.96468e-18
2.54815e-18
1.93243e-18
4.43546e-18
1.09373e-18
2.86981e-18
2.89088e-18
1.64936e-18
2.33811e-18
1.71288e-18
4.87958e-18
6.79847e-18
2.2242e-18
5.98832e-18
3.26394e-18
1.62526e-18
2.34724e-18
2.53946e-18
5.58943e-18
4.83448e-18
1.04498e-18
3.65596e-18
1.466e-18
1.02369e-18
1.14872e-18
1.32343e-18
1.6519e-18
1.49151e-18
1.12236e-18
2.35996e-18
3.26532e-18
3.05146e-18
5.21277e-18
9.22537e-18
1.52155e-17
1.27222e-18
1.79526e-18
1.37395e-17
7.04415e-17
1.05357e-16
4.62112e-17
1.87656e-17
7.36697e-18
2.51456e-18
1.79711e-18
5.04577e-18
1.54095e-17
1.94727e-17
1.03295e-17
6.74403e-18
6.26227e-18
6.62659e-18
4.77774e-18
3.17646e-18
3.71474e-18
3.673e-18
1.91651e-18
2.35696e-18
6.42852e-18
9.4875e-18
8.03545e-18
4.25608e-18
8.88221e-19
5.85102e-19
6.95646e-19
1.17887e-18
2.5668e-18
1.04064e-18
2.6614e-18
2.11813e-18
5.88852e-19
1.52684e-18
1.16443e-18
2.58324e-18
2.40721e-18
2.83626e-18
1.40843e-18
2.5589e-18
1.25117e-18
2.183e-18
1.47523e-18
1.02842e-18
1.47364e-18
1.1422e-18
1.70051e-18
1.52995e-18
2.44758e-18
3.82604e-18
2.30301e-17
7.26417e-17
1.06833e-16
4.27785e-17
1.19897e-17
5.04286e-18
2.95435e-18
3.50454e-18
2.78531e-18
7.88185e-19
1.019e-18
9.85217e-18
4.89885e-17
1.55594e-17
3.00304e-18
8.11729e-19
8.77992e-19
2.69028e-18
2.84075e-18
6.67583e-19
1.19038e-18
8.18021e-18
3.94306e-18
2.29244e-18
3.67245e-18
2.91707e-18
1.26316e-18
6.4159e-19
1.13825e-18
5.44121e-18
4.18745e-18
2.93075e-18
1.6804e-18
1.71447e-18
2.35397e-18
4.03326e-18
5.01848e-18
3.84054e-18
4.83248e-18
1.8894e-18
1.66981e-18
1.81733e-18
1.68416e-18
3.83263e-19
7.64652e-19
1.22602e-18
1.5756e-18
2.1414e-18
3.00418e-18
7.68668e-19
2.09203e-18
1.81357e-18
9.40245e-18
8.89352e-17
2.80434e-16
2.03145e-16
8.5383e-17
4.36788e-17
2.39513e-17
1.41342e-17
7.88204e-18
4.47696e-18
3.45528e-18
1.93032e-18
1.13895e-18
2.23546e-18
6.45327e-18
1.36839e-17
1.50041e-17
4.1762e-18
1.07588e-18
1.00073e-18
6.4182e-19
5.7556e-19
5.33958e-19
3.06188e-18
1.59145e-17
3.04958e-17
2.16405e-17
1.20336e-17
9.25252e-18
7.91259e-18
4.56609e-18
4.0059e-18
4.08992e-18
3.26173e-18
3.13687e-18
3.12463e-18
2.35139e-18
2.3119e-18
6.91218e-18
7.80557e-18
1.67895e-18
1.39606e-18
2.12635e-18
1.78088e-18
2.67958e-18
2.26008e-18
2.7873e-18
6.28127e-18
9.22479e-18
6.7914e-18
4.64016e-18
2.26269e-18
1.92459e-18
1.60599e-18
2.50781e-18
2.71249e-18
2.94746e-18
2.92041e-18
2.80348e-18
1.6945e-18
1.22126e-18
1.11043e-18
1.54854e-18
1.26266e-18
2.80395e-18
4.16522e-18
2.58018e-18
6.55584e-18
7.47447e-18
3.29041e-18
2.33859e-18
2.84739e-18
2.74993e-18
6.58401e-18
2.32908e-18
4.36599e-18
1.94218e-18
1.76323e-18
1.26005e-18
1.3826e-18
1.76972e-18
1.5888e-18
1.39974e-18
2.45545e-18
2.88598e-18
2.93258e-18
3.83959e-18
3.54332e-18
2.38445e-18
1.94532e-18
2.56615e-18
1.99504e-18
3.15327e-18
2.77919e-18
1.77901e-18
7.02478e-18
4.88444e-18
1.48732e-18
1.07262e-17
6.4447e-18
6.10278e-18
1.38472e-18
2.05444e-18
1.81495e-18
1.59086e-18
2.13275e-18
3.44778e-18
2.38814e-18
2.53185e-18
2.89875e-18
3.2992e-18
1.98675e-18
2.44292e-18
3.02259e-18
4.30042e-18
1.69887e-18
1.79473e-18
6.52859e-18
5.83314e-18
3.75442e-18
2.04461e-18
2.61627e-18
3.71065e-18
3.54603e-18
1.36614e-18
2.69567e-18
6.86356e-18
5.45617e-18
2.71257e-18
4.15937e-18
3.11933e-18
2.29093e-18
2.9835e-18
2.20439e-18
1.45251e-18
3.70477e-18
5.45561e-18
6.46805e-19
3.50604e-18
6.05392e-18
2.89601e-18
1.79194e-18
3.7026e-18
1.65295e-18
3.7609e-18
5.1792e-18
2.54448e-18
1.53608e-18
3.08455e-18
4.83646e-18
2.31669e-18
3.20277e-18
2.17611e-18
6.48805e-18
1.08457e-18
2.80852e-18
3.48865e-18
1.75502e-18
2.27165e-18
2.4474e-18
2.57611e-18
3.18512e-18
1.80792e-18
1.67255e-18
2.88139e-18
2.47938e-18
1.5322e-18
4.69877e-18
4.50966e-18
6.26856e-18
5.51624e-18
3.43794e-18
1.49225e-18
2.53116e-18
2.38972e-18
3.5421e-18
2.16186e-18
2.19328e-18
2.09634e-18
4.40097e-18
3.74583e-18
2.75147e-18
2.88014e-18
2.85147e-18
6.68811e-18
6.62675e-18
1.86587e-18
2.33144e-18
2.75303e-18
3.92204e-18
4.90662e-18
3.46303e-18
6.40235e-18
4.3795e-18
1.87393e-18
3.22441e-18
2.51773e-18
3.07586e-18
2.79732e-18
1.69384e-18
3.47571e-18
2.36265e-18
1.34818e-18
5.5828e-18
3.15339e-18
1.8612e-18
4.0961e-18
5.51217e-18
3.41089e-18
3.51657e-18
2.91125e-18
1.37387e-18
1.79194e-18
1.62755e-18
2.02504e-18
2.24058e-18
2.35142e-18
3.14405e-18
3.7197e-18
5.59693e-18
5.28463e-18
2.59907e-18
2.56507e-18
2.59039e-18
2.38772e-18
2.7268e-18
2.49486e-18
1.8354e-18
2.79956e-18
1.94044e-18
1.66743e-18
8.18368e-19
5.11282e-18
6.36038e-18
3.53247e-18
1.28613e-18
5.56576e-18
1.9803e-18
1.21305e-18
1.71556e-18
2.69956e-18
3.58188e-18
3.023e-18
3.76807e-18
4.02565e-18
1.71196e-18
2.83259e-18
2.06865e-18
1.73115e-18
1.18475e-18
5.01634e-18
1.33279e-18
1.41415e-18
2.26421e-18
2.4677e-18
3.75638e-18
2.06171e-18
3.37348e-18
1.73351e-18
3.18571e-18
2.8068e-18
3.75829e-18
2.75236e-18
2.2176e-18
1.85675e-18
2.92004e-18
4.33831e-18
2.14701e-18
2.99544e-18
2.90209e-18
2.99866e-18
2.47026e-18
1.23915e-18
5.22872e-18
2.3665e-18
2.48257e-18
2.82093e-18
2.07183e-18
2.59989e-18
1.91479e-18
1.68442e-18
2.28972e-18
1.33646e-18
7.13823e-19
2.25604e-18
1.78464e-18
1.9144e-18
1.10098e-18
2.5907e-18
8.5322e-18
1.89254e-17
1.81072e-17
1.03941e-17
9.0316e-18
3.77896e-18
3.86822e-18
2.88231e-17
1.17994e-16
7.58031e-17
2.53317e-17
9.51867e-18
4.65887e-18
2.64257e-18
2.11234e-18
4.16694e-18
1.18927e-17
1.21712e-17
6.45073e-18
3.0494e-18
2.38709e-18
2.45368e-18
2.07335e-18
1.38777e-18
1.4293e-18
1.68168e-18
1.39894e-18
1.42384e-18
2.36488e-18
3.1827e-18
1.91451e-18
9.42611e-19
4.14425e-19
4.35855e-19
6.45838e-19
1.30803e-18
2.13225e-18
2.87326e-18
1.45294e-18
2.45396e-18
1.85213e-18
1.9069e-18
2.06974e-18
5.55136e-18
6.27873e-18
1.57763e-18
1.56177e-18
2.20921e-18
2.51271e-18
1.23334e-18
1.58547e-18
1.13572e-18
9.41491e-19
1.93413e-18
2.0112e-18
7.56552e-19
3.07875e-18
7.48528e-18
3.13842e-17
1.52128e-16
1.0795e-16
2.7597e-17
8.69583e-18
4.98882e-18
3.59062e-18
2.57844e-18
2.52653e-18
1.36181e-18
1.23116e-18
5.07945e-18
1.82796e-17
9.59777e-18
1.70532e-18
7.26283e-19
9.04168e-19
2.01554e-18
3.17968e-18
9.21341e-19
7.50739e-19
4.50996e-18
1.08648e-17
3.31638e-18
2.69331e-18
3.69636e-18
1.80052e-18
9.97976e-19
9.60912e-19
2.58207e-18
5.15137e-18
3.48321e-18
2.03105e-18
2.23777e-18
3.09523e-18
5.05678e-18
7.84009e-18
6.51118e-18
3.25754e-18
1.6224e-18
9.81785e-19
9.00946e-19
1.00648e-18
4.85073e-19
6.62599e-19
1.0935e-18
1.24483e-18
4.54611e-19
9.23589e-19
1.5794e-18
1.21296e-18
2.0722e-18
2.52251e-17
1.89489e-16
2.27241e-16
7.10421e-17
2.32489e-17
1.05395e-17
4.66627e-18
2.3141e-18
1.64991e-18
1.44735e-18
1.37634e-18
1.31722e-18
1.18171e-18
1.67103e-18
3.62382e-18
5.79593e-18
5.54125e-18
2.14281e-18
6.62647e-19
6.14601e-19
7.1082e-19
5.94625e-19
5.84128e-19
2.47372e-18
2.66862e-17
5.26983e-17
2.00429e-17
7.52998e-18
5.59606e-18
5.31635e-18
3.60288e-18
2.30688e-18
2.23659e-18
2.13822e-18
1.99403e-18
2.35694e-18
2.31946e-18
1.89293e-18
2.23171e-18
2.69681e-18
1.66626e-18
1.25844e-18
2.21466e-18
2.59726e-18
2.25542e-18
2.45715e-18
3.07344e-18
3.52925e-18
4.7585e-18
3.70689e-18
2.84902e-18
1.75344e-18
1.30932e-18
1.2155e-18
1.78938e-18
2.12457e-18
1.50844e-18
1.25244e-18
1.36665e-18
1.37017e-18
1.31628e-18
1.25894e-18
1.48151e-18
1.6024e-18
1.92947e-18
4.35815e-18
4.29979e-18
3.91193e-18
4.90934e-18
2.45818e-18
1.22084e-18
1.28466e-18
1.11011e-18
1.44602e-18
1.29147e-18
1.82126e-18
1.35079e-18
1.55003e-18
2.29077e-18
1.34259e-18
1.72269e-18
3.51373e-18
8.36133e-19
3.65808e-18
2.2361e-18
9.49558e-19
2.50103e-18
1.91481e-18
1.39133e-18
1.77492e-18
3.14296e-18
1.53063e-18
2.36935e-18
3.45788e-18
2.11868e-18
1.67437e-18
5.4743e-18
1.63947e-18
3.93294e-18
1.99506e-18
5.56412e-18
1.09518e-18
8.5347e-19
2.8321e-18
1.05939e-18
3.74665e-18
1.13513e-18
2.33692e-18
3.87482e-18
1.61756e-18
4.04071e-18
6.29747e-18
3.46034e-18
2.19976e-18
4.27496e-18
7.07192e-18
3.30092e-18
6.63971e-18
4.38248e-18
2.22504e-18
4.2431e-18
2.59834e-18
2.86253e-18
1.87266e-18
1.40692e-18
1.53033e-18
2.08523e-18
2.52953e-18
2.77786e-18
6.62914e-18
2.81635e-18
2.42411e-18
3.45138e-18
3.30404e-18
3.64737e-18
1.42343e-18
2.14317e-18
2.80351e-18
1.83653e-18
1.85248e-18
2.29137e-18
2.91809e-18
2.83816e-18
2.85883e-18
2.64083e-18
7.08275e-18
1.92556e-18
1.58278e-18
1.67199e-18
3.43967e-18
6.57589e-18
2.85801e-18
1.72162e-18
1.82749e-18
2.45764e-18
3.18034e-18
3.41481e-18
5.74215e-18
4.419e-18
6.67069e-18
1.99764e-18
2.10393e-18
2.49273e-18
4.37313e-18
1.61101e-18
1.91098e-18
4.33912e-18
1.68189e-18
1.48585e-18
9.91001e-19
2.35072e-18
1.08192e-18
3.49096e-18
3.02722e-18
1.10427e-18
1.6665e-18
2.93547e-18
3.02066e-18
3.72325e-18
5.90216e-18
2.93196e-18
3.83325e-18
4.20398e-18
4.19343e-18
1.74728e-18
3.06803e-18
2.11908e-18
3.82625e-18
4.23525e-18
2.04955e-18
1.54731e-18
3.63218e-18
2.07501e-18
1.22403e-18
2.25423e-18
1.12723e-18
9.50199e-19
1.88775e-18
2.291e-18
2.35085e-18
1.81172e-18
1.75923e-18
3.03653e-18
1.83822e-18
2.64628e-18
4.0108e-18
2.97039e-18
2.7365e-18
1.72992e-18
2.47143e-18
3.96992e-18
2.24059e-18
2.41608e-18
1.96287e-18
1.31504e-18
2.35941e-18
1.97635e-18
2.35583e-18
3.04677e-18
2.94278e-18
2.40828e-18
1.67525e-18
1.74709e-18
2.19751e-18
1.86262e-18
1.61756e-18
1.6986e-18
1.44178e-18
2.05401e-18
2.25615e-18
1.45612e-18
1.86794e-18
3.88756e-18
4.18135e-18
2.36816e-18
2.20441e-18
1.90503e-18
2.33619e-18
2.67149e-18
1.8996e-18
1.98422e-18
3.49331e-18
6.82327e-18
2.98491e-18
2.82477e-18
3.97757e-18
2.41054e-18
2.29532e-18
2.42421e-18
2.07712e-18
1.76954e-18
2.93786e-18
1.90975e-18
2.24852e-18
5.50066e-18
5.20163e-18
1.52381e-18
2.70851e-18
2.498e-18
1.95084e-18
1.81572e-18
1.31863e-18
2.75848e-18
2.64076e-18
2.47268e-18
2.26276e-18
2.2555e-18
2.16925e-18
1.9655e-18
3.20391e-18
5.11991e-18
4.36798e-18
3.82333e-18
2.76605e-18
1.64608e-18
8.07148e-19
1.76617e-18
3.42999e-18
3.05708e-18
1.58269e-18
1.7275e-18
1.40705e-18
9.55269e-19
1.22611e-18
1.81686e-18
1.4491e-18
1.78231e-18
2.3691e-18
5.22603e-18
1.64875e-17
9.53715e-17
6.6243e-17
2.14777e-17
5.45903e-18
4.50307e-18
5.08114e-18
1.10951e-17
2.24828e-17
1.78837e-17
9.16473e-18
5.10945e-18
3.30191e-18
2.29684e-18
2.02388e-18
2.6255e-18
4.11722e-18
4.40464e-18
3.08348e-18
1.96594e-18
1.60049e-18
1.72254e-18
1.5391e-18
1.08163e-18
9.54633e-19
1.1392e-18
1.14231e-18
1.05936e-18
1.34502e-18
1.7475e-18
1.43672e-18
7.79683e-19
5.47508e-19
6.82481e-19
1.04762e-18
1.65039e-18
2.07106e-18
2.32214e-18
1.56961e-18
1.49077e-18
2.47501e-18
1.86595e-18
1.23273e-18
2.03293e-18
3.16516e-18
1.4299e-18
1.41367e-18
2.18732e-18
1.40341e-18
1.01268e-18
1.17115e-18
2.20484e-18
2.77498e-18
1.84679e-18
1.94711e-18
1.11531e-18
2.24562e-18
5.02021e-18
3.53587e-17
2.41194e-16
1.9977e-16
3.3923e-17
6.41291e-18
3.40764e-18
2.69266e-18
2.32217e-18
1.86923e-18
1.52893e-18
1.23651e-18
1.67692e-18
3.70849e-18
4.20818e-18
1.75941e-18
8.79473e-19
9.71139e-19
1.35973e-18
1.96013e-18
1.55179e-18
1.06839e-18
1.80995e-18
3.72088e-18
2.87217e-18
1.57005e-18
2.20774e-18
3.07196e-18
2.34229e-18
1.87354e-18
1.61054e-18
2.80359e-18
4.782e-18
3.29104e-18
3.30745e-18
4.34546e-18
5.69785e-18
5.24769e-18
3.32413e-18
1.52572e-18
1.08052e-18
1.08644e-18
1.0106e-18
1.07874e-18
1.12118e-18
1.18486e-18
8.79161e-19
5.1053e-19
3.96491e-19
1.49135e-18
6.51651e-18
5.40917e-18
3.67242e-18
3.24211e-17
1.24723e-16
1.0231e-16
3.07749e-17
1.17641e-17
5.04354e-18
2.40907e-18
1.56887e-18
1.36402e-18
1.37671e-18
1.27477e-18
1.19123e-18
1.3311e-18
1.60438e-18
1.94384e-18
2.44166e-18
2.79514e-18
1.63545e-18
8.28138e-19
8.54839e-19
1.21239e-18
1.07456e-18
8.87302e-19
2.47159e-18
1.44178e-17
2.79006e-17
1.19372e-17
5.20571e-18
2.79451e-18
2.30306e-18
2.0965e-18
1.7362e-18
1.57507e-18
1.88365e-18
1.83357e-18
1.43721e-18
1.26252e-18
1.12701e-18
1.11984e-18
1.34665e-18
1.50453e-18
1.35819e-18
1.50345e-18
1.57402e-18
1.68121e-18
2.19052e-18
2.57922e-18
2.54829e-18
3.32802e-18
3.93429e-18
2.44178e-18
1.24069e-18
1.16263e-18
1.49902e-18
2.1532e-18
2.86974e-18
2.01649e-18
1.30138e-18
1.40181e-18
1.957e-18
1.73901e-18
9.70525e-19
9.34418e-19
1.4126e-18
2.45818e-18
3.07539e-18
3.35106e-18
1.81142e-18
1.42074e-18
1.80765e-18
1.4183e-18
1.16839e-18
1.44741e-18
2.11971e-18
2.1243e-18
2.1257e-18
2.53339e-18
2.29223e-18
2.00445e-18
1.31802e-18
1.08835e-18
1.78507e-18
1.22815e-18
1.40384e-18
1.98185e-18
2.56704e-18
1.6764e-18
1.11602e-18
2.01127e-18
2.34482e-18
2.56981e-18
2.06627e-18
1.27177e-18
2.81034e-18
2.90096e-18
2.098e-18
3.09496e-18
2.9321e-18
1.75542e-18
4.27201e-18
4.03679e-18
2.6753e-18
5.08512e-18
4.49379e-18
4.71786e-18
5.21607e-18
5.6251e-18
5.22621e-18
3.61546e-18
5.54116e-18
3.63578e-18
4.9536e-18
2.22408e-18
2.49816e-18
2.63747e-18
2.11096e-18
6.41607e-18
3.69053e-18
5.08099e-18
4.21272e-18
3.34423e-18
3.45846e-18
1.85079e-18
6.69082e-18
1.82406e-18
3.16539e-18
6.05166e-18
1.50755e-18
2.11737e-18
3.39973e-18
2.00119e-18
7.74026e-19
1.52655e-18
2.03003e-18
3.13587e-18
4.00268e-18
4.70728e-18
3.20156e-18
3.78624e-18
9.51534e-19
2.28247e-18
6.15939e-18
6.15537e-18
3.60389e-18
3.10114e-18
3.41499e-18
4.27209e-18
2.92756e-18
3.02841e-18
2.08708e-18
2.63988e-18
2.06536e-18
5.47724e-18
4.062e-18
1.16696e-18
3.51764e-18
2.83557e-18
1.96741e-18
1.78023e-18
2.67067e-18
2.38731e-18
4.1725e-18
2.95386e-18
5.33612e-18
2.54349e-18
2.00603e-18
2.43535e-18
2.84493e-18
2.73836e-18
2.45398e-18
3.55317e-18
3.47616e-18
1.04469e-18
1.35494e-18
1.97833e-18
3.80473e-18
6.43471e-18
4.35622e-18
1.911e-18
3.72562e-18
2.40707e-18
9.83492e-19
4.62928e-18
3.70092e-18
2.53623e-18
2.08955e-18
4.99277e-18
5.35555e-18
4.805e-18
5.60165e-18
2.66395e-18
5.61875e-18
1.92553e-18
3.65243e-18
2.64405e-18
2.3456e-18
1.77474e-18
3.9519e-18
1.60532e-18
1.66686e-18
2.72606e-18
5.13364e-18
2.51193e-18
3.21984e-18
3.50428e-18
2.72642e-18
4.00372e-18
4.44204e-18
3.20895e-18
2.54483e-18
2.76875e-18
3.02007e-18
1.90572e-18
3.48651e-18
2.55075e-18
1.76207e-18
2.0319e-18
2.89725e-18
3.05511e-18
4.23324e-18
4.10273e-18
2.18637e-18
2.10472e-18
2.07747e-18
2.95205e-18
1.29537e-18
2.85644e-18
3.4606e-18
3.6209e-18
2.17971e-18
1.75949e-18
2.27176e-18
2.04037e-18
3.13117e-18
2.36169e-18
2.45276e-18
2.62295e-18
1.50889e-18
2.35732e-18
2.30514e-18
1.99818e-18
2.21598e-18
3.36883e-18
1.17048e-18
1.94777e-18
3.32176e-18
3.36263e-18
4.077e-18
2.69964e-18
1.81162e-18
1.44009e-18
3.65694e-18
2.08892e-18
2.1674e-18
1.54875e-18
1.59432e-18
2.18066e-18
2.23369e-18
3.80432e-18
3.47807e-18
1.70967e-18
2.51615e-18
2.76576e-18
3.03026e-18
3.31758e-18
2.86399e-18
1.64644e-18
2.00846e-18
2.8949e-18
4.4524e-18
4.98298e-18
5.84617e-18
3.56245e-18
1.69812e-18
2.18262e-18
3.26366e-18
2.56733e-18
2.61133e-18
2.56531e-18
1.48757e-18
1.29611e-18
1.99533e-18
2.10016e-18
8.70394e-19
8.1876e-19
1.70155e-18
2.08719e-18
2.91657e-18
4.9796e-18
2.46442e-17
1.76384e-16
1.37332e-16
2.7338e-17
5.67368e-18
4.15265e-18
4.96963e-18
6.18441e-18
6.13963e-18
4.85105e-18
3.78186e-18
3.22373e-18
2.9643e-18
2.46799e-18
1.96543e-18
1.54378e-18
1.88789e-18
2.57557e-18
2.69057e-18
2.29519e-18
1.91656e-18
1.84254e-18
1.73839e-18
1.28223e-18
1.05769e-18
1.37753e-18
1.74475e-18
1.69344e-18
1.47559e-18
1.27777e-18
1.0821e-18
8.8992e-19
8.32484e-19
1.09775e-18
1.62403e-18
2.00443e-18
2.28796e-18
2.23451e-18
1.97818e-18
1.48725e-18
1.2768e-18
1.23808e-18
1.08204e-18
1.30373e-18
1.55403e-18
9.4948e-19
8.35174e-19
1.01196e-18
1.04848e-18
1.22682e-18
1.45791e-18
1.10346e-18
1.13812e-18
1.17163e-18
9.67024e-19
1.29795e-18
1.84456e-18
4.55866e-18
2.91462e-17
1.83402e-16
2.35347e-16
3.83446e-17
6.86866e-18
2.90091e-18
1.93676e-18
1.90963e-18
1.71061e-18
1.45613e-18
1.49435e-18
1.84821e-18
2.78914e-18
3.53826e-18
2.35688e-18
1.32889e-18
1.06727e-18
1.30401e-18
1.97346e-18
2.20554e-18
1.78515e-18
1.20735e-18
1.50312e-18
2.83434e-18
3.44178e-18
4.76581e-18
6.31703e-18
4.00516e-18
1.33543e-18
7.41757e-19
1.12378e-18
3.05387e-18
4.50716e-18
3.62855e-18
3.35364e-18
3.41557e-18
2.7009e-18
1.94222e-18
1.57385e-18
1.58197e-18
1.44159e-18
1.08091e-18
9.70511e-19
1.3691e-18
1.74074e-18
9.89346e-19
5.16997e-19
4.7525e-19
2.14628e-18
1.64763e-17
1.85567e-17
1.071e-17
4.66877e-18
8.3436e-18
1.21151e-17
8.30073e-18
4.33956e-18
2.12357e-18
1.44378e-18
1.43679e-18
1.59347e-18
1.6846e-18
1.64077e-18
1.50149e-18
1.56123e-18
1.80992e-18
1.78026e-18
1.65011e-18
1.76329e-18
1.76931e-18
1.46472e-18
1.34549e-18
1.23415e-18
1.08343e-18
1.16968e-18
2.37081e-18
6.23799e-18
8.55551e-18
6.28187e-18
3.24396e-18
1.87898e-18
1.48735e-18
1.32087e-18
1.35246e-18
1.57738e-18
1.72209e-18
1.70903e-18
1.68639e-18
1.62924e-18
1.77501e-18
2.28603e-18
2.50095e-18
2.83107e-18
3.17356e-18
2.363e-18
1.54067e-18
1.48518e-18
1.49619e-18
1.62896e-18
2.34476e-18
3.44554e-18
3.08023e-18
1.82365e-18
1.31307e-18
1.12708e-18
1.13592e-18
1.20098e-18
1.23286e-18
1.50117e-18
1.57202e-18
1.67825e-18
1.66415e-18
1.61588e-18
1.7689e-18
2.25868e-18
2.13602e-18
1.94687e-18
2.14252e-18
1.83281e-18
2.30912e-18
1.74288e-18
1.38571e-18
1.37416e-18
1.23883e-18
1.39906e-18
1.70774e-18
1.33975e-18
1.42462e-18
1.41148e-18
1.7079e-18
2.25677e-18
1.42015e-18
8.27829e-19
1.26257e-18
2.21586e-18
2.33108e-18
8.11647e-19
2.45861e-18
3.82798e-18
2.33357e-18
1.30484e-18
1.45141e-18
2.40853e-18
1.37666e-18
2.90068e-18
2.14493e-18
1.34526e-18
9.91057e-19
1.86808e-18
1.6246e-18
1.60333e-18
1.60894e-18
2.60179e-18
4.32024e-18
5.33646e-18
3.77696e-18
3.97961e-18
5.15449e-18
2.91707e-18
2.59572e-18
2.45126e-18
1.57658e-18
3.61628e-18
3.03587e-18
1.62537e-18
1.84226e-18
6.06926e-19
4.81336e-18
7.8562e-18
2.10766e-18
1.40127e-18
4.35145e-18
4.10675e-18
5.89185e-18
6.99395e-18
2.33894e-18
1.9382e-18
1.25377e-18
2.07529e-18
2.14639e-18
1.12834e-18
3.56939e-18
5.55636e-18
2.84695e-18
4.13436e-18
3.31282e-18
1.58881e-18
2.69724e-18
4.69228e-18
3.20003e-18
1.32941e-18
2.14812e-18
3.04112e-18
5.00798e-18
3.5906e-18
2.31975e-18
4.46851e-18
2.35949e-18
1.76619e-18
1.99228e-18
3.08617e-18
2.19787e-18
4.03551e-18
7.5981e-18
3.1063e-18
3.37683e-18
3.39787e-18
2.67556e-18
1.89234e-18
2.79825e-18
3.31123e-18
1.83482e-18
2.93886e-18
3.04011e-18
1.68564e-18
2.40504e-18
2.41998e-18
2.59991e-18
1.6107e-18
1.76954e-18
3.8815e-18
3.19284e-18
3.78634e-18
2.36382e-18
3.13977e-18
1.59501e-18
1.64045e-18
3.23846e-18
2.90131e-18
4.42913e-18
4.91107e-18
2.68732e-18
3.18465e-18
3.09255e-18
6.42033e-18
1.76784e-18
2.11463e-18
2.70738e-18
2.27195e-18
2.9778e-18
4.13446e-18
2.56851e-18
2.61191e-18
2.63436e-18
2.75091e-18
2.31285e-18
1.97295e-18
2.65603e-18
2.62494e-18
2.19344e-18
3.59628e-18
3.5161e-18
2.34139e-18
1.9109e-18
4.26472e-18
5.44562e-18
3.69707e-18
1.63518e-18
3.81123e-18
3.16278e-18
3.85019e-18
3.48333e-18
2.1583e-18
2.54966e-18
2.70444e-18
2.13731e-18
2.28665e-18
4.33248e-18
6.20504e-18
4.39524e-18
1.41927e-18
1.67098e-18
4.64274e-18
3.12655e-18
2.18792e-18
3.00289e-18
2.36555e-18
2.54502e-18
2.66871e-18
4.58584e-18
3.24937e-18
1.68427e-18
1.72759e-18
2.19392e-18
2.65361e-18
2.20906e-18
3.72362e-18
4.00632e-18
3.4565e-18
2.13261e-18
2.09092e-18
1.35898e-18
1.724e-18
3.17547e-18
3.2662e-18
3.20677e-18
2.75878e-18
3.87408e-18
2.21842e-18
2.58135e-18
3.03479e-18
1.83739e-18
1.61257e-18
2.39628e-18
2.1113e-18
1.83612e-18
2.19161e-18
2.91849e-18
3.83659e-18
3.66061e-18
3.7766e-18
3.2406e-18
1.54245e-18
1.26497e-18
2.55643e-18
4.04725e-18
4.56582e-18
4.48224e-18
2.72576e-18
1.62589e-18
2.47112e-18
5.41096e-18
5.37858e-18
3.25645e-18
2.76018e-18
1.59213e-18
1.80112e-18
1.88814e-18
1.58379e-18
2.36442e-18
2.30526e-18
1.98019e-18
1.89563e-18
1.78568e-18
1.87866e-18
2.39885e-18
2.58864e-18
1.67629e-18
1.16759e-18
1.38658e-18
6.40602e-18
4.9189e-17
2.41632e-16
1.39777e-16
2.55095e-17
5.01093e-18
2.7568e-18
2.60228e-18
3.15075e-18
2.90611e-18
2.12751e-18
1.7305e-18
1.85527e-18
2.52072e-18
3.52696e-18
3.29504e-18
2.84134e-18
2.22594e-18
2.27041e-18
2.61569e-18
2.59325e-18
2.10257e-18
1.75069e-18
1.63365e-18
1.71207e-18
2.05775e-18
2.87511e-18
3.31097e-18
2.89329e-18
2.0827e-18
1.51113e-18
1.28618e-18
1.3201e-18
1.46748e-18
1.80698e-18
2.13938e-18
1.98726e-18
1.881e-18
1.87369e-18
1.62277e-18
1.24689e-18
1.20216e-18
1.31085e-18
1.53331e-18
1.49878e-18
1.88194e-18
1.85391e-18
1.17309e-18
1.21461e-18
1.88396e-18
1.74163e-18
1.15198e-18
8.37913e-19
7.63169e-19
1.44389e-18
2.47816e-18
2.59716e-18
2.61089e-18
5.45712e-18
3.22628e-17
1.22228e-16
9.57546e-17
2.60293e-17
5.97916e-18
2.69632e-18
1.48754e-18
1.24917e-18
1.27439e-18
1.30335e-18
1.43886e-18
1.81647e-18
2.27699e-18
2.64602e-18
2.54759e-18
1.94052e-18
1.35251e-18
1.09243e-18
1.15843e-18
1.64273e-18
2.15919e-18
1.79283e-18
1.80288e-18
4.73617e-18
1.15658e-17
8.91235e-18
5.04787e-18
2.78148e-18
1.32024e-18
8.99652e-19
1.39477e-18
3.13435e-18
5.60407e-18
5.1936e-18
3.17879e-18
2.47111e-18
1.73916e-18
1.44428e-18
1.44329e-18
1.42684e-18
1.19627e-18
1.16175e-18
1.76749e-18
2.28996e-18
1.75653e-18
1.0435e-18
7.03368e-19
5.44156e-19
1.4052e-18
1.45735e-17
7.93876e-17
3.6796e-17
8.32273e-18
7.21045e-18
6.23311e-18
4.45642e-18
3.76418e-18
2.4475e-18
1.97208e-18
2.0574e-18
2.19606e-18
2.07837e-18
1.703e-18
1.25717e-18
1.03844e-18
1.17406e-18
1.5391e-18
2.00864e-18
2.8054e-18
3.57513e-18
3.27356e-18
2.29665e-18
1.79694e-18
1.82144e-18
2.19928e-18
3.39835e-18
6.57943e-18
1.01676e-17
6.86974e-18
4.0797e-18
2.34554e-18
1.52009e-18
1.31173e-18
1.43878e-18
2.05469e-18
2.71367e-18
2.73136e-18
1.98618e-18
1.98655e-18
2.704e-18
2.49982e-18
1.70885e-18
1.56008e-18
2.01867e-18
2.18336e-18
1.61648e-18
1.28564e-18
1.62651e-18
2.35477e-18
2.77774e-18
2.93235e-18
1.93207e-18
1.32405e-18
1.21204e-18
1.15938e-18
1.02699e-18
1.10973e-18
1.52662e-18
1.87832e-18
2.03126e-18
1.65285e-18
1.5307e-18
1.70304e-18
1.91074e-18
1.76738e-18
1.78126e-18
1.7908e-18
1.81228e-18
2.20363e-18
2.76108e-18
3.72642e-18
4.33833e-18
4.33355e-18
2.42046e-18
1.88404e-18
1.49085e-18
1.2652e-18
1.34349e-18
1.6068e-18
1.41183e-18
6.6575e-19
6.54411e-19
1.46771e-18
1.31516e-18
1.48649e-18
2.14114e-18
2.44846e-18
2.07652e-18
2.86095e-18
2.84136e-18
1.32416e-18
1.2164e-18
1.74004e-18
3.44525e-18
2.59175e-18
1.85356e-18
2.44641e-18
2.34974e-18
3.13001e-18
1.42745e-18
8.14851e-19
1.96565e-18
2.16246e-18
3.08827e-18
8.19854e-19
4.40811e-18
1.45621e-18
1.24695e-18
5.05852e-18
3.45164e-18
2.07699e-18
3.15741e-18
1.43893e-18
1.7066e-18
8.93447e-19
1.99221e-18
3.72903e-18
1.82952e-18
5.11069e-18
4.43626e-18
4.8116e-18
6.77953e-18
2.07677e-18
2.34136e-18
3.01374e-18
4.761e-18
4.18523e-18
5.08412e-18
2.53595e-18
1.22932e-18
2.02028e-18
2.12382e-18
9.44656e-19
2.28728e-18
1.61724e-18
7.30995e-18
2.94112e-18
2.69187e-18
3.1456e-18
3.13232e-18
4.55515e-18
2.14354e-18
2.14702e-18
2.91026e-18
4.02809e-18
4.06039e-18
2.47399e-18
2.8983e-18
1.84965e-18
2.03193e-18
2.96253e-18
2.93678e-18
2.4995e-18
2.69481e-18
3.46304e-18
6.98719e-18
4.27721e-18
2.01161e-18
3.15622e-18
3.63856e-18
2.19999e-18
3.07022e-18
3.48988e-18
2.70253e-18
2.00131e-18
2.71305e-18
2.33947e-18
1.77104e-18
3.90087e-18
2.25954e-18
3.03988e-18
6.62043e-18
4.26051e-18
2.72347e-18
3.77044e-18
6.005e-18
3.07791e-18
4.08759e-18
4.30572e-18
2.2546e-18
2.70977e-18
5.62025e-18
3.66633e-18
2.53831e-18
2.06467e-18
2.0554e-18
3.25675e-18
3.52208e-18
2.44708e-18
2.42089e-18
3.71319e-18
4.27001e-18
3.70953e-18
6.02426e-18
4.99833e-18
3.23125e-18
1.85241e-18
3.02126e-18
5.16614e-18
2.86389e-18
2.1883e-18
2.78887e-18
1.39495e-18
1.57644e-18
3.03087e-18
1.59978e-18
1.83714e-18
2.43975e-18
3.69658e-18
3.93933e-18
2.29545e-18
1.7993e-18
1.44978e-18
2.46587e-18
3.98539e-18
4.2138e-18
2.58865e-18
1.56604e-18
1.65346e-18
2.81476e-18
2.36276e-18
1.55125e-18
1.49113e-18
1.58366e-18
3.81888e-18
4.09037e-18
2.79776e-18
4.72714e-18
2.76387e-18
4.48714e-18
4.26896e-18
3.05831e-18
3.52843e-18
3.30256e-18
3.14281e-18
3.20553e-18
3.80964e-18
5.03925e-18
2.87577e-18
1.667e-18
2.03849e-18
3.45429e-18
1.92717e-18
1.94019e-18
1.8491e-18
2.15901e-18
2.07378e-18
2.06667e-18
3.05201e-18
3.95439e-18
2.46693e-18
2.00513e-18
3.06627e-18
3.62498e-18
2.9131e-18
1.69925e-18
1.83886e-18
2.0641e-18
3.08005e-18
2.43714e-18
2.78987e-18
1.9964e-18
1.67733e-18
2.47105e-18
2.87197e-18
4.53914e-18
5.4618e-18
4.92374e-18
3.23458e-18
3.64921e-18
3.5128e-18
3.26861e-18
2.85409e-18
2.14598e-18
1.26556e-18
1.22678e-18
1.17127e-18
1.07132e-18
2.02988e-18
2.96416e-18
2.42996e-18
1.6462e-18
2.23496e-18
2.14853e-18
2.29981e-18
3.44273e-18
2.82009e-18
1.49999e-18
1.49513e-18
2.55591e-18
1.06185e-17
1.05901e-16
2.06972e-16
1.55468e-16
2.44497e-17
4.58222e-18
2.68871e-18
2.28352e-18
2.67472e-18
2.68912e-18
2.28354e-18
1.8752e-18
1.8149e-18
2.26997e-18
3.20265e-18
4.28902e-18
4.33082e-18
3.7398e-18
2.92567e-18
2.36105e-18
2.3172e-18
2.0582e-18
1.62114e-18
1.54113e-18
1.84921e-18
2.20457e-18
2.42241e-18
2.69338e-18
2.77844e-18
2.45449e-18
1.96523e-18
1.76536e-18
1.7945e-18
2.01664e-18
2.2309e-18
2.02514e-18
1.41656e-18
1.02379e-18
9.70878e-19
1.20359e-18
1.29461e-18
1.24844e-18
1.1974e-18
1.37528e-18
1.73092e-18
2.13651e-18
1.75268e-18
9.59333e-19
1.06345e-18
2.22256e-18
2.69203e-18
1.64402e-18
9.9551e-19
9.38935e-19
1.39523e-18
2.61058e-18
2.77328e-18
2.4989e-18
5.36747e-18
2.34565e-17
4.59203e-17
3.47812e-17
1.27576e-17
6.72043e-18
3.75416e-18
2.23133e-18
1.46802e-18
1.21446e-18
1.32181e-18
1.69798e-18
2.06472e-18
2.24819e-18
2.18439e-18
1.95303e-18
1.64142e-18
1.29111e-18
1.21527e-18
1.72373e-18
2.69465e-18
3.35167e-18
2.77642e-18
2.963e-18
6.33246e-18
1.52706e-17
1.30448e-17
5.00862e-18
2.0517e-18
1.37542e-18
1.222e-18
1.40972e-18
2.3166e-18
4.0389e-18
5.12154e-18
3.20274e-18
2.08056e-18
1.61668e-18
1.75393e-18
2.01671e-18
2.2825e-18
2.17022e-18
2.01129e-18
2.02423e-18
1.88085e-18
1.56077e-18
1.44572e-18
1.41593e-18
1.13853e-18
1.32919e-18
7.44071e-18
4.82415e-17
6.18923e-17
1.05339e-17
5.69322e-18
3.98164e-18
3.39203e-18
2.83751e-18
2.29319e-18
1.92957e-18
1.8736e-18
2.27799e-18
2.24804e-18
1.80108e-18
1.42962e-18
1.21377e-18
1.15288e-18
1.58201e-18
2.55038e-18
3.72093e-18
4.9969e-18
5.80669e-18
3.85015e-18
2.08344e-18
1.33693e-18
1.28516e-18
1.55848e-18
2.45064e-18
3.27462e-18
3.2821e-18
2.37092e-18
1.76618e-18
1.48077e-18
1.44927e-18
1.76112e-18
2.04299e-18
1.88666e-18
2.15554e-18
2.24758e-18
1.72819e-18
1.5826e-18
2.09735e-18
2.19255e-18
1.80898e-18
1.88981e-18
1.97918e-18
1.67532e-18
1.28325e-18
1.33663e-18
1.7021e-18
1.64408e-18
1.50706e-18
1.79176e-18
2.19996e-18
2.1466e-18
1.64877e-18
1.52718e-18
1.78469e-18
2.06218e-18
1.95682e-18
2.52993e-18
3.10934e-18
2.46974e-18
1.97768e-18
1.85668e-18
2.03066e-18
2.08733e-18
1.82176e-18
1.5173e-18
1.9537e-18
2.86038e-18
3.49512e-18
4.20216e-18
3.88492e-18
2.72673e-18
1.4431e-18
1.14954e-18
1.62592e-18
2.47341e-18
1.6458e-18
1.51706e-18
1.63323e-18
1.47569e-18
1.33671e-18
2.17171e-18
1.69768e-18
1.49015e-18
1.94425e-18
2.38875e-18
2.26043e-18
8.95734e-19
1.17403e-18
1.18027e-18
5.61758e-19
9.71542e-19
1.82453e-18
1.56982e-18
2.14583e-18
2.59441e-18
1.43072e-18
2.14705e-18
1.20534e-18
1.49877e-18
5.18247e-18
5.17724e-18
3.25255e-18
2.29047e-18
3.07309e-18
1.96802e-18
2.05615e-18
2.74051e-18
3.75565e-18
4.30779e-18
9.27779e-18
4.1913e-18
3.42937e-18
2.19757e-18
2.58604e-18
1.82788e-18
3.77967e-18
4.85637e-18
3.81811e-18
2.47714e-18
2.715e-18
1.72503e-18
2.68374e-18
2.00619e-18
5.56251e-18
9.14014e-18
2.85656e-18
1.9845e-18
2.14941e-18
4.242e-18
4.81744e-18
2.06481e-18
3.89836e-18
2.41673e-18
5.19159e-18
3.82469e-18
3.97103e-18
1.61326e-18
2.71948e-18
2.15483e-18
5.4481e-18
4.51415e-18
4.34583e-18
2.01582e-18
2.53415e-18
4.35353e-18
4.2027e-18
2.0457e-18
2.11106e-18
3.07034e-18
2.00016e-18
1.60897e-18
2.56685e-18
2.2742e-18
3.95099e-18
5.47195e-18
2.33959e-18
3.29659e-18
4.41316e-18
2.67204e-18
2.42497e-18
3.51757e-18
2.25626e-18
2.11625e-18
1.87476e-18
1.61508e-18
2.48929e-18
4.70693e-18
4.71509e-18
1.64391e-18
1.94562e-18