/*--------------------------------*- C++ -*----------------------------------*\
  =========                 |
  \\      /  F ield         | OpenFOAM: The Open Source CFD Toolbox
   \\    /   O peration     | Website:  https://openfoam.org
    \\  /    A nd           | Version:  7
     \\/     M anipulation  |
\*---------------------------------------------------------------------------*/
FoamFile
{
    version     2.0;
    format      ascii;
    class       volScalarField;
    location    "3500";
    object      mu1;
}
// * * * * * * * * * * * * * * * * * * * * * * * * * * * * * * * * * * * * * //

dimensions      [1 -1 -1 0 0 0 0];

internalField   nonuniform List<scalar> 
160000
(
0.000453346
0.000453106
0.000452884
0.000452674
0.000452473
0.00045229
0.000452122
0.000451973
0.000451841
0.000451718
0.000451608
0.000451516
0.000451437
0.000451371
0.000451321
0.000451286
0.000451264
0.000451256
0.000451261
0.00045128
0.000451312
0.000451357
0.000451415
0.000451487
0.000451569
0.000451665
0.00045178
0.000451906
0.000452042
0.000452187
0.000452342
0.000452512
0.000452703
0.000452904
0.000453106
0.000453323
0.000453559
0.000453807
0.000454057
0.000454318
0.000454598
0.000454885
0.00045519
0.000455504
0.000455831
0.000456177
0.000456524
0.000456869
0.000457232
0.000457611
0.000457999
0.000458412
0.000458838
0.000459262
0.000459697
0.000460133
0.000460588
0.000461052
0.000461506
0.000461974
0.000462485
0.000463011
0.000463519
0.000464029
0.000464541
0.000465085
0.000465653
0.000466228
0.000466797
0.000467339
0.000467922
0.000468529
0.000469131
0.000469743
0.000470357
0.000470991
0.000471635
0.000472279
0.000472937
0.000473609
0.000474292
0.000475007
0.000475717
0.000476414
0.000477128
0.000477862
0.000478597
0.000479322
0.000480052
0.000480816
0.000481573
0.000482338
0.000483151
0.000483968
0.000484768
0.000485544
0.000486334
0.000487146
0.000487965
0.000488779
0.000489609
0.000490437
0.000491274
0.000492147
0.000492999
0.000493866
0.000494735
0.000495611
0.000496526
0.000497441
0.000498368
0.000499264
0.000500162
0.000501083
0.000501985
0.000502909
0.000503838
0.000504776
0.000505759
0.00050676
0.000507747
0.000508711
0.000509678
0.000510671
0.000511672
0.000512701
0.000513747
0.000514754
0.000515755
0.000516786
0.000517803
0.000518793
0.000519808
0.000520904
0.000522004
0.000523049
0.000524081
0.000525127
0.000526164
0.000527169
0.000528214
0.000529335
0.000530405
0.000531462
0.000532609
0.000533743
0.000534842
0.000535948
0.000537048
0.00053813
0.00053921
0.000540316
0.000541414
0.000542539
0.000543668
0.00054479
0.000545941
0.00054711
0.000548279
0.000549438
0.000550597
0.000551761
0.000552929
0.00055412
0.000555275
0.000556409
0.000557597
0.000558757
0.000559907
0.000561059
0.000562229
0.000563444
0.0005646
0.000565759
0.000566951
0.000568087
0.000569227
0.000570389
0.00057159
0.00057283
0.000573998
0.000575177
0.000576391
0.000577563
0.000578758
0.000579994
0.000581265
0.000582557
0.000583857
0.000585206
0.000586596
0.000587929
0.000589194
0.000590449
0.000591724
0.000592874
0.000593967
0.000595222
0.000596696
0.000598197
0.000599529
0.000600734
0.000601877
0.000602961
0.000604025
0.000605153
0.000606391
0.000607679
0.000608892
0.000610033
0.00061117
0.000612323
0.000613467
0.000614585
0.000615704
0.000616839
0.000617947
0.000619043
0.000620193
0.000621396
0.000622586
0.000623731
0.000624805
0.000625845
0.000626902
0.000627994
0.000629131
0.000630247
0.00063136
0.000632506
0.000633589
0.000634664
0.000635773
0.000636898
0.000638022
0.000639126
0.000640208
0.000641287
0.000642351
0.000643402
0.000644459
0.00064548
0.0006465
0.000647525
0.000648553
0.000649611
0.000650729
0.000651935
0.000653294
0.000654808
0.000656279
0.000657556
0.000658644
0.000659649
0.000660615
0.000661578
0.000662541
0.000663455
0.000664354
0.00066536
0.000666541
0.000667696
0.000668689
0.000669598
0.000670503
0.000671466
0.000672461
0.000673393
0.00067431
0.000675329
0.000676373
0.000677337
0.000678302
0.000679268
0.000680177
0.000681033
0.00068189
0.000682815
0.000683772
0.00068469
0.000685583
0.000686469
0.000687367
0.00068829
0.000689224
0.000690129
0.000691012
0.000691859
0.000692673
0.000693491
0.00069431
0.00069509
0.000695855
0.000696646
0.000697445
0.000698245
0.000699052
0.000699809
0.000700542
0.000701307
0.00070215
0.000703156
0.000704272
0.00070531
0.000706206
0.000707018
0.000707778
0.000708501
0.000709197
0.000709868
0.000710525
0.000711168
0.00071179
0.000712419
0.000713091
0.000713811
0.000714543
0.000715215
0.000715818
0.000716402
0.000716982
0.000717552
0.000718121
0.000718728
0.000719407
0.000720114
0.000720786
0.00072142
0.00072203
0.000722627
0.000723198
0.000723748
0.000724294
0.000724831
0.000725356
0.000725876
0.000726381
0.000726867
0.000727363
0.000727884
0.000728366
0.000728813
0.000729268
0.000729723
0.000730165
0.000730596
0.000731021
0.000731454
0.000731904
0.000732347
0.000732766
0.00073316
0.000733538
0.000733906
0.000734273
0.000734637
0.000734993
0.000735344
0.000735688
0.00073602
0.000736336
0.000736643
0.000736948
0.000737247
0.000737545
0.000737846
0.000738133
0.000738412
0.000738689
0.000738943
0.000739177
0.000739403
0.000739622
0.00073984
0.00074005
0.00074025
0.000740442
0.000740622
0.000740792
0.000740953
0.00074111
0.000741259
0.000741399
0.000741533
0.000741659
0.000741776
0.000741886
0.000741989
0.000742082
0.000742166
0.000742241
0.000742308
0.000742367
0.000742419
0.00074246
0.000742496
0.000742526
0.000742546
0.00074256
0.000742568
0.000453341
0.000453101
0.000452881
0.000452671
0.000452474
0.000452293
0.000452125
0.000451973
0.000451839
0.000451717
0.000451607
0.000451515
0.000451437
0.000451373
0.000451321
0.000451285
0.000451264
0.000451256
0.000451261
0.000451281
0.000451313
0.000451358
0.000451416
0.000451488
0.00045157
0.000451664
0.000451777
0.000451904
0.00045204
0.000452187
0.000452345
0.000452516
0.000452703
0.000452904
0.000453107
0.000453323
0.000453564
0.000453803
0.000454046
0.000454318
0.000454602
0.000454888
0.00045519
0.000455503
0.000455829
0.000456177
0.000456523
0.000456866
0.000457227
0.000457616
0.000458013
0.000458419
0.000458832
0.000459261
0.000459693
0.000460124
0.000460583
0.000461046
0.000461509
0.000461989
0.000462486
0.000463001
0.000463517
0.000464026
0.000464548
0.000465098
0.000465648
0.000466208
0.000466781
0.000467351
0.00046794
0.000468539
0.000469134
0.000469736
0.000470354
0.000470993
0.000471639
0.000472283
0.000472937
0.000473611
0.000474304
0.000475004
0.000475704
0.000476398
0.000477114
0.000477865
0.000478599
0.000479322
0.00048006
0.000480813
0.000481584
0.000482358
0.000483153
0.000483966
0.000484752
0.000485531
0.000486328
0.000487138
0.000487961
0.000488776
0.000489607
0.000490451
0.000491276
0.000492131
0.000493011
0.000493868
0.000494733
0.00049563
0.000496536
0.000497446
0.000498366
0.000499264
0.000500161
0.000501069
0.000501978
0.000502901
0.000503832
0.000504782
0.000505761
0.000506755
0.000507751
0.000508725
0.000509696
0.000510686
0.000511685
0.000512702
0.000513729
0.000514738
0.000515755
0.000516781
0.000517794
0.000518786
0.00051982
0.000520926
0.00052201
0.000523033
0.000524071
0.000525133
0.000526151
0.000527165
0.000528219
0.000529317
0.000530405
0.000531492
0.000532625
0.000533738
0.000534836
0.000535943
0.000537033
0.000538101
0.00053921
0.00054033
0.000541411
0.00054253
0.000543671
0.000544817
0.000545961
0.000547118
0.000548272
0.000549421
0.000550585
0.00055176
0.000552947
0.000554119
0.000555267
0.000556413
0.000557596
0.00055876
0.000559912
0.000561086
0.000562269
0.000563454
0.000564592
0.000565752
0.000566931
0.000568069
0.000569232
0.000570407
0.000571594
0.000572794
0.000573972
0.000575161
0.00057636
0.000577529
0.000578731
0.000579982
0.000581251
0.000582531
0.000583843
0.00058525
0.000586701
0.000588058
0.000589299
0.000590501
0.000591685
0.000592814
0.000593999
0.000595403
0.000596858
0.000598211
0.000599481
0.000600674
0.000601812
0.000602909
0.000604014
0.000605202
0.000606453
0.000607684
0.000608863
0.000610009
0.000611159
0.000612312
0.000613447
0.000614569
0.000615698
0.000616823
0.000617935
0.000619063
0.000620235
0.000621417
0.000622566
0.000623671
0.000624745
0.000625811
0.000626895
0.000628008
0.000629143
0.000630255
0.000631366
0.000632488
0.000633577
0.000634659
0.000635779
0.000636937
0.000638049
0.000639124
0.000640208
0.000641294
0.000642352
0.000643399
0.000644451
0.000645472
0.000646492
0.000647524
0.000648532
0.000649569
0.000650726
0.000652054
0.000653583
0.000655052
0.000656331
0.000657488
0.000658566
0.000659594
0.000660579
0.00066155
0.000662503
0.000663423
0.000664375
0.000665451
0.000666596
0.000667653
0.000668613
0.000669542
0.000670489
0.00067148
0.000672451
0.000673369
0.000674319
0.000675363
0.000676383
0.000677341
0.000678313
0.000679265
0.00068016
0.000681019
0.000681896
0.000682831
0.000683773
0.00068468
0.000685572
0.00068647
0.000687382
0.000688315
0.000689247
0.000690144
0.000691006
0.000691839
0.000692657
0.00069348
0.000694287
0.000695068
0.000695851
0.000696654
0.000697457
0.000698259
0.000699061
0.000699818
0.000700543
0.000701348
0.000702367
0.000703424
0.000704388
0.000705307
0.00070618
0.000706992
0.000707738
0.000708448
0.000709141
0.000709818
0.000710483
0.000711134
0.000711775
0.00071243
0.00071312
0.000713837
0.000714538
0.000715182
0.000715789
0.000716384
0.000716967
0.000717536
0.000718118
0.000718763
0.00071947
0.000720156
0.000720798
0.000721415
0.000722023
0.000722617
0.000723188
0.000723742
0.000724289
0.000724826
0.000725353
0.000725874
0.000726381
0.000726877
0.000727377
0.000727875
0.000728347
0.000728805
0.000729266
0.00072972
0.000730161
0.000730595
0.000731027
0.000731469
0.000731916
0.000732347
0.000732757
0.000733148
0.000733528
0.000733902
0.000734276
0.000734641
0.000734994
0.000735342
0.000735684
0.000736014
0.000736331
0.000736641
0.000736946
0.000737247
0.00073755
0.000737851
0.000738139
0.000738421
0.000738693
0.000738943
0.000739177
0.000739404
0.000739624
0.000739839
0.000740047
0.000740247
0.000740437
0.000740619
0.00074079
0.000740952
0.000741111
0.000741259
0.000741399
0.000741536
0.000741661
0.000741776
0.000741887
0.000741988
0.000742081
0.000742166
0.000742242
0.000742308
0.000742368
0.00074242
0.000742461
0.000742497
0.000742526
0.000742546
0.000742561
0.000742568
0.000453344
0.000453106
0.00045288
0.000452669
0.000452472
0.00045229
0.000452126
0.000451973
0.000451837
0.000451717
0.000451607
0.000451514
0.000451437
0.000451374
0.000451322
0.000451285
0.000451263
0.000451255
0.000451261
0.000451281
0.000451313
0.000451359
0.000451418
0.000451488
0.000451571
0.000451666
0.000451776
0.0004519
0.000452039
0.000452188
0.000452345
0.000452516
0.000452702
0.000452903
0.00045311
0.000453326
0.000453561
0.000453801
0.000454047
0.000454314
0.000454597
0.000454889
0.00045519
0.000455501
0.000455834
0.000456178
0.000456516
0.000456862
0.000457225
0.000457619
0.000458023
0.000458426
0.000458832
0.000459251
0.000459684
0.000460122
0.000460576
0.000461039
0.000461516
0.000461999
0.000462485
0.000462991
0.000463515
0.000464033
0.000464549
0.000465101
0.000465662
0.000466219
0.000466782
0.000467359
0.000467938
0.000468522
0.000469133
0.000469736
0.000470348
0.000470989
0.000471637
0.000472285
0.000472953
0.000473622
0.0004743
0.000475001
0.000475707
0.000476401
0.000477109
0.000477843
0.000478579
0.000479333
0.000480082
0.000480823
0.000481592
0.000482377
0.000483155
0.000483949
0.00048474
0.000485518
0.000486314
0.000487127
0.000487951
0.000488777
0.000489607
0.000490451
0.000491291
0.000492135
0.000493008
0.000493884
0.000494759
0.000495635
0.000496521
0.000497437
0.000498351
0.000499253
0.000500163
0.000501065
0.000501975
0.000502901
0.000503832
0.000504792
0.000505778
0.000506767
0.000507744
0.000508716
0.000509701
0.000510694
0.00051169
0.000512703
0.000513717
0.000514729
0.00051575
0.000516764
0.00051777
0.000518801
0.000519871
0.000520944
0.000522
0.000523032
0.000524064
0.000525112
0.000526143
0.000527166
0.000528221
0.000529321
0.000530414
0.000531497
0.000532618
0.000533736
0.000534834
0.000535931
0.000537018
0.000538099
0.000539207
0.000540317
0.000541404
0.000542531
0.000543701
0.000544835
0.000545964
0.000547126
0.000548275
0.000549422
0.000550574
0.000551749
0.000552946
0.000554124
0.00055528
0.000556431
0.000557597
0.000558759
0.00055992
0.000561105
0.000562292
0.000563459
0.000564611
0.000565765
0.000566903
0.000568037
0.000569215
0.000570409
0.000571582
0.000572759
0.000573947
0.000575123
0.000576296
0.000577489
0.000578703
0.00057994
0.000581204
0.000582514
0.000583933
0.000585513
0.00058695
0.000588196
0.000589368
0.000590519
0.000591686
0.000592879
0.000594165
0.000595528
0.000596864
0.000598153
0.000599401
0.000600599
0.000601751
0.000602882
0.000604038
0.00060524
0.000606454
0.000607647
0.000608816
0.000609977
0.000611137
0.000612284
0.000613418
0.000614552
0.000615689
0.000616816
0.000617941
0.000619084
0.000620246
0.000621396
0.000622515
0.000623614
0.000624706
0.000625802
0.000626911
0.000628035
0.000629154
0.000630255
0.000631368
0.000632488
0.000633579
0.000634675
0.000635811
0.000636944
0.000638042
0.000639138
0.000640227
0.000641291
0.000642335
0.000643384
0.000644443
0.000645477
0.000646495
0.0006475
0.000648505
0.00064958
0.000650825
0.000652364
0.000653894
0.000655189
0.000656348
0.000657438
0.000658499
0.000659525
0.000660521
0.0006615
0.000662462
0.00066342
0.000664426
0.0006655
0.00066657
0.000667578
0.000668542
0.000669501
0.000670478
0.000671467
0.000672429
0.000673376
0.000674366
0.000675393
0.000676384
0.000677348
0.000678315
0.000679252
0.000680144
0.000681014
0.000681904
0.000682839
0.000683769
0.000684672
0.000685579
0.000686499
0.000687426
0.000688349
0.000689248
0.000690118
0.000690972
0.000691808
0.000692632
0.000693454
0.000694265
0.000695057
0.000695839
0.000696627
0.000697448
0.000698298
0.000699119
0.000699874
0.000700655
0.000701594
0.000702595
0.000703533
0.000704434
0.000705316
0.000706151
0.000706932
0.000707673
0.000708388
0.000709086
0.000709769
0.000710442
0.000711109
0.000711772
0.000712445
0.00071314
0.00071384
0.00071451
0.000715145
0.000715762
0.000716365
0.00071695
0.000717536
0.000718162
0.000718842
0.000719525
0.000720178
0.000720804
0.00072141
0.000722007
0.000722594
0.000723167
0.000723729
0.000724284
0.000724826
0.000725355
0.000725874
0.000726381
0.000726881
0.000727379
0.000727869
0.000728341
0.000728803
0.00072926
0.000729712
0.000730157
0.000730596
0.000731036
0.000731483
0.000731924
0.000732342
0.000732742
0.000733133
0.000733517
0.000733899
0.000734276
0.000734639
0.000734991
0.000735339
0.000735682
0.000736012
0.000736327
0.000736636
0.000736944
0.000737252
0.00073756
0.000737861
0.000738148
0.000738426
0.000738692
0.000738941
0.000739177
0.000739405
0.000739626
0.000739838
0.000740044
0.000740245
0.000740437
0.000740617
0.000740787
0.000740951
0.00074111
0.000741258
0.000741399
0.000741536
0.000741663
0.000741778
0.000741886
0.000741987
0.000742081
0.000742166
0.000742242
0.000742309
0.00074237
0.000742421
0.000742463
0.000742499
0.000742526
0.000742547
0.000742562
0.000742569
0.000453345
0.000453104
0.000452878
0.000452667
0.000452469
0.000452287
0.000452123
0.000451971
0.000451835
0.000451713
0.000451606
0.000451515
0.000451438
0.000451374
0.000451322
0.000451285
0.000451263
0.000451255
0.000451261
0.000451281
0.000451313
0.000451359
0.000451418
0.000451487
0.000451572
0.000451669
0.000451776
0.000451901
0.000452041
0.000452188
0.000452345
0.000452515
0.000452699
0.000452899
0.000453111
0.000453331
0.000453562
0.000453798
0.000454042
0.000454312
0.000454599
0.000454892
0.000455192
0.000455503
0.000455831
0.00045617
0.000456513
0.000456863
0.000457232
0.000457616
0.000458016
0.000458432
0.000458836
0.000459249
0.000459687
0.000460128
0.000460574
0.000461034
0.000461507
0.000461991
0.000462482
0.000462992
0.000463516
0.000464031
0.000464553
0.000465099
0.000465658
0.000466218
0.000466789
0.000467377
0.00046795
0.00046852
0.000469112
0.000469721
0.000470354
0.000471008
0.000471648
0.000472297
0.000472966
0.000473621
0.000474295
0.000475002
0.0004757
0.000476387
0.000477095
0.000477836
0.000478579
0.000479333
0.00048008
0.000480836
0.0004816
0.000482366
0.000483152
0.000483939
0.000484719
0.000485516
0.000486325
0.00048712
0.000487932
0.000488773
0.000489617
0.00049046
0.000491309
0.000492153
0.000493014
0.00049389
0.000494766
0.000495637
0.000496521
0.00049743
0.000498331
0.000499233
0.000500152
0.000501065
0.000501981
0.000502904
0.000503833
0.000504793
0.000505787
0.000506768
0.000507737
0.000508711
0.000509703
0.000510688
0.00051168
0.000512704
0.000513725
0.000514736
0.00051574
0.000516754
0.000517775
0.000518821
0.00051989
0.000520952
0.000522009
0.000523041
0.000524066
0.000525102
0.000526136
0.000527175
0.000528249
0.000529323
0.000530389
0.000531488
0.000532605
0.000533727
0.000534837
0.000535925
0.000536998
0.000538096
0.000539211
0.000540315
0.000541421
0.000542541
0.000543685
0.000544825
0.000545971
0.000547131
0.000548263
0.0005494
0.000550572
0.000551758
0.000552954
0.000554142
0.000555294
0.000556436
0.000557603
0.00055879
0.00055997
0.000561145
0.000562313
0.000563446
0.000564575
0.00056573
0.000566886
0.00056804
0.000569214
0.000570385
0.000571539
0.00057271
0.000573907
0.000575086
0.000576243
0.00057743
0.000578655
0.000579917
0.000581234
0.00058265
0.000584296
0.000585834
0.0005871
0.000588265
0.000589402
0.00059057
0.00059177
0.000592991
0.000594242
0.000595521
0.000596803
0.000598077
0.000599328
0.000600545
0.00060172
0.000602872
0.000604042
0.000605235
0.000606426
0.000607605
0.000608774
0.00060994
0.000611097
0.000612242
0.000613386
0.000614537
0.000615685
0.000616822
0.000617954
0.00061909
0.000620228
0.000621357
0.000622474
0.000623586
0.000624696
0.00062581
0.000626928
0.000628048
0.000629161
0.000630264
0.000631371
0.000632478
0.000633582
0.000634703
0.00063583
0.000636945
0.000638054
0.000639152
0.000640232
0.000641298
0.000642346
0.000643391
0.000644443
0.000645473
0.000646481
0.000647484
0.000648527
0.000649708
0.00065114
0.000652696
0.000654047
0.00065522
0.000656323
0.000657391
0.000658431
0.000659452
0.000660453
0.000661441
0.000662424
0.000663421
0.000664452
0.000665501
0.000666527
0.000667516
0.000668485
0.00066946
0.000670454
0.000671449
0.000672424
0.000673392
0.000674394
0.00067541
0.000676402
0.00067738
0.000678341
0.000679254
0.000680127
0.000680999
0.000681908
0.000682851
0.00068378
0.000684689
0.000685604
0.000686523
0.000687434
0.000688334
0.000689219
0.00069009
0.000690943
0.000691779
0.000692608
0.000693436
0.000694245
0.000695022
0.000695785
0.000696586
0.000697489
0.000698402
0.000699229
0.000700019
0.000700844
0.000701752
0.000702688
0.000703591
0.000704455
0.000705288
0.000706094
0.000706869
0.000707615
0.000708337
0.000709037
0.000709723
0.000710406
0.000711089
0.000711769
0.000712453
0.000713143
0.000713825
0.000714485
0.000715124
0.000715743
0.000716346
0.000716945
0.000717567
0.000718221
0.000718894
0.000719557
0.00072019
0.000720801
0.000721397
0.000721984
0.000722568
0.000723148
0.000723718
0.000724275
0.000724822
0.000725354
0.000725873
0.000726381
0.000726883
0.000727382
0.000727871
0.000728342
0.000728802
0.000729259
0.000729709
0.000730154
0.000730601
0.00073105
0.000731492
0.000731919
0.000732331
0.000732732
0.000733125
0.000733511
0.000733893
0.000734269
0.000734634
0.00073499
0.000735337
0.000735676
0.000736006
0.000736326
0.000736638
0.000736946
0.000737254
0.000737561
0.000737864
0.000738156
0.000738434
0.000738695
0.000738942
0.00073918
0.000739408
0.000739628
0.00073984
0.000740044
0.000740243
0.000740434
0.000740613
0.000740782
0.000740948
0.00074111
0.000741258
0.000741398
0.000741536
0.000741664
0.000741779
0.000741886
0.000741987
0.00074208
0.000742166
0.000742243
0.000742311
0.000742371
0.000742422
0.000742465
0.0007425
0.000742528
0.000742549
0.000742563
0.00074257
0.000453346
0.000453107
0.000452879
0.000452664
0.000452468
0.000452285
0.000452121
0.000451971
0.000451833
0.000451712
0.000451606
0.000451517
0.000451441
0.000451372
0.000451321
0.000451286
0.000451264
0.000451255
0.000451261
0.000451281
0.000451314
0.00045136
0.000451418
0.000451488
0.000451572
0.000451667
0.000451775
0.0004519
0.000452038
0.000452187
0.000452349
0.000452518
0.000452699
0.000452899
0.000453113
0.000453331
0.000453556
0.000453795
0.000454048
0.000454318
0.000454598
0.000454891
0.000455196
0.000455504
0.000455825
0.000456162
0.000456505
0.000456856
0.000457233
0.000457623
0.00045802
0.000458427
0.000458837
0.000459253
0.000459682
0.000460127
0.000460576
0.000461034
0.00046151
0.000461989
0.000462478
0.000462985
0.000463508
0.000464031
0.000464549
0.000465095
0.000465658
0.000466225
0.000466796
0.000467378
0.000467955
0.000468524
0.000469118
0.000469728
0.000470354
0.000471007
0.000471654
0.000472301
0.000472958
0.000473633
0.000474315
0.000474995
0.00047569
0.000476385
0.000477095
0.000477834
0.000478578
0.000479323
0.000480078
0.000480838
0.000481597
0.000482356
0.000483138
0.000483929
0.00048471
0.000485506
0.000486321
0.000487129
0.000487934
0.000488764
0.00048962
0.00049048
0.000491323
0.000492171
0.000493032
0.000493893
0.000494762
0.000495628
0.000496512
0.000497422
0.000498324
0.000499214
0.000500122
0.000501061
0.000502009
0.000502925
0.000503828
0.000504783
0.000505778
0.000506757
0.000507733
0.000508713
0.000509692
0.000510678
0.000511691
0.00051272
0.000513723
0.000514719
0.000515727
0.00051675
0.000517778
0.000518828
0.000519903
0.00052097
0.00052202
0.00052306
0.000524084
0.000525098
0.000526131
0.000527181
0.000528243
0.000529309
0.000530395
0.000531498
0.000532601
0.000533717
0.000534822
0.000535908
0.000536999
0.000538099
0.000539196
0.000540297
0.000541414
0.00054255
0.000543698
0.000544843
0.000545988
0.00054712
0.000548235
0.000549376
0.000550565
0.00055177
0.000552972
0.000554157
0.000555307
0.000556454
0.000557643
0.000558849
0.000560023
0.000561172
0.000562305
0.000563425
0.000564559
0.000565706
0.000566862
0.000568023
0.000569184
0.000570344
0.000571499
0.000572661
0.000573838
0.000575019
0.000576193
0.000577381
0.000578619
0.000579968
0.000581483
0.000583133
0.000584653
0.000585959
0.000587153
0.000588293
0.000589442
0.000590625
0.000591829
0.000593035
0.00059425
0.000595484
0.000596734
0.000598004
0.000599269
0.000600505
0.000601703
0.000602868
0.000604039
0.000605221
0.000606399
0.000607567
0.000608728
0.000609885
0.00061104
0.000612201
0.000613367
0.00061453
0.00061568
0.000616817
0.000617946
0.000619075
0.000620206
0.000621338
0.000622465
0.000623584
0.000624696
0.000625814
0.000626937
0.00062805
0.000629155
0.000630255
0.000631361
0.000632469
0.000633586
0.000634715
0.000635835
0.000636948
0.000638072
0.000639185
0.000640262
0.000641313
0.000642351
0.000643397
0.000644453
0.000645488
0.000646498
0.00064753
0.000648683
0.000650046
0.000651466
0.00065281
0.000654044
0.000655189
0.000656284
0.000657334
0.000658362
0.000659379
0.000660385
0.000661389
0.000662397
0.000663415
0.000664445
0.000665474
0.000666482
0.000667466
0.000668438
0.000669419
0.000670421
0.000671423
0.000672407
0.000673405
0.000674448
0.00067548
0.000676461
0.000677412
0.000678335
0.000679223
0.000680099
0.000680996
0.00068193
0.000682875
0.000683798
0.000684709
0.000685619
0.000686523
0.000687423
0.000688316
0.000689195
0.000690055
0.000690908
0.00069176
0.0006926
0.000693418
0.000694208
0.000694968
0.000695728
0.000696579
0.000697586
0.000698526
0.000699333
0.000700136
0.00070099
0.000701869
0.000702757
0.000703626
0.000704456
0.000705264
0.000706057
0.000706829
0.000707576
0.000708298
0.000708996
0.000709684
0.000710371
0.00071106
0.000711752
0.00071245
0.000713146
0.000713822
0.000714473
0.000715105
0.000715724
0.000716335
0.000716953
0.000717603
0.000718272
0.00071893
0.000719571
0.00072019
0.00072079
0.000721378
0.000721961
0.000722546
0.000723135
0.00072371
0.000724266
0.00072482
0.000725364
0.000725882
0.000726385
0.000726885
0.000727383
0.000727869
0.000728338
0.000728797
0.000729255
0.000729709
0.00073016
0.000730611
0.000731055
0.000731489
0.000731912
0.000732322
0.000732722
0.000733115
0.000733503
0.00073389
0.000734267
0.000734632
0.000734988
0.000735336
0.000735675
0.000736005
0.000736324
0.000736635
0.000736941
0.000737248
0.000737558
0.000737866
0.000738167
0.000738446
0.000738703
0.000738947
0.000739183
0.00073941
0.00073963
0.000739844
0.000740047
0.00074024
0.000740428
0.000740608
0.00074078
0.000740946
0.000741108
0.000741259
0.000741401
0.000741538
0.000741664
0.000741779
0.000741885
0.000741987
0.000742082
0.000742166
0.000742243
0.000742312
0.000742372
0.000742424
0.000742466
0.000742501
0.00074253
0.000742551
0.000742564
0.000742571
0.000453347
0.000453112
0.000452885
0.000452666
0.000452468
0.000452285
0.000452117
0.000451967
0.000451833
0.000451715
0.000451608
0.000451517
0.000451439
0.000451372
0.000451321
0.000451285
0.000451263
0.000451255
0.000451261
0.00045128
0.000451313
0.00045136
0.000451419
0.000451488
0.000451571
0.000451669
0.000451777
0.000451899
0.000452034
0.000452185
0.000452351
0.000452521
0.000452702
0.000452898
0.00045311
0.00045333
0.000453557
0.000453796
0.00045405
0.000454319
0.000454598
0.000454891
0.000455193
0.0004555
0.000455824
0.000456162
0.000456504
0.000456857
0.000457227
0.000457619
0.000458025
0.000458426
0.000458831
0.000459255
0.000459685
0.000460122
0.000460575
0.000461038
0.000461506
0.000461985
0.000462477
0.000462975
0.000463498
0.000464031
0.000464552
0.000465098
0.000465665
0.000466228
0.000466794
0.000467377
0.000467954
0.000468533
0.000469137
0.000469744
0.000470357
0.000471003
0.000471659
0.00047231
0.000472963
0.000473625
0.000474304
0.000474996
0.000475687
0.000476381
0.000477097
0.000477831
0.000478567
0.000479316
0.000480083
0.000480844
0.000481589
0.00048234
0.000483132
0.000483932
0.000484713
0.000485508
0.000486311
0.000487117
0.00048795
0.000488787
0.000489617
0.000490466
0.000491331
0.000492197
0.00049305
0.000493898
0.000494746
0.000495605
0.0004965
0.000497423
0.000498333
0.00049922
0.000500116
0.00050105
0.000501999
0.000502923
0.000503835
0.000504773
0.000505754
0.000506755
0.000507734
0.000508714
0.000509691
0.000510677
0.000511698
0.000512709
0.000513706
0.000514713
0.000515728
0.000516754
0.00051779
0.000518851
0.000519921
0.000520964
0.000522005
0.000523066
0.000524106
0.000525124
0.000526147
0.000527183
0.000528234
0.000529295
0.000530377
0.000531491
0.000532604
0.0005337
0.000534798
0.000535903
0.000537006
0.000538095
0.000539188
0.000540297
0.000541424
0.000542567
0.000543713
0.00054485
0.000545965
0.000547085
0.000548218
0.000549382
0.000550587
0.000551797
0.000552977
0.00055415
0.000555329
0.000556512
0.000557702
0.000558885
0.000560041
0.00056117
0.000562293
0.000563407
0.000564533
0.00056569
0.000566855
0.000568001
0.000569148
0.000570304
0.000571454
0.000572615
0.000573786
0.000574937
0.000576084
0.000577285
0.000578655
0.000580363
0.000582024
0.000583455
0.000584798
0.00058601
0.000587165
0.000588312
0.00058947
0.000590652
0.000591843
0.000593036
0.000594236
0.000595453
0.000596693
0.000597959
0.000599228
0.000600475
0.000601686
0.00060286
0.000604024
0.000605197
0.000606366
0.000607527
0.000608685
0.000609844
0.000611006
0.000612173
0.000613343
0.000614506
0.000615657
0.000616795
0.000617925
0.000619056
0.000620196
0.000621338
0.000622469
0.000623583
0.000624692
0.000625808
0.000626929
0.000628044
0.00062915
0.00063025
0.000631354
0.00063247
0.000633598
0.000634713
0.000635818
0.000636952
0.000638103
0.000639216
0.000640278
0.000641319
0.000642369
0.000643439
0.000644504
0.000645533
0.000646568
0.000647703
0.000648957
0.000650267
0.00065156
0.000652811
0.000654015
0.000655152
0.000656232
0.000657273
0.000658295
0.000659312
0.00066033
0.000661349
0.000662372
0.000663399
0.000664424
0.000665438
0.000666432
0.000667413
0.000668396
0.000669395
0.000670399
0.000671398
0.000672414
0.000673472
0.000674531
0.000675535
0.000676484
0.000677406
0.000678312
0.000679202
0.000680093
0.000681009
0.000681952
0.00068289
0.000683805
0.000684709
0.000685611
0.000686513
0.000687409
0.000688297
0.000689173
0.000690038
0.000690895
0.000691744
0.000692577
0.000693389
0.00069417
0.000694923
0.00069572
0.000696668
0.000697708
0.000698608
0.000699421
0.000700247
0.00070109
0.000701944
0.000702803
0.000703645
0.000704456
0.00070525
0.000706034
0.000706799
0.00070754
0.000708259
0.000708958
0.000709648
0.00071034
0.000711038
0.000711739
0.000712447
0.000713147
0.000713819
0.000714467
0.000715099
0.000715722
0.000716345
0.000716979
0.000717632
0.00071829
0.000718935
0.000719566
0.000720179
0.000720776
0.000721366
0.00072195
0.000722534
0.000723125
0.000723704
0.000724263
0.000724818
0.000725363
0.000725882
0.000726386
0.000726888
0.000727385
0.000727866
0.000728334
0.000728799
0.00072926
0.000729713
0.00073016
0.000730606
0.000731051
0.000731486
0.000731906
0.000732314
0.000732715
0.00073311
0.000733498
0.000733886
0.000734266
0.000734631
0.000734987
0.000735335
0.000735675
0.000736006
0.000736324
0.000736633
0.00073694
0.000737249
0.000737561
0.000737873
0.000738173
0.000738451
0.000738705
0.000738947
0.000739184
0.000739413
0.000739632
0.000739844
0.000740048
0.00074024
0.000740426
0.000740606
0.000740778
0.000740945
0.000741107
0.000741261
0.000741403
0.000741537
0.000741664
0.000741779
0.000741885
0.000741987
0.000742082
0.000742167
0.000742245
0.000742313
0.000742374
0.000742425
0.000742467
0.000742503
0.000742532
0.000742553
0.000742566
0.000742572
0.000453348
0.000453111
0.000452886
0.000452672
0.000452472
0.000452285
0.000452116
0.000451965
0.000451831
0.000451712
0.000451607
0.000451517
0.000451437
0.000451371
0.000451321
0.000451285
0.000451264
0.000451255
0.00045126
0.000451279
0.000451313
0.00045136
0.000451418
0.000451487
0.00045157
0.000451669
0.000451778
0.000451901
0.000452035
0.000452185
0.00045235
0.000452523
0.000452705
0.000452898
0.000453106
0.000453326
0.000453559
0.0004538
0.000454051
0.000454314
0.000454594
0.00045489
0.000455192
0.000455499
0.000455825
0.000456163
0.000456504
0.000456859
0.00045723
0.000457616
0.00045802
0.000458423
0.000458829
0.000459254
0.000459686
0.00046012
0.000460572
0.000461035
0.000461502
0.000461982
0.000462469
0.000462968
0.000463495