/*--------------------------------*- C++ -*----------------------------------*\
  =========                 |
  \\      /  F ield         | OpenFOAM: The Open Source CFD Toolbox
   \\    /   O peration     | Website:  https://openfoam.org
    \\  /    A nd           | Version:  7
     \\/     M anipulation  |
\*---------------------------------------------------------------------------*/
FoamFile
{
    version     2.0;
    format      ascii;
    class       volScalarField;
    location    "3500";
    object      mu2;
}
// * * * * * * * * * * * * * * * * * * * * * * * * * * * * * * * * * * * * * //

dimensions      [1 -1 -1 0 0 0 0];

internalField   nonuniform List<scalar> 
160000
(
1.98479e-05
1.9849e-05
1.985e-05
1.9851e-05
1.98519e-05
1.98528e-05
1.98535e-05
1.98542e-05
1.98548e-05
1.98554e-05
1.98559e-05
1.98563e-05
1.98567e-05
1.9857e-05
1.98572e-05
1.98574e-05
1.98575e-05
1.98575e-05
1.98575e-05
1.98574e-05
1.98573e-05
1.98571e-05
1.98568e-05
1.98565e-05
1.98561e-05
1.98556e-05
1.98551e-05
1.98545e-05
1.98539e-05
1.98532e-05
1.98525e-05
1.98517e-05
1.98508e-05
1.98499e-05
1.9849e-05
1.9848e-05
1.98469e-05
1.98458e-05
1.98446e-05
1.98434e-05
1.98421e-05
1.98408e-05
1.98394e-05
1.9838e-05
1.98365e-05
1.98349e-05
1.98334e-05
1.98318e-05
1.98302e-05
1.98284e-05
1.98267e-05
1.98248e-05
1.98229e-05
1.9821e-05
1.9819e-05
1.98171e-05
1.9815e-05
1.98129e-05
1.98109e-05
1.98088e-05
1.98066e-05
1.98042e-05
1.9802e-05
1.97997e-05
1.97974e-05
1.9795e-05
1.97925e-05
1.979e-05
1.97875e-05
1.97851e-05
1.97826e-05
1.97799e-05
1.97773e-05
1.97746e-05
1.9772e-05
1.97692e-05
1.97664e-05
1.97636e-05
1.97608e-05
1.97579e-05
1.9755e-05
1.97519e-05
1.97489e-05
1.97459e-05
1.97429e-05
1.97398e-05
1.97367e-05
1.97336e-05
1.97305e-05
1.97273e-05
1.97241e-05
1.97209e-05
1.97175e-05
1.97141e-05
1.97108e-05
1.97076e-05
1.97043e-05
1.9701e-05
1.96976e-05
1.96943e-05
1.96908e-05
1.96875e-05
1.9684e-05
1.96805e-05
1.9677e-05
1.96735e-05
1.967e-05
1.96665e-05
1.96628e-05
1.96591e-05
1.96554e-05
1.96518e-05
1.96483e-05
1.96446e-05
1.9641e-05
1.96374e-05
1.96337e-05
1.963e-05
1.96261e-05
1.96222e-05
1.96184e-05
1.96146e-05
1.96109e-05
1.9607e-05
1.96031e-05
1.95992e-05
1.95951e-05
1.95913e-05
1.95874e-05
1.95835e-05
1.95796e-05
1.95759e-05
1.9572e-05
1.95679e-05
1.95637e-05
1.95598e-05
1.95559e-05
1.9552e-05
1.95481e-05
1.95444e-05
1.95405e-05
1.95363e-05
1.95324e-05
1.95285e-05
1.95243e-05
1.95201e-05
1.95161e-05
1.9512e-05
1.9508e-05
1.95041e-05
1.95002e-05
1.94962e-05
1.94922e-05
1.94881e-05
1.94841e-05
1.94801e-05
1.94759e-05
1.94718e-05
1.94676e-05
1.94635e-05
1.94594e-05
1.94553e-05
1.94512e-05
1.9447e-05
1.94429e-05
1.94389e-05
1.94348e-05
1.94308e-05
1.94268e-05
1.94228e-05
1.94187e-05
1.94145e-05
1.94105e-05
1.94066e-05
1.94025e-05
1.93986e-05
1.93947e-05
1.93907e-05
1.93867e-05
1.93824e-05
1.93785e-05
1.93745e-05
1.93704e-05
1.93665e-05
1.93625e-05
1.93583e-05
1.93541e-05
1.93498e-05
1.93455e-05
1.9341e-05
1.93364e-05
1.9332e-05
1.93278e-05
1.93237e-05
1.93195e-05
1.93158e-05
1.93122e-05
1.93081e-05
1.93033e-05
1.92985e-05
1.92942e-05
1.92903e-05
1.92866e-05
1.92831e-05
1.92797e-05
1.92761e-05
1.92721e-05
1.9268e-05
1.92641e-05
1.92605e-05
1.92569e-05
1.92533e-05
1.92497e-05
1.92461e-05
1.92426e-05
1.9239e-05
1.92356e-05
1.92321e-05
1.92285e-05
1.92248e-05
1.92211e-05
1.92175e-05
1.92142e-05
1.9211e-05
1.92077e-05
1.92043e-05
1.92008e-05
1.91974e-05
1.91939e-05
1.91904e-05
1.91871e-05
1.91838e-05
1.91804e-05
1.9177e-05
1.91736e-05
1.91702e-05
1.9167e-05
1.91637e-05
1.91605e-05
1.91573e-05
1.91541e-05
1.9151e-05
1.9148e-05
1.91449e-05
1.91418e-05
1.91387e-05
1.91353e-05
1.91317e-05
1.91277e-05
1.91232e-05
1.91188e-05
1.9115e-05
1.91118e-05
1.91089e-05
1.9106e-05
1.91032e-05
1.91004e-05
1.90977e-05
1.9095e-05
1.90921e-05
1.90886e-05
1.90853e-05
1.90824e-05
1.90797e-05
1.90771e-05
1.90743e-05
1.90714e-05
1.90687e-05
1.90661e-05
1.90631e-05
1.90601e-05
1.90573e-05
1.90546e-05
1.90518e-05
1.90492e-05
1.90467e-05
1.90443e-05
1.90416e-05
1.90389e-05
1.90363e-05
1.90337e-05
1.90312e-05
1.90287e-05
1.9026e-05
1.90234e-05
1.90208e-05
1.90183e-05
1.90159e-05
1.90136e-05
1.90113e-05
1.9009e-05
1.90068e-05
1.90047e-05
1.90024e-05
1.90002e-05
1.8998e-05
1.89957e-05
1.89936e-05
1.89915e-05
1.89894e-05
1.8987e-05
1.89842e-05
1.89811e-05
1.89782e-05
1.89758e-05
1.89735e-05
1.89714e-05
1.89694e-05
1.89675e-05
1.89656e-05
1.89638e-05
1.8962e-05
1.89603e-05
1.89586e-05
1.89567e-05
1.89547e-05
1.89527e-05
1.89509e-05
1.89492e-05
1.89476e-05
1.8946e-05
1.89445e-05
1.89429e-05
1.89413e-05
1.89394e-05
1.89375e-05
1.89356e-05
1.89339e-05
1.89322e-05
1.89306e-05
1.89291e-05
1.89276e-05
1.89261e-05
1.89246e-05
1.89232e-05
1.89218e-05
1.89204e-05
1.89191e-05
1.89178e-05
1.89163e-05
1.8915e-05
1.89138e-05
1.89126e-05
1.89114e-05
1.89102e-05
1.8909e-05
1.89079e-05
1.89067e-05
1.89055e-05
1.89043e-05
1.89032e-05
1.89021e-05
1.89011e-05
1.89001e-05
1.88991e-05
1.88981e-05
1.88972e-05
1.88962e-05
1.88953e-05
1.88944e-05
1.88936e-05
1.88928e-05
1.88919e-05
1.88911e-05
1.88903e-05
1.88895e-05
1.88888e-05
1.8888e-05
1.88873e-05
1.88866e-05
1.8886e-05
1.88854e-05
1.88848e-05
1.88842e-05
1.88836e-05
1.88831e-05
1.88826e-05
1.88821e-05
1.88817e-05
1.88812e-05
1.88808e-05
1.88804e-05
1.888e-05
1.88797e-05
1.88793e-05
1.8879e-05
1.88787e-05
1.88785e-05
1.88782e-05
1.8878e-05
1.88778e-05
1.88776e-05
1.88775e-05
1.88773e-05
1.88772e-05
1.88771e-05
1.8877e-05
1.8877e-05
1.88769e-05
1.88769e-05
1.98479e-05
1.9849e-05
1.985e-05
1.9851e-05
1.98519e-05
1.98527e-05
1.98535e-05
1.98542e-05
1.98548e-05
1.98554e-05
1.98559e-05
1.98563e-05
1.98567e-05
1.9857e-05
1.98572e-05
1.98574e-05
1.98575e-05
1.98575e-05
1.98575e-05
1.98574e-05
1.98573e-05
1.98571e-05
1.98568e-05
1.98565e-05
1.98561e-05
1.98556e-05
1.98551e-05
1.98545e-05
1.98539e-05
1.98532e-05
1.98525e-05
1.98517e-05
1.98508e-05
1.98499e-05
1.9849e-05
1.9848e-05
1.98469e-05
1.98458e-05
1.98447e-05
1.98434e-05
1.98421e-05
1.98408e-05
1.98394e-05
1.9838e-05
1.98365e-05
1.98349e-05
1.98334e-05
1.98318e-05
1.98302e-05
1.98284e-05
1.98266e-05
1.98248e-05
1.98229e-05
1.9821e-05
1.9819e-05
1.98171e-05
1.9815e-05
1.9813e-05
1.98109e-05
1.98088e-05
1.98066e-05
1.98043e-05
1.9802e-05
1.97997e-05
1.97974e-05
1.9795e-05
1.97925e-05
1.97901e-05
1.97876e-05
1.97851e-05
1.97825e-05
1.97799e-05
1.97773e-05
1.97747e-05
1.9772e-05
1.97692e-05
1.97664e-05
1.97636e-05
1.97608e-05
1.97579e-05
1.97549e-05
1.97519e-05
1.9749e-05
1.9746e-05
1.9743e-05
1.97398e-05
1.97367e-05
1.97336e-05
1.97305e-05
1.97273e-05
1.97241e-05
1.97209e-05
1.97175e-05
1.97141e-05
1.97109e-05
1.97076e-05
1.97043e-05
1.9701e-05
1.96976e-05
1.96943e-05
1.96909e-05
1.96874e-05
1.9684e-05
1.96806e-05
1.9677e-05
1.96735e-05
1.967e-05
1.96664e-05
1.96628e-05
1.96591e-05
1.96554e-05
1.96518e-05
1.96483e-05
1.96447e-05
1.9641e-05
1.96374e-05
1.96337e-05
1.963e-05
1.96261e-05
1.96222e-05
1.96184e-05
1.96146e-05
1.96108e-05
1.9607e-05
1.96031e-05
1.95992e-05
1.95952e-05
1.95913e-05
1.95874e-05
1.95835e-05
1.95797e-05
1.95759e-05
1.9572e-05
1.95678e-05
1.95637e-05
1.95599e-05
1.9556e-05
1.9552e-05
1.95482e-05
1.95444e-05
1.95405e-05
1.95364e-05
1.95324e-05
1.95284e-05
1.95242e-05
1.95201e-05
1.95161e-05
1.9512e-05
1.95081e-05
1.95042e-05
1.95002e-05
1.94961e-05
1.94922e-05
1.94882e-05
1.94841e-05
1.948e-05
1.94759e-05
1.94717e-05
1.94676e-05
1.94636e-05
1.94594e-05
1.94553e-05
1.94511e-05
1.9447e-05
1.94429e-05
1.94389e-05
1.94348e-05
1.94307e-05
1.94267e-05
1.94227e-05
1.94186e-05
1.94145e-05
1.94106e-05
1.94066e-05
1.94025e-05
1.93986e-05
1.93947e-05
1.93907e-05
1.93866e-05
1.93826e-05
1.93786e-05
1.93746e-05
1.93705e-05
1.93666e-05
1.93626e-05
1.93584e-05
1.93541e-05
1.93499e-05
1.93455e-05
1.93409e-05
1.93361e-05
1.93316e-05
1.93275e-05
1.93235e-05
1.93197e-05
1.9316e-05
1.93121e-05
1.93075e-05
1.93028e-05
1.92984e-05
1.92943e-05
1.92905e-05
1.92868e-05
1.92833e-05
1.92797e-05
1.92759e-05
1.92719e-05
1.9268e-05
1.92642e-05
1.92606e-05
1.9257e-05
1.92533e-05
1.92497e-05
1.92462e-05
1.92426e-05
1.92391e-05
1.92356e-05
1.92321e-05
1.92284e-05
1.92247e-05
1.92211e-05
1.92177e-05
1.92144e-05
1.92111e-05
1.92077e-05
1.92043e-05
1.92008e-05
1.91973e-05
1.91939e-05
1.91905e-05
1.91872e-05
1.91838e-05
1.91804e-05
1.91769e-05
1.91735e-05
1.91702e-05
1.9167e-05
1.91637e-05
1.91605e-05
1.91573e-05
1.91541e-05
1.91511e-05
1.9148e-05
1.91449e-05
1.91419e-05
1.91388e-05
1.91353e-05
1.91314e-05
1.91268e-05
1.91225e-05
1.91187e-05
1.91152e-05
1.91121e-05
1.9109e-05
1.91061e-05
1.91033e-05
1.91005e-05
1.90978e-05
1.9095e-05
1.90918e-05
1.90885e-05
1.90854e-05
1.90826e-05
1.90799e-05
1.90771e-05
1.90743e-05
1.90715e-05
1.90688e-05
1.9066e-05
1.9063e-05
1.90601e-05
1.90573e-05
1.90545e-05
1.90518e-05
1.90492e-05
1.90468e-05
1.90443e-05
1.90416e-05
1.90389e-05
1.90363e-05
1.90338e-05
1.90312e-05
1.90286e-05
1.9026e-05
1.90233e-05
1.90208e-05
1.90183e-05
1.9016e-05
1.90137e-05
1.90114e-05
1.90091e-05
1.90069e-05
1.90047e-05
1.90024e-05
1.90002e-05
1.89979e-05
1.89957e-05
1.89936e-05
1.89915e-05
1.89893e-05
1.89864e-05
1.89835e-05
1.89808e-05
1.89782e-05
1.89758e-05
1.89736e-05
1.89715e-05
1.89695e-05
1.89676e-05
1.89657e-05
1.89639e-05
1.89621e-05
1.89603e-05
1.89585e-05
1.89566e-05
1.89547e-05
1.89527e-05
1.8951e-05
1.89493e-05
1.89477e-05
1.89461e-05
1.89445e-05
1.89429e-05
1.89412e-05
1.89392e-05
1.89373e-05
1.89356e-05
1.89339e-05
1.89323e-05
1.89306e-05
1.89291e-05
1.89276e-05
1.89261e-05
1.89246e-05
1.89232e-05
1.89218e-05
1.89204e-05
1.89191e-05
1.89177e-05
1.89164e-05
1.89151e-05
1.89138e-05
1.89126e-05
1.89114e-05
1.89102e-05
1.8909e-05
1.89078e-05
1.89067e-05
1.89055e-05
1.89043e-05
1.89032e-05
1.89021e-05
1.89011e-05
1.89001e-05
1.88991e-05
1.88981e-05
1.88972e-05
1.88962e-05
1.88953e-05
1.88944e-05
1.88936e-05
1.88928e-05
1.88919e-05
1.88911e-05
1.88903e-05
1.88895e-05
1.88887e-05
1.8888e-05
1.88873e-05
1.88866e-05
1.8886e-05
1.88854e-05
1.88848e-05
1.88842e-05
1.88836e-05
1.88831e-05
1.88826e-05
1.88821e-05
1.88817e-05
1.88812e-05
1.88808e-05
1.88804e-05
1.888e-05
1.88797e-05
1.88793e-05
1.8879e-05
1.88787e-05
1.88785e-05
1.88782e-05
1.8878e-05
1.88778e-05
1.88776e-05
1.88775e-05
1.88773e-05
1.88772e-05
1.88771e-05
1.8877e-05
1.8877e-05
1.88769e-05
1.88769e-05
1.98479e-05
1.9849e-05
1.985e-05
1.9851e-05
1.98519e-05
1.98527e-05
1.98535e-05
1.98542e-05
1.98548e-05
1.98554e-05
1.98559e-05
1.98563e-05
1.98567e-05
1.9857e-05
1.98572e-05
1.98574e-05
1.98575e-05
1.98575e-05
1.98575e-05
1.98574e-05
1.98573e-05
1.98571e-05
1.98568e-05
1.98565e-05
1.98561e-05
1.98556e-05
1.98551e-05
1.98546e-05
1.98539e-05
1.98532e-05
1.98525e-05
1.98517e-05
1.98509e-05
1.98499e-05
1.9849e-05
1.9848e-05
1.98469e-05
1.98458e-05
1.98447e-05
1.98434e-05
1.98421e-05
1.98408e-05
1.98394e-05
1.9838e-05
1.98365e-05
1.98349e-05
1.98334e-05
1.98318e-05
1.98302e-05
1.98284e-05
1.98266e-05
1.98247e-05
1.98229e-05
1.9821e-05
1.98191e-05
1.98171e-05
1.98151e-05
1.9813e-05
1.98109e-05
1.98087e-05
1.98066e-05
1.98043e-05
1.9802e-05
1.97997e-05
1.97974e-05
1.9795e-05
1.97925e-05
1.979e-05
1.97876e-05
1.9785e-05
1.97825e-05
1.97799e-05
1.97773e-05
1.97747e-05
1.9772e-05
1.97692e-05
1.97664e-05
1.97636e-05
1.97607e-05
1.97579e-05
1.9755e-05
1.9752e-05
1.97489e-05
1.9746e-05
1.9743e-05
1.97399e-05
1.97367e-05
1.97336e-05
1.97304e-05
1.97273e-05
1.97241e-05
1.97208e-05
1.97175e-05
1.97142e-05
1.97109e-05
1.97077e-05
1.97044e-05
1.9701e-05
1.96977e-05
1.96943e-05
1.96909e-05
1.96874e-05
1.9684e-05
1.96805e-05
1.9677e-05
1.96734e-05
1.96699e-05
1.96664e-05
1.96628e-05
1.96591e-05
1.96555e-05
1.96519e-05
1.96483e-05
1.96447e-05
1.96411e-05
1.96374e-05
1.96337e-05
1.96299e-05
1.96261e-05
1.96222e-05
1.96184e-05
1.96146e-05
1.96108e-05
1.96069e-05
1.96031e-05
1.95992e-05
1.95953e-05
1.95914e-05
1.95875e-05
1.95836e-05
1.95798e-05
1.95758e-05
1.95718e-05
1.95677e-05
1.95637e-05
1.95599e-05
1.9556e-05
1.95521e-05
1.95482e-05
1.95444e-05
1.95405e-05
1.95364e-05
1.95323e-05
1.95283e-05
1.95242e-05
1.95201e-05
1.95161e-05
1.95121e-05
1.95081e-05
1.95042e-05
1.95002e-05
1.94962e-05
1.94922e-05
1.94882e-05
1.9484e-05
1.94799e-05
1.94759e-05
1.94717e-05
1.94676e-05
1.94636e-05
1.94595e-05
1.94553e-05
1.94511e-05
1.9447e-05
1.94429e-05
1.94389e-05
1.94348e-05
1.94308e-05
1.94267e-05
1.94226e-05
1.94185e-05
1.94145e-05
1.94105e-05
1.94065e-05
1.94026e-05
1.93988e-05
1.93947e-05
1.93907e-05
1.93867e-05
1.93827e-05
1.93787e-05
1.93747e-05
1.93707e-05
1.93667e-05
1.93627e-05
1.93585e-05
1.93543e-05
1.93499e-05
1.93452e-05
1.934e-05
1.93352e-05
1.93311e-05
1.93273e-05
1.93235e-05
1.93197e-05
1.93158e-05
1.93116e-05
1.93071e-05
1.93028e-05
1.92986e-05
1.92946e-05
1.92907e-05
1.9287e-05
1.92834e-05
1.92796e-05
1.92758e-05
1.92719e-05
1.92681e-05
1.92644e-05
1.92607e-05
1.9257e-05
1.92534e-05
1.92498e-05
1.92462e-05
1.92426e-05
1.92391e-05
1.92356e-05
1.9232e-05
1.92284e-05
1.92248e-05
1.92213e-05
1.92179e-05
1.92145e-05
1.92111e-05
1.92077e-05
1.92042e-05
1.92007e-05
1.91973e-05
1.91939e-05
1.91905e-05
1.91871e-05
1.91838e-05
1.91803e-05
1.91769e-05
1.91735e-05
1.91702e-05
1.91669e-05
1.91637e-05
1.91605e-05
1.91574e-05
1.91542e-05
1.91511e-05
1.9148e-05
1.9145e-05
1.9142e-05
1.91388e-05
1.9135e-05
1.91304e-05
1.91259e-05
1.91221e-05
1.91186e-05
1.91154e-05
1.91123e-05
1.91092e-05
1.91063e-05
1.91034e-05
1.91006e-05
1.90978e-05
1.90948e-05
1.90917e-05
1.90886e-05
1.90856e-05
1.90828e-05
1.908e-05
1.90772e-05
1.90743e-05
1.90715e-05
1.90688e-05
1.90659e-05
1.90629e-05
1.90601e-05
1.90573e-05
1.90545e-05
1.90518e-05
1.90493e-05
1.90468e-05
1.90442e-05
1.90416e-05
1.90389e-05
1.90363e-05
1.90337e-05
1.90311e-05
1.90285e-05
1.90259e-05
1.90233e-05
1.90209e-05
1.90184e-05
1.90161e-05
1.90137e-05
1.90114e-05
1.90091e-05
1.90069e-05
1.90047e-05
1.90025e-05
1.90002e-05
1.89978e-05
1.89955e-05
1.89934e-05
1.89912e-05
1.89886e-05
1.89858e-05
1.89832e-05
1.89807e-05
1.89782e-05
1.89759e-05
1.89737e-05
1.89717e-05
1.89697e-05
1.89678e-05
1.89659e-05
1.8964e-05
1.89622e-05
1.89604e-05
1.89585e-05
1.89566e-05
1.89547e-05
1.89528e-05
1.89511e-05
1.89494e-05
1.89477e-05
1.89461e-05
1.89445e-05
1.89428e-05
1.89409e-05
1.89391e-05
1.89373e-05
1.89356e-05
1.89339e-05
1.89323e-05
1.89307e-05
1.89291e-05
1.89276e-05
1.89261e-05
1.89246e-05
1.89232e-05
1.89218e-05
1.89204e-05
1.89191e-05
1.89177e-05
1.89164e-05
1.89151e-05
1.89139e-05
1.89126e-05
1.89114e-05
1.89102e-05
1.8909e-05
1.89078e-05
1.89066e-05
1.89054e-05
1.89043e-05
1.89032e-05
1.89022e-05
1.89011e-05
1.89001e-05
1.88991e-05
1.88981e-05
1.88972e-05
1.88962e-05
1.88953e-05
1.88944e-05
1.88936e-05
1.88928e-05
1.88919e-05
1.88911e-05
1.88903e-05
1.88895e-05
1.88887e-05
1.8888e-05
1.88873e-05
1.88866e-05
1.8886e-05
1.88854e-05
1.88848e-05
1.88842e-05
1.88837e-05
1.88831e-05
1.88826e-05
1.88821e-05
1.88817e-05
1.88812e-05
1.88808e-05
1.88804e-05
1.888e-05
1.88797e-05
1.88793e-05
1.8879e-05
1.88787e-05
1.88785e-05
1.88782e-05
1.8878e-05
1.88778e-05
1.88776e-05
1.88775e-05
1.88773e-05
1.88772e-05
1.88771e-05
1.8877e-05
1.8877e-05
1.88769e-05
1.88769e-05
1.98479e-05
1.9849e-05
1.985e-05
1.9851e-05
1.98519e-05
1.98528e-05
1.98535e-05
1.98542e-05
1.98549e-05
1.98554e-05
1.98559e-05
1.98563e-05
1.98567e-05
1.9857e-05
1.98572e-05
1.98574e-05
1.98575e-05
1.98575e-05
1.98575e-05
1.98574e-05
1.98573e-05
1.98571e-05
1.98568e-05
1.98565e-05
1.98561e-05
1.98556e-05
1.98551e-05
1.98545e-05
1.98539e-05
1.98532e-05
1.98525e-05
1.98517e-05
1.98509e-05
1.98499e-05
1.9849e-05
1.9848e-05
1.98469e-05
1.98458e-05
1.98447e-05
1.98435e-05
1.98421e-05
1.98408e-05
1.98394e-05
1.9838e-05
1.98365e-05
1.9835e-05
1.98334e-05
1.98318e-05
1.98302e-05
1.98284e-05
1.98266e-05
1.98247e-05
1.98229e-05
1.9821e-05
1.98191e-05
1.98171e-05
1.98151e-05
1.9813e-05
1.98109e-05
1.98088e-05
1.98066e-05
1.98043e-05
1.9802e-05
1.97997e-05
1.97974e-05
1.9795e-05
1.97925e-05
1.979e-05
1.97875e-05
1.9785e-05
1.97824e-05
1.978e-05
1.97774e-05
1.97747e-05
1.9772e-05
1.97691e-05
1.97664e-05
1.97636e-05
1.97607e-05
1.97579e-05
1.9755e-05
1.9752e-05
1.9749e-05
1.9746e-05
1.9743e-05
1.97399e-05
1.97367e-05
1.97336e-05
1.97304e-05
1.97272e-05
1.9724e-05
1.97208e-05
1.97175e-05
1.97143e-05
1.9711e-05
1.97077e-05
1.97044e-05
1.97011e-05
1.96977e-05
1.96943e-05
1.96908e-05
1.96874e-05
1.96839e-05
1.96805e-05
1.9677e-05
1.96734e-05
1.96699e-05
1.96664e-05
1.96628e-05
1.96592e-05
1.96556e-05
1.9652e-05
1.96483e-05
1.96447e-05
1.9641e-05
1.96374e-05
1.96337e-05
1.96299e-05
1.9626e-05
1.96222e-05
1.96184e-05
1.96146e-05
1.96108e-05
1.96069e-05
1.96031e-05
1.95992e-05
1.95952e-05
1.95913e-05
1.95875e-05
1.95836e-05
1.95797e-05
1.95758e-05
1.95717e-05
1.95677e-05
1.95637e-05
1.95598e-05
1.9556e-05
1.95521e-05
1.95482e-05
1.95444e-05
1.95404e-05
1.95364e-05
1.95324e-05
1.95284e-05
1.95243e-05
1.95201e-05
1.95161e-05
1.95121e-05
1.95082e-05
1.95042e-05
1.95002e-05
1.94962e-05
1.94922e-05
1.94881e-05
1.9484e-05
1.94799e-05
1.94758e-05
1.94717e-05
1.94677e-05
1.94636e-05
1.94595e-05
1.94553e-05
1.94511e-05
1.94469e-05
1.94428e-05
1.94389e-05
1.94348e-05
1.94306e-05
1.94265e-05
1.94225e-05
1.94184e-05
1.94145e-05
1.94106e-05
1.94067e-05
1.94027e-05
1.93987e-05
1.93947e-05
1.93907e-05
1.93868e-05
1.93829e-05
1.93788e-05
1.93748e-05
1.93709e-05
1.93669e-05
1.93628e-05
1.93586e-05
1.93542e-05
1.93495e-05
1.9344e-05
1.93389e-05
1.93347e-05
1.93309e-05
1.93272e-05
1.93233e-05
1.93194e-05
1.93154e-05
1.93113e-05
1.93072e-05
1.9303e-05
1.92989e-05
1.92948e-05
1.92909e-05
1.92871e-05
1.92834e-05
1.92796e-05
1.92758e-05
1.9272e-05
1.92682e-05
1.92645e-05
1.92608e-05
1.92571e-05
1.92535e-05
1.92499e-05
1.92463e-05
1.92427e-05
1.92391e-05
1.92355e-05
1.9232e-05
1.92284e-05
1.92249e-05
1.92214e-05
1.9218e-05
1.92145e-05
1.92111e-05
1.92076e-05
1.92041e-05
1.92007e-05
1.91973e-05
1.91939e-05
1.91905e-05
1.91871e-05
1.91837e-05
1.91803e-05
1.91769e-05
1.91735e-05
1.91702e-05
1.91669e-05
1.91637e-05
1.91605e-05
1.91573e-05
1.91542e-05
1.91511e-05
1.9148e-05
1.9145e-05
1.91419e-05
1.91384e-05
1.91341e-05
1.91295e-05
1.91254e-05
1.9122e-05
1.91187e-05
1.91155e-05
1.91125e-05
1.91094e-05
1.91065e-05
1.91036e-05
1.91007e-05
1.90978e-05
1.90948e-05
1.90917e-05
1.90887e-05
1.90858e-05
1.9083e-05
1.90801e-05
1.90772e-05
1.90744e-05
1.90715e-05
1.90687e-05
1.90658e-05
1.90629e-05
1.906e-05
1.90572e-05
1.90545e-05
1.90518e-05
1.90493e-05
1.90468e-05
1.90442e-05
1.90415e-05
1.90389e-05
1.90363e-05
1.90337e-05
1.90311e-05
1.90285e-05
1.90259e-05
1.90234e-05
1.90209e-05
1.90185e-05
1.90162e-05
1.90138e-05
1.90115e-05
1.90092e-05
1.9007e-05
1.90049e-05
1.90026e-05
1.90001e-05
1.89975e-05
1.89952e-05
1.8993e-05
1.89907e-05
1.89881e-05
1.89855e-05
1.8983e-05
1.89806e-05
1.89783e-05
1.89761e-05
1.89739e-05
1.89718e-05
1.89698e-05
1.89679e-05
1.8966e-05
1.89641e-05
1.89622e-05
1.89604e-05
1.89585e-05
1.89566e-05
1.89547e-05
1.89529e-05
1.89511e-05
1.89494e-05
1.89478e-05
1.89461e-05
1.89444e-05
1.89426e-05
1.89408e-05
1.8939e-05
1.89373e-05
1.89356e-05
1.8934e-05
1.89324e-05
1.89308e-05
1.89292e-05
1.89276e-05
1.89261e-05
1.89246e-05
1.89232e-05
1.89218e-05
1.89204e-05
1.8919e-05
1.89177e-05
1.89164e-05
1.89151e-05
1.89139e-05
1.89126e-05
1.89114e-05
1.89102e-05
1.8909e-05
1.89078e-05
1.89066e-05
1.89054e-05
1.89043e-05
1.89033e-05
1.89022e-05
1.89012e-05
1.89001e-05
1.88991e-05
1.88981e-05
1.88972e-05
1.88963e-05
1.88953e-05
1.88945e-05
1.88936e-05
1.88928e-05
1.88919e-05
1.88911e-05
1.88903e-05
1.88895e-05
1.88887e-05
1.8888e-05
1.88873e-05
1.88866e-05
1.8886e-05
1.88854e-05
1.88848e-05
1.88842e-05
1.88837e-05
1.88831e-05
1.88826e-05
1.88821e-05
1.88817e-05
1.88812e-05
1.88808e-05
1.88804e-05
1.888e-05
1.88797e-05
1.88793e-05
1.8879e-05
1.88787e-05
1.88785e-05
1.88782e-05
1.8878e-05
1.88778e-05
1.88776e-05
1.88775e-05
1.88773e-05
1.88772e-05
1.88771e-05
1.8877e-05
1.8877e-05
1.88769e-05
1.88769e-05
1.98479e-05
1.9849e-05
1.985e-05
1.9851e-05
1.98519e-05
1.98528e-05
1.98535e-05
1.98542e-05
1.98549e-05
1.98554e-05
1.98559e-05
1.98563e-05
1.98567e-05
1.9857e-05
1.98572e-05
1.98574e-05
1.98575e-05
1.98575e-05
1.98575e-05
1.98574e-05
1.98573e-05
1.9857e-05
1.98568e-05
1.98565e-05
1.98561e-05
1.98556e-05
1.98551e-05
1.98546e-05
1.98539e-05
1.98532e-05
1.98525e-05
1.98517e-05
1.98509e-05
1.98499e-05
1.9849e-05
1.9848e-05
1.98469e-05
1.98458e-05
1.98447e-05
1.98434e-05
1.98421e-05
1.98408e-05
1.98394e-05
1.9838e-05
1.98365e-05
1.9835e-05
1.98335e-05
1.98319e-05
1.98301e-05
1.98284e-05
1.98266e-05
1.98247e-05
1.98229e-05
1.9821e-05
1.98191e-05
1.98171e-05
1.98151e-05
1.9813e-05
1.98109e-05
1.98088e-05
1.98066e-05
1.98043e-05
1.9802e-05
1.97997e-05
1.97974e-05
1.9795e-05
1.97925e-05
1.979e-05
1.97875e-05
1.97849e-05
1.97824e-05
1.97799e-05
1.97773e-05
1.97747e-05
1.9772e-05
1.97691e-05
1.97663e-05
1.97636e-05
1.97607e-05
1.97578e-05
1.97549e-05
1.9752e-05
1.9749e-05
1.97461e-05
1.9743e-05
1.97399e-05
1.97368e-05
1.97336e-05
1.97304e-05
1.97272e-05
1.9724e-05
1.97209e-05
1.97176e-05
1.97143e-05
1.97111e-05
1.97078e-05
1.97044e-05
1.9701e-05
1.96977e-05
1.96943e-05
1.96908e-05
1.96873e-05
1.96838e-05
1.96804e-05
1.96769e-05
1.96734e-05
1.96699e-05
1.96664e-05
1.96628e-05
1.96592e-05
1.96556e-05
1.9652e-05
1.96484e-05
1.96447e-05
1.96409e-05
1.96373e-05
1.96337e-05
1.963e-05
1.96261e-05
1.96222e-05
1.96184e-05
1.96146e-05
1.96108e-05
1.9607e-05
1.96031e-05
1.95991e-05
1.95952e-05
1.95914e-05
1.95875e-05
1.95836e-05
1.95797e-05
1.95757e-05
1.95717e-05
1.95676e-05
1.95637e-05
1.95597e-05
1.95559e-05
1.95521e-05
1.95482e-05
1.95443e-05
1.95404e-05
1.95364e-05
1.95324e-05
1.95283e-05
1.95243e-05
1.95202e-05
1.95161e-05
1.95122e-05
1.95082e-05
1.95042e-05
1.95002e-05
1.94962e-05
1.94922e-05
1.94881e-05
1.9484e-05
1.94799e-05
1.94758e-05
1.94717e-05
1.94678e-05
1.94637e-05
1.94595e-05
1.94552e-05
1.9451e-05
1.94468e-05
1.94428e-05
1.94388e-05
1.94346e-05
1.94304e-05
1.94264e-05
1.94224e-05
1.94185e-05
1.94146e-05
1.94107e-05
1.94067e-05
1.94028e-05
1.93988e-05
1.93948e-05
1.93909e-05
1.9387e-05
1.9383e-05
1.9379e-05
1.9375e-05
1.93711e-05
1.93671e-05
1.93629e-05
1.93584e-05
1.93534e-05
1.93479e-05
1.93428e-05
1.93385e-05
1.93346e-05
1.93308e-05
1.9327e-05
1.93231e-05
1.93192e-05
1.93153e-05
1.93113e-05
1.93073e-05
1.93032e-05
1.92991e-05
1.9295e-05
1.9291e-05
1.92872e-05
1.92834e-05
1.92796e-05
1.92759e-05
1.92721e-05
1.92684e-05
1.92647e-05
1.9261e-05
1.92573e-05
1.92537e-05
1.925e-05
1.92463e-05
1.92427e-05
1.92391e-05
1.92356e-05
1.9232e-05
1.92285e-05
1.9225e-05
1.92214e-05
1.9218e-05
1.92145e-05
1.9211e-05
1.92076e-05
1.92041e-05
1.92007e-05
1.91973e-05
1.91939e-05
1.91905e-05
1.91871e-05
1.91837e-05
1.91803e-05
1.91769e-05
1.91734e-05
1.91701e-05
1.91668e-05
1.91636e-05
1.91605e-05
1.91573e-05
1.91541e-05
1.9151e-05
1.9148e-05
1.91449e-05
1.91414e-05
1.91374e-05
1.91331e-05
1.91291e-05
1.91254e-05
1.9122e-05
1.91188e-05
1.91157e-05
1.91127e-05
1.91097e-05
1.91067e-05
1.91037e-05
1.91008e-05
1.90978e-05
1.90948e-05
1.90918e-05
1.90888e-05
1.90859e-05
1.90831e-05
1.90803e-05
1.90773e-05
1.90744e-05
1.90716e-05
1.90687e-05
1.90657e-05
1.90627e-05
1.90599e-05
1.90571e-05
1.90545e-05
1.90519e-05
1.90494e-05
1.90468e-05
1.90442e-05
1.90415e-05
1.90388e-05
1.90362e-05
1.90336e-05
1.90311e-05
1.90285e-05
1.9026e-05
1.90235e-05
1.9021e-05
1.90186e-05
1.90162e-05
1.90138e-05
1.90115e-05
1.90093e-05
1.90072e-05
1.9005e-05
1.90026e-05
1.89998e-05
1.89972e-05
1.89949e-05
1.89927e-05
1.89903e-05
1.89878e-05
1.89853e-05
1.89829e-05
1.89806e-05
1.89784e-05
1.89762e-05
1.8974e-05
1.8972e-05
1.897e-05
1.8968e-05
1.89661e-05
1.89642e-05
1.89623e-05
1.89604e-05
1.89585e-05
1.89566e-05
1.89547e-05
1.89529e-05
1.89512e-05
1.89495e-05
1.89478e-05
1.89461e-05
1.89443e-05
1.89425e-05
1.89407e-05
1.89389e-05
1.89373e-05
1.89356e-05
1.8934e-05
1.89324e-05
1.89308e-05
1.89292e-05
1.89277e-05
1.89262e-05
1.89246e-05
1.89232e-05
1.89218e-05
1.89204e-05
1.8919e-05
1.89177e-05
1.89164e-05
1.89151e-05
1.89139e-05
1.89126e-05
1.89114e-05
1.89102e-05
1.8909e-05
1.89078e-05
1.89066e-05
1.89055e-05
1.89044e-05
1.89033e-05
1.89022e-05
1.89012e-05
1.89001e-05
1.88991e-05
1.88981e-05
1.88972e-05
1.88963e-05
1.88953e-05
1.88945e-05
1.88936e-05
1.88928e-05
1.8892e-05
1.88911e-05
1.88903e-05
1.88895e-05
1.88887e-05
1.88879e-05
1.88872e-05
1.88866e-05
1.8886e-05
1.88853e-05
1.88848e-05
1.88842e-05
1.88836e-05
1.88831e-05
1.88826e-05
1.88822e-05
1.88817e-05
1.88812e-05
1.88808e-05
1.88804e-05
1.888e-05
1.88797e-05
1.88793e-05
1.8879e-05
1.88787e-05
1.88785e-05
1.88782e-05
1.8878e-05
1.88778e-05
1.88776e-05
1.88774e-05
1.88773e-05
1.88772e-05
1.88771e-05
1.8877e-05
1.8877e-05
1.88769e-05
1.88769e-05
1.98479e-05
1.9849e-05
1.985e-05
1.9851e-05
1.98519e-05
1.98528e-05
1.98535e-05
1.98542e-05
1.98549e-05
1.98554e-05
1.98559e-05
1.98563e-05
1.98567e-05
1.9857e-05
1.98572e-05
1.98574e-05
1.98575e-05
1.98575e-05
1.98575e-05
1.98574e-05
1.98573e-05
1.9857e-05
1.98568e-05
1.98565e-05
1.98561e-05
1.98556e-05
1.98551e-05
1.98546e-05
1.98539e-05
1.98532e-05
1.98525e-05
1.98517e-05
1.98509e-05
1.98499e-05
1.9849e-05
1.9848e-05
1.98469e-05
1.98458e-05
1.98447e-05
1.98434e-05
1.98421e-05
1.98408e-05
1.98394e-05
1.9838e-05
1.98365e-05
1.9835e-05
1.98335e-05
1.98319e-05
1.98302e-05
1.98284e-05
1.98266e-05
1.98248e-05
1.98229e-05
1.9821e-05
1.98191e-05
1.98171e-05
1.98151e-05
1.9813e-05
1.98109e-05
1.98088e-05
1.98066e-05
1.98044e-05
1.98021e-05
1.97997e-05
1.97974e-05
1.9795e-05
1.97925e-05
1.979e-05
1.97875e-05
1.9785e-05
1.97824e-05
1.97799e-05
1.97773e-05
1.97746e-05
1.9772e-05
1.97692e-05
1.97663e-05
1.97635e-05
1.97607e-05
1.97579e-05
1.97549e-05
1.9752e-05
1.9749e-05
1.97461e-05
1.9743e-05
1.97399e-05
1.97368e-05
1.97336e-05
1.97304e-05
1.97272e-05
1.97241e-05
1.97209e-05
1.97176e-05
1.97143e-05
1.9711e-05
1.97077e-05
1.97044e-05
1.97011e-05
1.96977e-05
1.96942e-05
1.96908e-05
1.96873e-05
1.96838e-05
1.96803e-05
1.96768e-05
1.96734e-05
1.967e-05
1.96665e-05
1.96629e-05
1.96592e-05
1.96556e-05
1.9652e-05
1.96484e-05
1.96447e-05
1.9641e-05
1.96373e-05
1.96337e-05
1.963e-05
1.96262e-05
1.96222e-05
1.96184e-05
1.96146e-05
1.96108e-05
1.9607e-05
1.9603e-05
1.95991e-05
1.95953e-05
1.95914e-05
1.95875e-05
1.95836e-05
1.95797e-05
1.95756e-05
1.95716e-05
1.95676e-05
1.95637e-05
1.95597e-05
1.95558e-05
1.9552e-05
1.95482e-05
1.95443e-05
1.95404e-05
1.95365e-05
1.95325e-05
1.95284e-05
1.95243e-05
1.95202e-05
1.95162e-05
1.95122e-05
1.95082e-05
1.95042e-05
1.95002e-05
1.94962e-05
1.94922e-05
1.9488e-05
1.94839e-05
1.94798e-05
1.94759e-05
1.94719e-05
1.94678e-05
1.94637e-05
1.94594e-05
1.94551e-05
1.9451e-05
1.94469e-05
1.94427e-05
1.94386e-05
1.94344e-05
1.94303e-05
1.94263e-05
1.94224e-05
1.94185e-05
1.94146e-05
1.94108e-05
1.94068e-05
1.94028e-05
1.93989e-05
1.9395e-05
1.9391e-05
1.93871e-05
1.93832e-05
1.93792e-05
1.93753e-05
1.93715e-05
1.93674e-05
1.93628e-05
1.93571e-05
1.93516e-05
1.93468e-05
1.93424e-05
1.93383e-05
1.93345e-05
1.93307e-05
1.93269e-05
1.93231e-05
1.93191e-05
1.93152e-05
1.93113e-05
1.93074e-05
1.93033e-05
1.92992e-05
1.92951e-05
1.92911e-05
1.92872e-05
1.92834e-05
1.92797e-05
1.92759e-05
1.92722e-05
1.92685e-05
1.92648e-05
1.92611e-05
1.92574e-05
1.92537e-05
1.925e-05
1.92464e-05
1.92427e-05
1.92392e-05
1.92356e-05
1.92321e-05
1.92285e-05
1.9225e-05
1.92214e-05
1.9218e-05
1.92145e-05
1.92111e-05
1.92076e-05
1.92042e-05
1.92007e-05
1.91974e-05
1.9194e-05
1.91905e-05
1.91871e-05
1.91837e-05
1.91803e-05
1.91769e-05
1.91733e-05
1.917e-05
1.91667e-05
1.91636e-05
1.91604e-05
1.91572e-05
1.9154e-05
1.91509e-05
1.91478e-05
1.91444e-05
1.91406e-05
1.91367e-05
1.91328e-05
1.91291e-05
1.91255e-05
1.91222e-05
1.9119e-05
1.91159e-05
1.91129e-05
1.91099e-05
1.91069e-05
1.91039e-05
1.91009e-05
1.90978e-05
1.90948e-05
1.90919e-05
1.9089e-05
1.90861e-05
1.90832e-05
1.90803e-05
1.90774e-05
1.90745e-05
1.90716e-05
1.90685e-05
1.90654e-05
1.90625e-05
1.90598e-05
1.90571e-05
1.90545e-05
1.9052e-05
1.90494e-05
1.90468e-05
1.90441e-05
1.90414e-05
1.90388e-05
1.90362e-05
1.90337e-05
1.90311e-05
1.90285e-05
1.9026e-05
1.90235e-05
1.90211e-05
1.90187e-05
1.90163e-05
1.90139e-05
1.90116e-05
1.90094e-05
1.90073e-05
1.9005e-05
1.90024e-05
1.89995e-05
1.89969e-05
1.89947e-05
1.89924e-05
1.899e-05
1.89876e-05
1.89852e-05
1.89829e-05
1.89806e-05
1.89784e-05
1.89762e-05
1.89741e-05
1.89721e-05
1.89701e-05
1.89681e-05
1.89662e-05
1.89643e-05
1.89624e-05
1.89604e-05
1.89585e-05
1.89566e-05
1.89547e-05
1.89529e-05
1.89512e-05
1.89495e-05
1.89478e-05
1.8946e-05
1.89442e-05
1.89424e-05
1.89407e-05
1.8939e-05
1.89373e-05
1.89357e-05
1.8934e-05
1.89325e-05
1.89309e-05
1.89293e-05
1.89277e-05
1.89262e-05
1.89247e-05
1.89232e-05
1.89218e-05
1.89204e-05
1.8919e-05
1.89177e-05
1.89164e-05
1.89151e-05
1.89139e-05
1.89126e-05
1.89114e-05
1.89102e-05
1.8909e-05
1.89078e-05
1.89066e-05
1.89055e-05
1.89044e-05
1.89033e-05
1.89022e-05
1.89012e-05
1.89002e-05
1.88991e-05
1.88982e-05
1.88972e-05
1.88963e-05
1.88953e-05
1.88945e-05
1.88936e-05
1.88928e-05
1.8892e-05
1.88911e-05
1.88903e-05
1.88895e-05
1.88887e-05
1.88879e-05
1.88872e-05
1.88866e-05
1.8886e-05
1.88853e-05
1.88848e-05
1.88842e-05
1.88836e-05
1.88831e-05
1.88826e-05
1.88822e-05
1.88817e-05
1.88813e-05
1.88808e-05
1.88804e-05
1.888e-05
1.88797e-05
1.88793e-05
1.8879e-05
1.88787e-05
1.88785e-05
1.88782e-05
1.8878e-05
1.88778e-05
1.88776e-05
1.88774e-05
1.88773e-05
1.88772e-05
1.88771e-05
1.8877e-05
1.8877e-05
1.88769e-05
1.88769e-05
1.98479e-05
1.9849e-05
1.985e-05
1.9851e-05
1.98519e-05
1.98528e-05
1.98536e-05
1.98543e-05
1.98549e-05
1.98554e-05
1.98559e-05
1.98563e-05
1.98567e-05
1.9857e-05
1.98572e-05
1.98574e-05
1.98575e-05
1.98575e-05
1.98575e-05
1.98574e-05
1.98573e-05
1.9857e-05
1.98568e-05
1.98565e-05
1.98561e-05
1.98556e-05
1.98551e-05
1.98545e-05
1.98539e-05
1.98532e-05
1.98525e-05
1.98517e-05
1.98508e-05
1.98499e-05
1.9849e-05
1.9848e-05
1.98469e-05
1.98458e-05
1.98447e-05
1.98434e-05
1.98422e-05
1.98408e-05
1.98394e-05
1.9838e-05
1.98365e-05
1.9835e-05
1.98335e-05
1.98318e-05
1.98302e-05
1.98284e-05
1.98266e-05
1.98248e-05
1.98229e-05
1.9821e-05
1.98191e-05
1.98171e-05
1.98151e-05
1.9813e-05
1.98109e-05
1.98088e-05
1.98066e-05
1.98044e-05
1.98021e-05
1.97997e-05
1.97973e-05
1.9795e-05
1.97925e-05
1.979e-05
1.97874e-05
1.97849e-05
1.97825e-05
1.97799e-05