/*--------------------------------*- C++ -*----------------------------------*\
  =========                 |
  \\      /  F ield         | OpenFOAM: The Open Source CFD Toolbox
   \\    /   O peration     | Website:  https://openfoam.org
    \\  /    A nd           | Version:  7
     \\/     M anipulation  |
\*---------------------------------------------------------------------------*/
FoamFile
{
    version     2.0;
    format      ascii;
    class       volScalarField;
    location    "3500";
    object      muTotal;
}
// * * * * * * * * * * * * * * * * * * * * * * * * * * * * * * * * * * * * * //

dimensions      [1 -1 -1 0 0 0 0];

internalField   nonuniform List<scalar> 
160000
(
0.000247488
0.000247364
0.000217059
0.000216742
0.000205033
0.000205826
0.000240204
0.000271255
0.000238596
0.00023391
0.000225813
0.000217926
0.000219049
0.000227802
0.00022778
0.000228676
0.000236618
0.000243072
0.000251436
0.000251449
0.000244424
0.000215769
0.000215795
0.00022066
0.00024366
0.000213109
0.00021316
0.000215403
0.000249247
0.000249324
0.000220239
0.000218662
0.000218756
0.00024401
0.000244115
0.00021816
0.000218268
0.000235491
0.000241867
0.000241985
0.00024214
0.000242278
0.000215698
0.000215838
0.000215985
0.000242205
0.000258415
0.00024918
0.000249363
0.000249555
0.000226183
0.000226376
0.000226576
0.000226774
0.000258951
0.000253768
0.000254009
0.000254255
0.000237317
0.000237547
0.000237797
0.000239712
0.000243466
0.000243723
0.000233455
0.000233715
0.000240534
0.000240817
0.000241098
0.000230633
0.000230904
0.000231186
0.000231464
0.000243761
0.000252399
0.000253376
0.000253708
0.000253898
0.000254234
0.000254586
0.000254931
0.000255303
0.000255666
0.000250198
0.000241683
0.000241686
0.000242039
0.000242388
0.000245763
0.000246137
0.000246507
0.000246881
0.000251958
0.000256781
0.000257194
0.000252465
0.000258308
0.000258718
0.00025914
0.000259549
0.000259977
0.000257084
0.000257489
0.00026342
0.000250567
0.000250988
0.000251409
0.000251832
0.000261464
0.000272554
0.000273069
0.000273515
0.000273996
0.000274475
0.000265429
0.000265899
0.00026632
0.000262088
0.000280736
0.000283665
0.000284195
0.000275023
0.000275529
0.000276513
0.000278383
0.000278919
0.000279471
0.000266486
0.000255029
0.000255517
0.000272949
0.000267457
0.00026728
0.000267818
0.000280893
0.000284686
0.000264533
0.000265042
0.000270114
0.000263517
0.000264018
0.000273535
0.000274067
0.000274591
0.000282769
0.000288464
0.000289008
0.000289613
0.000290158
0.000290726
0.000278097
0.00027864
0.000276495
0.000282451
0.000283019
0.000283579
0.000284157
0.000295736
0.000296356
0.000293921
0.000274864
0.000270377
0.000267328
0.000267878
0.000287471
0.000292695
0.000293297
0.000285364
0.000285927
0.000272855
0.000296093
0.000299079
0.000299694
0.000300265
0.000300888
0.00029082
0.000291373
0.000291955
0.000292536
0.000300576
0.000300024
0.000307052
0.000308529
0.000309135
0.000314058
0.000314563
0.000313606
0.000314277
0.000298752
0.000290605
0.00028558
0.000250293
0.000239977
0.000240463
0.000279609
0.000280112
0.000203216
0.000203634
0.000204074
0.000257217
0.000313029
0.00031368
0.00031421
0.000301194
0.000260744
0.000261219
0.000261715
0.000270121
0.000332485
0.000333084
0.000315638
0.0003162
0.000316758
0.000313642
0.0003105
0.000311068
0.000311818
0.000299373
0.000299911
0.000300468
0.000315936
0.000326486
0.000327037
0.000327564
0.00035139
0.000351994
0.000371882
0.000354546
0.00034021
0.000340829
0.000341387
0.000346857
0.000356268
0.000358876
0.000358275
0.000342497
0.000309812
0.000310314
0.000310804
0.000312626
0.00032955
0.00033524
0.000365298
0.000370942
0.000382707
0.000382215
0.000360031
0.000234145
0.000162813
0.000163197
0.000163485
0.000220851
0.000221081
0.00019744
0.000197669
0.000260679
0.000302949
0.000303537
0.000286624
0.000287019
0.000287528
0.000296366
0.000305841
0.000306249
0.00032753
0.000346773
0.000376913
0.000375237
0.000369412
0.000370339
0.000387835
0.000346304
0.000315096
0.000320145
0.000320575
0.000328855
0.000358647
0.00039948
0.000419084
0.000411155
0.000344813
0.000328275
0.000321313
0.000316431
0.000314322
0.000312511
0.00031288
0.000313234
0.000311163
0.000343328
0.000357759
0.000364246
0.000434095
0.000457172
0.000457682
0.000441309
0.000426844
0.000416683
0.000407069
0.000301325
0.000133982
0.000128238
0.000128442
0.000149356
0.00014367
0.000106846
8.34458e-05
8.29894e-05
9.79401e-05
0.00015765
0.000229458
0.000280526
0.000339918
0.000361208
0.000330814
0.000310339
0.000310612
0.000310861
0.0002984
0.000299961
0.000344836
0.000395333
0.000449785
0.000409552
0.000388137
0.000388474
0.000365738
0.000309801
0.000290255
0.000290473
0.000289002
0.000286169
0.00028638
0.00028768
0.000286564
0.000286765
0.000292829
0.000335895
0.000310519
0.000269551
0.000266192
0.000258667
0.000258303
0.000263869
0.000470903
0.000464437
0.000464674
0.000424337
0.000341318
0.00032807
0.000324095
0.000320905
0.000348868
0.000404459
0.000407636
0.00040939
0.000381512
0.000375904
0.000376081
0.000379441
0.000379591
0.000390582
0.000419096
0.000426194
0.000428899
0.000429072
0.000429069
0.000426795
0.000426966
0.000411694
0.000353017
0.000351593
0.000349799
0.0003499
0.000349686
0.000349778
0.000352246
0.000375146
0.000386452
0.00041024
0.000411843
0.00041281
0.000420853
0.000423151
0.000423222
0.000422522
0.000391108
0.000384809
0.000384852
0.00038874
0.000387146
0.000369983
0.000360102
0.000295176
0.000253048
0.000189706
0.00012983
0.000128056
0.000128061
0.000128424
0.000225312
0.000225199
0.000264359
0.00021421
0.000210311
0.000211124
0.000218683
0.000231152
0.000231087
0.000233089
0.000236669
0.000239017
0.000233799
0.000227805
0.000241801
0.000241783
0.000240047
0.000223239
0.000223242
0.000223251
0.000235036
0.000220572
0.00024048
0.000243618
0.00024366
0.000213109
0.000237904
0.000244904
0.000243426
0.000243495
0.000243581
0.000219701
0.000218749
0.000226264
0.000244114
0.000242003
0.000242134
0.00022789
0.000228008
0.000228136
0.000233931
0.000242279
0.000223669
0.000215838
0.000225206
0.000258226
0.000258416
0.000229576
0.00022779
0.000240855
0.000231878
0.00022638
0.000244631
0.000262134
0.000262373
0.000244723
0.00025401
0.000242852
0.00023732
0.000237554
0.000241254
0.000243206
0.000243465
0.000238317
0.000238573
0.000238842
0.000228793
0.000229055
0.000229321
0.000246075
0.000246372
0.000246675
0.000232322
0.000229349
0.000229469
0.000242746
0.000253436
0.000252928
0.000247055
0.00024739
0.000247735
0.000247483
0.000244517
0.000244857
0.000246746
0.000247635
0.000248
0.00024057
0.000240923
0.000241283
0.000253283
0.00025597
0.000256368
0.000256788
0.000248066
0.000248842
0.00025741
0.000258658
0.000259133
0.000242917
0.000243299
0.00027236
0.000257506
0.000263399
0.000263872
0.00025099
0.000251409
0.000251844
0.000259238
0.000272573
0.000273042
0.000267347
0.000266923
0.000267387
0.000272151
0.000274177
0.000266154
0.000262087
0.000260375
0.00028366
0.0002842
0.000284723
0.000276668
0.000277166
0.000271005
0.000268649
0.000269169
0.000257962
0.000258453
0.000272431
0.000272945
0.000267451
0.000268313
0.000296844
0.000297442
0.000284676
0.000288848
0.000289417
0.000270108
0.000269141
0.00027618
0.000281855
0.000284862
0.00028652
0.000287118
0.000280448
0.00028101
0.000289582
0.000290153
0.000270606
0.000271142
0.000277183
0.000273095
0.000277746
0.000284357
0.000295435
0.000296042
0.00029664
0.000279535
0.00027402
0.000274575
0.000275134
0.000283104
0.000284175
0.000280469
0.000281022
0.000292381
0.000285763
0.000272319
0.000272867
0.000284868
0.0002991
0.000284235
0.000284803
0.000300465
0.00030977
0.00031039
0.000307884
0.00030975
0.000306374
0.000300017
0.000307892
0.000308514
0.000309117
0.000324058
0.000336431
0.000337146
0.000310921
0.000245623
0.000218298
0.000218928
0.000284387
0.000339224
0.000335899
0.000283927
0.00020286
0.000203256
0.000203762
0.000311735
0.000312358
0.000313056
0.000301883
0.00027732
0.000260468
0.000260751
0.000261227
0.000330851
0.000331844
0.000332464
0.000302056
0.000301336
0.000301888
0.000308401
0.000320226
0.00033758
0.000332915
0.000311807
0.000299385
0.000311596
0.000315338
0.000315913
0.000314442
0.000314962
0.000343608
0.00035089
0.00036123
0.000378141
0.000373451
0.000373068
0.00037977
0.000379887
0.000351725
0.000352792
0.000358906
0.000348217
0.000303809
0.000304305
0.000307843
0.000316186
0.000315482
0.000320781
0.000339005
0.000388846
0.000399309
0.000398774
0.000348944
0.000199974
0.000189205
0.000234127
0.000359527
0.000360299
0.000296684
0.000213408
0.000228803
0.000277882
0.000296928
0.000306139
0.00030106
0.000286614
0.000319234
0.000320902
0.000321366
0.000305795
0.000315931
0.000345969
0.000373915
0.000376908
0.00036891
0.000369417
0.000370427
0.000387849
0.00031705
0.00031509
0.000318291
0.000319579
0.000356758
0.000372928
0.000417997
0.000419087
0.000373439
0.000323061
0.000315888
0.000305803
0.000306209
0.000309537
0.000312501
0.000309486
0.000303914
0.000304253
0.0003171
0.000337846
0.00039546
0.000432907
0.00044705
0.000456293
0.000552007
0.000573198
0.000552739
0.000412421
0.000180552
0.000180715
0.000360252
0.000360659
0.000263971
0.00011174
0.000105393
0.000166009
0.000223489
0.000273418
0.000315902
0.00034781
0.000372755
0.000385944
0.000379084
0.00037309
0.000313182
0.000300692
0.000292555
0.000299008
0.0003556
0.000407308
0.000445909
0.000409409
0.000409668
0.0004314
0.000431771
0.00035944
0.000287558
0.000287444
0.000287671
0.000302439
0.000343143
0.000348574
0.000347292
0.000348102
0.000326163
0.000326132
0.000371421
0.000370764
0.000321352
0.000329175
0.000355939
0.000330127
0.000405357
0.000470881
0.000471176
0.00046266
0.000349694
0.000324802
0.000321146
0.000318488
0.000318655
0.000362793
0.000408289
0.000410399
0.000410598
0.000410791
0.000409526
0.000410603
0.000412625
0.0004129
0.000420692
0.000426612
0.000426201
0.000426378
0.000429076
0.000394313
0.000367798
0.000367939
0.00036805
0.000372397
0.000381881
0.000384334
0.000371345
0.000375433
0.000367356
0.000391408
0.000394408
0.00039506
0.000406983
0.000408965
0.000409036
0.000415318
0.000415185
0.000415243
0.000419583
0.000394747
0.0003896
0.000429251
0.000429306
0.000409437
0.000407708
0.000408378
0.000353234
0.000335737
0.000282894
0.000150436
0.000128233
0.00012806
0.000128427
0.000225314
0.000238835
0.00026436
0.000263812
0.000263704
0.000231797
0.00023927
0.000243921
0.000231155
0.000231098
0.000243516
0.00024347
0.000233888
0.000236304
0.000241801
0.00024126
0.00024125
0.000241244
0.000223242
0.000223251
0.000228551
0.000239441
0.000239663
0.000238286
0.000240272
0.000248991
0.000249051
0.000244901
0.000246639
0.000246719
0.000228544
0.000228414
0.000231639
0.000232525
0.000232628
0.000232732
0.000237324
0.000247298
0.000241683
0.000233817
0.000233925
0.00023409
0.000234248
0.000215838
0.000232286
0.000247511
0.000225454
0.000225616
0.000225786
0.000238271
0.000238468
0.000233661
0.000234356
0.0002375
0.000235756
0.000237642
0.000254
0.000254253
0.000254495
0.000254755
0.000232493
0.000229968
0.000230208
0.000234058
0.000221871
0.000225496
0.000238653
0.000238925
0.00023158
0.000242656
0.000238495
0.000238778
0.000239075
0.000239369
0.000228441
0.000228732
0.000229023
0.000248703
0.000250896
0.000251236
0.000244916
0.000254215
0.000254577
0.000254932
0.000253616
0.00024521
0.000245548
0.00024594
0.000246657
0.00024129
0.000241657
0.000252298
0.000246475
0.000246854
0.000248065
0.000238007
0.000238377
0.000245121
0.000259126
0.000258045
0.000245292
0.000275914
0.000276433
0.000260106
0.000260547
0.000260988
0.000269701
0.000257809
0.000257478
0.000257933
0.000266052
0.000267858
0.000268329
0.000260265
0.000273937
0.000274425
0.000260398
0.000259822
0.000260307
0.000263865
0.000253421
0.000243615
0.000257437
0.000270023
0.000270144
0.000270629
0.000262324
0.000262816
0.000271908
0.000272423
0.000263087
0.00027702
0.000296262
0.000296855
0.000294454
0.000290938
0.000284
0.000284544
0.000279626
0.000264228
0.000271588
0.000284299
0.000284868
0.000270848
0.000282038
0.000285108
0.000280833
0.000281393
0.000289778
0.000270606
0.000274107
0.000274963
0.000273088
0.000273633
0.000289669
0.000294826
0.000279383
0.00027996
0.000281049
0.000283765
0.000274572
0.000275132
0.000288094
0.000300793
0.000301397
0.000298335
0.000295045
0.000278212
0.000272324
0.000272875
0.000273429
0.000285642
0.000305632
0.000306225
0.00029458
0.000295146
0.000306333
0.000320139
0.000320778
0.0003162
0.000309548
0.000297523
0.000298105
0.000331165
0.000331843
0.000323947
0.000267946
0.000173769
0.000133681
0.000190396
0.000404136
0.000405057
0.000405687
0.000308344
0.000230059
0.000202911
0.000212151
0.000272339
0.000311676
0.000312352
0.000295471
0.000289705
0.000287275
0.000294563
0.000295108
0.000317506
0.000331513
0.000313262
0.000293188
0.000294272
0.000313092
0.000314471
0.000323991
0.000339406
0.000346086
0.000338303
0.00032929
0.000330328
0.000322365
0.000314525
0.000315064
0.000339569
0.000357558
0.000364426
0.000376831
0.000377491
0.000378149
0.000363822
0.000379437
0.000380095
0.00037445
0.00035793
0.000348784
0.000306034
0.000308894
0.000335682
0.000328951
0.000318808
0.0003262
0.000338095
0.000365967
0.000375801
0.000389436
0.00039929
0.000357401
0.000194355
0.000186129
0.000189457
0.000358913
0.000359703
0.000360241
0.000225617
0.000236297
0.000294562
0.000308586
0.00031758
0.000329833
0.000330504
0.000327788
0.000339011
0.000320926
0.000307174
0.000307596
0.000360535
0.000374999
0.000375534
0.00037563
0.000370774
0.000379166
0.000375328
0.00036009
0.000343633
0.000362084
0.00036912
0.000368141
0.000380728
0.0003826
0.000404561
0.000406557
0.000330124
0.000295216
0.000295592
0.000306093
0.000308556
0.000308955
0.000309319
0.000334756
0.00035647
0.000362154
0.000362572
0.000362984
0.000365167
0.0003915
0.00047924
0.00050493
0.000557707
0.000593845
0.000488845
0.000294745
0.000294987
0.000395215
0.000395745
0.000259462
0.000128764
0.000164296
0.00027169
0.000352146
0.00037069
0.000354402
0.000357261
0.000381765
0.000397
0.000397356
0.000385398
0.000308634
0.000286718
0.000286962
0.000326739
0.000389811
0.000421114
0.000455468
0.000439309
0.000439619
0.000457615
0.000458003
0.00035419
0.00029982
0.000293461
0.000304043
0.000300759
0.000332141
0.000375527
0.000382265
0.000383036
0.000385525
0.000382045
0.000405022
0.000454814
0.000462145
0.000463298
0.000463597
0.000455035
0.000449815
0.000476795
0.000477089
0.000455705
0.000384161
0.000320737
0.000322191
0.000319753
0.000329267
0.000370533
0.000406189
0.000408128
0.000386783
0.000384336
0.000406839
0.000405702
0.00039586
0.000396037
0.000396346
0.000426252
0.000426606
0.000428105
0.000428282
0.000402853
0.00039718
0.000410175
0.00039021
0.000420789
0.000484363
0.000487166
0.000488924
0.000467477
0.000387339
0.000343103
0.000343193
0.000344138
0.000365853
0.000406994
0.000404302
0.000418783
0.000428623
0.000429769
0.000429841
0.000423413
0.000429542
0.000429874
0.000429928
0.000400745
0.000394944
0.000408463
0.000408496
0.00040827
0.000377423
0.000275115
0.000157695
0.000128207
0.00012821
0.000128562
0.000229506
0.000238075
0.000250411
0.000249506
0.000247724
0.000247629
0.000241474
0.000243919
0.000228765
0.000231097
0.000228295
0.00022789
0.00023389
0.000226514
0.000231329
0.000228571
0.000222921
0.000224093
0.000223242
0.000232995
0.000224042
0.000224058
0.000224092
0.000224116
0.000249134
0.000249179
0.000236347
0.000244902
0.000238721
0.000207201
0.000219532
0.000227191
0.000227737
0.000225982
0.000226076
0.000250542
0.000250663
0.000250436
0.000233689
0.000233818
0.000242529
0.000242683
0.000228904
0.000220469
0.000229404
0.000227789
0.000231149
0.00023347
0.00023365
0.000228033
0.000228222
0.000228418
0.000227531
0.000227727
0.000227932
0.000233515
0.000227174
0.000227389
0.000225182
0.000225401
0.000225628
0.000229963
0.000230216
0.000221637
0.000221872
0.000236192
0.000238416
0.000231935
0.000232195
0.000265132
0.00026545
0.000237633
0.000232174
0.000232458
0.000232753
0.000241993
0.000225941
0.000242299
0.000250903
0.00023328
0.000233595
0.000236872
0.000254573
0.000244494
0.000244846
0.000245203
0.000247672
0.000248035
0.00024667
0.000247028
0.000245035
0.000247307
0.000247691
0.000248076
0.000237635
0.000238007
0.000238384
0.000224684
0.000225031
0.000256534
0.000256958
0.00023628
0.000279757
0.000280218
0.000271251
0.000280099
0.000278339
0.000266903
0.000263831
0.000264293
0.000252887
0.000258248
0.000267065
0.000256951
0.0002574
0.000259907
0.000261101
0.000261578
0.000262071
0.000261309
0.000246074
0.000242442
0.000242894
0.000243408
0.000244048
0.00026966
0.000270175
0.000270685
0.000264903
0.000268736
0.000263088
0.000268676
0.000278076
0.00029226
0.000300527
0.000304823
0.000295444
0.000289093
0.000268841
0.000264231
0.000275851
0.000281972
0.000270306
0.000270843
0.00027139
0.000286322
0.000287861
0.000288425
0.000271485
0.000272013
0.000281471
0.00028081
0.000279896
0.000273635
0.000274192
0.000274735
0.000293629
0.000297788
0.000298384
0.000286842
0.000293359
0.000301641
0.000302273
0.000302901
0.000298553
0.00028509
0.0002854
0.000287668
0.000348399
0.000354116
0.000354835
0.000342454
0.00030521
0.000305811
0.000306414
0.000301303
0.000306343
0.000304119
0.000293351
0.00029344
0.000300831
0.000299353
0.000297094
0.000323253
0.000324627
0.000259236
0.000132991
0.000133317
0.000133691
0.000369612
0.0004044
0.000405026
0.000298343
0.000256685
0.000277261
0.000308614
0.000301748
0.000294261
0.000305778
0.000309545
0.000310171
0.000288738
0.00030961
0.000314712
0.000326626
0.000343038
0.000331514
0.000302483
0.000293166
0.000305492
0.000311869
0.000312427
0.00032279
0.000346032
0.00034666
0.000347283
0.000345327
0.000343809
0.000339382
0.000339715
0.0003509
0.000358273
0.000364462
0.000370645
0.000371868
0.000347919
0.000331496
0.00033289
0.00034831
0.000359256
0.000359214
0.000343887
0.000296298
0.000286841
0.000344403
0.000380613
0.000382182
0.000395333
0.000390531
0.000352769
0.00034716
0.000347701
0.000393394
0.000358379
0.000206273
0.000185836
0.000186318
0.000270667
0.000359108
0.000359646
0.000220742
0.000221266
0.00028238
0.000303731
0.000316762
0.000337294
0.000347619
0.000346485
0.000353338
0.00035388
0.000320377
0.000320524
0.000354327
0.000363693
0.000367225
0.000337353
0.000332056
0.000369344
0.000379168
0.000378177
0.000360094
0.000376682
0.00037719
0.000377671
0.000368122
0.000381383
0.000386527
0.000415395
0.000415957
0.000376819
0.000320159
0.000306339
0.000305454
0.000305833
0.00032613
0.000331079
0.000333406
0.000340218
0.000344927
0.00035215
0.00035596
0.000380823
0.000464537
0.000415888
0.000396171
0.000597466
0.000603815
0.000604497
0.000520447
0.000433428
0.000419735
0.000371069
0.000326862
0.000322297
0.000373658
0.000410632
0.000414852
0.000415266
0.000409371
0.000389481
0.000369517
0.000369864
0.000388305
0.000400674
0.000380223
0.000340342
0.000309022
0.000311754
0.000345593
0.000432281
0.000458304
0.000458735
0.000450483
0.000343828
0.00030299
0.000288645
0.000294598
0.000339691
0.000381198
0.000379708
0.000357501
0.000355867
0.000373123
0.000398044
0.000451121
0.000461531
0.000463166
0.000463761
0.000464511
0.000464819
0.000462663
0.000423712
0.000423974
0.000464248
0.000467758
0.000417076
0.000328163
0.000316303
0.000315989
0.000316162
0.000334091
0.000354745
0.000373698
0.000391316
0.000384817
0.000381343
0.000387504
0.000406557
0.000412472
0.000416186
0.000418172
0.000418348
0.000385198
0.000382046
0.000393026
0.000355089
0.000338335
0.000424577
0.000448063
0.000479966
0.000488568
0.000488715
0.000488924
0.000481164
0.000416174
0.000344584
0.000343822
0.000343897
0.000377866
0.00039104
0.000390335
0.000390406
0.000427599
0.000429769
0.000429842
0.000429907
0.000429309
0.000415772
0.000388589
0.00036191
0.000350225
0.000349855
0.000372716
0.000407737
0.000381548
0.000337988
0.000290581
0.000224696
0.000128651
0.000128648
0.000237784
0.000256383
0.000250904
0.00023866
0.00023468
0.000235104
0.000225302
0.00022523
0.000225166
0.000225106
0.000228344
0.000226051
0.000226014
0.000226512
0.000238138
0.000222931
0.000222921
0.000222917
0.00022888
0.000236826
0.00023684
0.000228577
0.000224088
0.000224125
0.000227879
0.000221798
0.000221845
0.000221901
0.000214905
0.000206819
0.000227566
0.000227649
0.000226054
0.000228569
0.000221615
0.000221716
0.00022182
0.000230446
0.000262423
0.000262574
0.000238458
0.000238604
0.000239754
0.000232035
0.00022761
0.000227772
0.000227932
0.000229025
0.00023365
0.00023384
0.000230184
0.000230857
0.000231055
0.000227727
0.000227931
0.000234581
0.00023191
0.00023735
0.000237583
0.00023249
0.000219233
0.000214053
0.000216567
0.000223986
0.000233989
0.000234241
0.000242542
0.000231943
0.000232208
0.000235051
0.00026849
0.000252312
0.000262363
0.000249376
0.000236603
0.000241996
0.000225702
0.00022206
0.000222344
0.000242368
0.000242693
0.000238442
0.000249256
0.000257233
0.000257603
0.000257983
0.000258371
0.000247577
0.000243349
0.000243716
0.000244083
0.000237151
0.000235179
0.00024044
0.000218866
0.000211471
0.000211825
0.000224682
0.000225044
0.000212066
0.000223984
0.000220625
0.000220983
0.000263201
0.00029809
0.000304569
0.000305092
0.000292967
0.000265872
0.000261562
0.000252888
0.000241543
0.000241963
0.000251803
0.000266294
0.000266767
0.000257974
0.000258439
0.000262067
0.000254741
0.000255209
0.000256449
0.000248862
0.000243406
0.000254585
0.000269667
0.000266528
0.000249958
0.000248449
0.000247304
0.000219645
0.000226166
0.000226598
0.000236598
0.000259821
0.000304822
0.00032653
0.000304833
0.000304368
0.000306774
0.000297775
0.000278371
0.000278913
0.000276662
0.000273054
0.000285944
0.000284696
0.000272634
0.00028573
0.000287581
0.000284217
0.000272552
0.000273079
0.000273643
0.000274182
0.000284462
0.000294992
0.000295595
0.000267973
0.000256468
0.000256988
0.000257514
0.000252695
0.000241369
0.000229023
0.000203277
0.000246706
0.000276405
0.000316851
0.000354132
0.000354816
0.000338663
0.000328982
0.000307682
0.000306262
0.000306869
0.000303513
0.000301662
0.000299991
0.000293412
0.000293997
0.000294625
0.000297072
0.000294558
0.000201192
0.00012888
0.000129135
0.000209199
0.000402767
0.000403832
0.000404368
0.000309589
0.000255645
0.000256123
0.000301016
0.000313376
0.000295691
0.000297656
0.000305743
0.00028091
0.000284229
0.000251341
0.000289251
0.000319292
0.000335563
0.000348949
0.000349541
0.000320942
0.000313297
0.000321053
0.000315104
0.000312577
0.000339669
0.000346028
0.000338082
0.000319714
0.000325767
0.000345275
0.000353175
0.000357257
0.000357895
0.000357995
0.000332514
0.000318736
0.000319288
0.000323498
0.000327372
0.000339397
0.000342394
0.000327775
0.000284343
0.000265524
0.000251836
0.000283385
0.000334816
0.0003792
0.000403377
0.000403486
0.000404407
0.00041021
0.000433402
0.000434094
0.00040432
0.000256095
0.000206388
0.000232739
0.000357608
0.000358417
0.000359015
0.000210653
0.00020169
0.000267972
0.000317631
0.000340114
0.000349809
0.000351604
0.000357936
0.000358473
0.000353337
0.000334783
0.000320726
0.00032616
0.000338321
0.000315982
0.000261133
0.000245993
0.000277865
0.00030647
0.00033818
0.000385731
0.000386267
0.000384423
0.00036913
0.000369525
0.000381494
0.000383118
0.000413589
0.000423162
0.000408184
0.000330921
0.000311008
0.0003076
0.000327988
0.000329684
0.000333115
0.000343491
0.000345935
0.000356338
0.000365356
0.000355023
0.000366121
0.000453524
0.000429446
0.000296729
0.00031855
0.000525856
0.000541728
0.00035764
0.000273932
0.000313395
0.000258273
0.000328758
0.000378967
0.000392997
0.000396151
0.000399555
0.000397668
0.000395793
0.000396167
0.000405763
0.000422507
0.000432576
0.00043485
0.000442933
0.000443357
0.00044377
0.000443098
0.000437799
0.000438626
0.000433443
0.000404052
0.00031731
0.000303836
0.000298699
0.000291368
0.000288647
0.000334287
0.000386719
0.000381883
0.000342887
0.000268663
0.000263494
0.000255732
0.000265417
0.000373274
0.000450673
0.000461247
0.000460908
0.000464512
0.000456386
0.000454521
0.000461724
0.000462014
0.000457672
0.000375228
0.000324685
0.000324858
0.000333997
0.000361551
0.000367812
0.00039483
0.000425032
0.000413511
0.000376163
0.000375339
0.000375065
0.000393946
0.000412338
0.000415291
0.000415469
0.000416387
0.000400334
0.000354451
0.0002965
0.000221312
0.000216637
0.000223417
0.000353064
0.000446635
0.000453522
0.000471291
0.000486971
0.000467869
0.000421367
0.000419609
0.000416768
0.000455047
0.000429074
0.000413143
0.000428157
0.000428574
0.000428658
0.000428889
0.000429315
0.000379356
0.000389606
0.000435441
0.000437454
0.000432948
0.000400112
0.000371104
0.000349178
0.000349207
0.000350335
0.000350349
0.000377884
0.000348994
0.000261833
0.000138781
0.000128454
0.000223969
0.000253964
0.000236347
0.000231674
0.000230277
0.00023752
0.000229543
0.000231622
0.000227058
0.000232822
0.000232769
0.000231476
0.000232505
0.000234416
0.000238138
0.000238119
0.000238108
0.000229215
0.000229848
0.000232732
0.000230242
0.000230257
0.00023029
0.000224124
0.000224164
0.000233106
0.000222656
0.000223351
0.000205342
0.000205408
0.000205477
0.000223691
0.00023027
0.000230365
0.000221614
0.000221716
0.000224944
0.00024162
0.000262423
0.000262574
0.000260082
0.00025403
0.000240278
0.000227457
0.000227612
0.000239657
0.000239832
0.000235147
0.000227374
0.000230407
0.000230592
0.000227938
0.000228128
0.000228327
0.000233719
0.000234889
0.000240476
0.000240707
0.000232508
0.000232739
0.000232972
0.000208853
0.000209074
0.000213758
0.000233999
0.000235935
0.000242594
0.000234127
0.000232213
0.000232936
0.000273979
0.000274303
0.000274654
0.000268409
0.000236607
0.000241993
0.000242316
0.000242634
0.000234619
0.000228629
0.00022894
0.000240884
0.000249251
0.000243106
0.000243458
0.000251928
0.000251708
0.000252084
0.000252469
0.000252851
0.000244713
0.00023481
0.000235175
0.000235546
0.000221824
0.000222166
0.000204786
0.000188523
0.000188818
0.000212081
0.000239918
0.000220619
0.000252355
0.000303573
0.000304068
0.000304579
0.000279258
0.000258325
0.000258772
0.00026156
0.000262018
0.000262465
0.000241957
0.00024239
0.000250151
0.00026677
0.00026723
0.000258329
0.000258807
0.000264551
0.00027988
0.000283739
0.000284199
0.00027345
0.000273978
0.000268884
0.00025852
0.000246082
0.000225577
0.000206674
0.000207057
0.000208176
0.00023477
0.000253614
0.00024628
0.000296651
0.000335109
0.000337637
0.00032924
0.00031612
0.00030226
0.000279353
0.000274147
0.000274685
0.000275245
0.000266756
0.00026728
0.000272631
0.000287018
0.000287581
0.000279911
0.000272547
0.000278507
0.000281484
0.000283207
0.000284385
0.000276078
0.000273224
0.000267156
0.000263084
0.00026953
0.000277107
0.000246862
0.000211628
0.000217543
0.000203303
0.000249071
0.000273775
0.000318047
0.000348921
0.000348056
0.000331389
0.000328963
0.000334731
0.000335409
0.000321336
0.000307474
0.000304921
0.000298852
0.000307216
0.000307824
0.000308424
0.000269128
0.000154422
7.40672e-05
0.000145517
0.000401295
0.000401998
0.000403167
0.000403685
0.000290293
0.000269661
0.000269931
0.000298419
0.000321261
0.00031756
0.000288361
0.000266672
0.000267212
0.000252795
0.000253311
0.000251326
0.00027996
0.000334214
0.000348277
0.000348936
0.000349594
0.000340696
0.000333633
0.000332866
0.000330767
0.0003305
0.000330928
0.000319244
0.000315685
0.000313415
0.000317089
0.000317257
0.00031586
0.000316424
0.000321487
0.000315382
0.000315917
0.000321382
0.000342914
0.000348441
0.00034936
0.000341997
0.000324474
0.000301628
0.000277145
0.000264059
0.000248308
0.000264755
0.000326881
0.000373465
0.000403391
0.000407996
0.000411787
0.000428358
0.000449591
0.00041719
0.000292656
0.000275025
0.000356293
0.000356938
0.000357714
0.000258522
0.00020823
0.000206976
0.000246779
0.000303052
0.000342266
0.000354179
0.000357331
0.00034931
0.000336183
0.000336694
0.000340244
0.000337519
0.000348979
0.000353529
0.000340088
0.00028376
0.00026225
0.000241103
0.000261684
0.000313047
0.000382089
0.000385751
0.000377933
0.000356479
0.000356926
0.00037707
0.000385578
0.000412214
0.000422609
0.000423178
0.000355539
0.000328549
0.000328966
0.000372312
0.000382698
0.000383181
0.000383657
0.000372026
0.000349842
0.000348487
0.000368379
0.000407452
0.000459307
0.000451847
0.000296374
0.000296787
0.000360317
0.000480419
0.000302066
0.000208947
0.000204625
0.000202321
0.000202546
0.000278483
0.000375568
0.000388558
0.000389578
0.000394154
0.000397379
0.000396853
0.000421698
0.000433839
0.000434263
0.000427606
0.000402502
0.00034555
0.000347749
0.000341288
0.000341572
0.000373459
0.000438614
0.000438033
0.000393947
0.000301805
0.00029048
0.000289911
0.000290155
0.000343655
0.000389952
0.000390266
0.000384622
0.000317856
0.000264353
0.000262755
0.000255732
0.000261013
0.000361041
0.00044093
0.000436746
0.000437043
0.000442877
0.000441612
0.000452637
0.0004596
0.000461099
0.000456911
0.000450228
0.000410329
0.000331125
0.000328567
0.00037609
0.000428774
0.000429041
0.000429267
0.00041022
0.000376003
0.000376187
0.000375068
0.000375241
0.000379495
0.000379392
0.000379559
0.000379482
0.000373367
0.00029315
0.000219993
0.000218777
0.000216639
0.00022013
0.000288227
0.000413625
0.000486376
0.000489265
0.000489414
0.000488465
0.000489478
0.000489611
0.000489736
0.000481478
0.000422613
0.000369334
0.000356531
0.00035641
0.000356483
0.000357171
0.000375401
0.000376489
0.000377227
0.000425206
0.000437454
0.000437062
0.000437433
0.000437478
0.000425622
0.00041364
0.000366829
0.000379179
0.000380123
0.000380139
0.000304339
0.000165179
0.000128691
0.00024244
0.000234406
0.000228753
0.000228823
0.000230161
0.000241459
0.000241373
0.000239535
0.000237324
0.000241936
0.000231909
0.000229285
0.000235381
0.000235349
0.000229759
0.000233764
0.000228907
0.000236091
0.00022985
0.000234671
0.000238178
0.000238207
0.000226164
0.000224125
0.0002373
0.000237358
0.000230357
0.000231829
0.00021497
0.000211362
0.000217489
0.000223376
0.000220688
0.000228579
0.000221612
0.000221714
0.000246031
0.000262284
0.000262425
0.000250192
0.000256616
0.000256777
0.000252765
0.000232779
0.000244911
0.000245085
0.00022929
0.000229459
0.000227377
0.000227554
0.000227748
0.000227933
0.000228128
0.000233754
0.000233969
0.000233402
0.000240474
0.000240705
0.000237603
0.000235423
0.000217461
0.000208849
0.000213192
0.000239978
0.000240367