/*--------------------------------*- C++ -*----------------------------------*\
  =========                 |
  \\      /  F ield         | OpenFOAM: The Open Source CFD Toolbox
   \\    /   O peration     | Website:  https://openfoam.org
    \\  /    A nd           | Version:  7
     \\/     M anipulation  |
\*---------------------------------------------------------------------------*/
FoamFile
{
    version     2.0;
    format      ascii;
    class       volScalarField;
    location    "3500";
    object      nuTotal;
}
// * * * * * * * * * * * * * * * * * * * * * * * * * * * * * * * * * * * * * //

dimensions      [0 2 -1 0 0 0 0];

internalField   nonuniform List<scalar> 
160000
(
4.78019e-07
4.77782e-07
4.83278e-07
4.8312e-07
4.85626e-07
4.85231e-07
4.77938e-07
4.73025e-07
4.77919e-07
4.78634e-07
4.80071e-07
4.81608e-07
4.81282e-07
4.79422e-07
4.79372e-07
4.7916e-07
4.77651e-07
4.76513e-07
4.75149e-07
4.75168e-07
4.76346e-07
4.81907e-07
4.81964e-07
4.80995e-07
4.7675e-07
4.82836e-07
4.82948e-07
4.82583e-07
4.76335e-07
4.76478e-07
4.82009e-07
4.82529e-07
4.82715e-07
4.78124e-07
4.78322e-07
4.83514e-07
4.83747e-07
4.80592e-07
4.79728e-07
4.79988e-07
4.80262e-07
4.80546e-07
4.86076e-07
4.86386e-07
4.86708e-07
4.81946e-07
4.79705e-07
4.81519e-07
4.81877e-07
4.82253e-07
4.86896e-07
4.87303e-07
4.87723e-07
4.88141e-07
4.83016e-07
4.84279e-07
4.84728e-07
4.85187e-07
4.8854e-07
4.89002e-07
4.89505e-07
4.89725e-07
4.89609e-07
4.90113e-07
4.92526e-07
4.93063e-07
4.92417e-07
4.92984e-07
4.93545e-07
4.96085e-07
4.9666e-07
4.97259e-07
4.97852e-07
4.96237e-07
4.9544e-07
4.9596e-07
4.96595e-07
4.97254e-07
4.97904e-07
4.98566e-07
4.99241e-07
4.99946e-07
5.00648e-07
5.02287e-07
5.04532e-07
5.05319e-07
5.06044e-07
5.06759e-07
5.06943e-07
5.07697e-07
5.08444e-07
5.09198e-07
5.09203e-07
5.09288e-07
5.10077e-07
5.1168e-07
5.11572e-07
5.12375e-07
5.13182e-07
5.13986e-07
5.14805e-07
5.16151e-07
5.16981e-07
5.16977e-07
5.19977e-07
5.20833e-07
5.21691e-07
5.22556e-07
5.21953e-07
5.21254e-07
5.22166e-07
5.23055e-07
5.23941e-07
5.24852e-07
5.27154e-07
5.28067e-07
5.28992e-07
5.30653e-07
5.28942e-07
5.29605e-07
5.30581e-07
5.32882e-07
5.33837e-07
5.34751e-07
5.35548e-07
5.36565e-07
5.37598e-07
5.40593e-07
5.43538e-07
5.44555e-07
5.42851e-07
5.44741e-07
5.4585e-07
5.46932e-07
5.46161e-07
5.46741e-07
5.50835e-07
5.51867e-07
5.52171e-07
5.5429e-07
5.55321e-07
5.55019e-07
5.56076e-07
5.5712e-07
5.57144e-07
5.57555e-07
5.58645e-07
5.59734e-07
5.60825e-07
5.61894e-07
5.64822e-07
5.65915e-07
5.67401e-07
5.67716e-07
5.68831e-07
5.69939e-07
5.71076e-07
5.70724e-07
5.71878e-07
5.73426e-07
5.77398e-07
5.79341e-07
5.81079e-07
5.82254e-07
5.80488e-07
5.80961e-07
5.82136e-07
5.84477e-07
5.85612e-07
5.88819e-07
5.86652e-07
5.87538e-07
5.88677e-07
5.89825e-07
5.91001e-07
5.93568e-07
5.94695e-07
5.95842e-07
5.97029e-07
5.97245e-07
5.98551e-07
5.98881e-07
5.99973e-07
6.01132e-07
6.01782e-07
6.03021e-07
6.04474e-07
6.05752e-07
6.09124e-07
6.11693e-07
6.13905e-07
6.21451e-07
6.24968e-07
6.26204e-07
6.20255e-07
6.21392e-07
6.39836e-07
6.41063e-07
6.4252e-07
6.31034e-07
6.23761e-07
6.24947e-07
6.26082e-07
6.28934e-07
6.36564e-07
6.37673e-07
6.38896e-07
6.38743e-07
6.31274e-07
6.32403e-07
6.35672e-07
6.36812e-07
6.37944e-07
6.39515e-07
6.41099e-07
6.42218e-07
6.43285e-07
6.46137e-07
6.47272e-07
6.4846e-07
6.47628e-07
6.47527e-07
6.48589e-07
6.49615e-07
6.48091e-07
6.49169e-07
6.48432e-07
6.51263e-07
6.53943e-07
6.55073e-07
6.56145e-07
6.56676e-07
6.56858e-07
6.57771e-07
6.59005e-07
6.61814e-07
6.66954e-07
6.68021e-07
6.69072e-07
6.6993e-07
6.68887e-07
6.69282e-07
6.67155e-07
6.67684e-07
6.67681e-07
6.68826e-07
6.72086e-07
6.93438e-07
7.21877e-07
7.23331e-07
7.24792e-07
7.03054e-07
7.04156e-07
7.12976e-07
7.13937e-07
6.97699e-07
6.91407e-07
6.92282e-07
6.95871e-07
6.96866e-07
6.98027e-07
6.97827e-07
6.97446e-07
6.98342e-07
6.96412e-07
6.95134e-07
6.9308e-07
6.94208e-07
6.95725e-07
6.96695e-07
6.96148e-07
7.01316e-07
7.06226e-07
7.06553e-07
7.07449e-07
7.07268e-07
7.04717e-07
7.01828e-07
7.01248e-07
7.02816e-07
7.10096e-07
7.13031e-07
7.14883e-07
7.16516e-07
7.1779e-07
7.18997e-07
7.1987e-07
7.20708e-07
7.21858e-07
7.18525e-07
7.17756e-07
7.17882e-07
7.12636e-07
7.1188e-07
7.12671e-07
7.14596e-07
7.16475e-07
7.18039e-07
7.19574e-07
7.32402e-07
7.97324e-07
8.04119e-07
8.05171e-07
7.88134e-07
7.93484e-07
8.36154e-07
8.88111e-07
8.90356e-07
8.5462e-07
7.87458e-07
7.57307e-07
7.46312e-07
7.38039e-07
7.36246e-07
7.40548e-07
7.44152e-07
7.44878e-07
7.45547e-07
7.48116e-07
7.48477e-07
7.42862e-07
7.38219e-07
7.34533e-07
7.38206e-07
7.40803e-07
7.41505e-07
7.44469e-07
7.52211e-07
7.56015e-07
7.56605e-07
7.57462e-07
7.58543e-07
7.5908e-07
7.59413e-07
7.60165e-07
7.60677e-07
7.60148e-07
7.54285e-07
7.58333e-07
7.66087e-07
7.67293e-07
7.69399e-07
7.69962e-07
7.69222e-07
7.4556e-07
7.46419e-07
7.46841e-07
7.50176e-07
7.58858e-07
7.6104e-07
7.62023e-07
7.62883e-07
7.59643e-07
7.54361e-07
7.54465e-07
7.54692e-07
7.57618e-07
7.58545e-07
7.58885e-07
7.5889e-07
7.59203e-07
7.58456e-07
7.56276e-07
7.56018e-07
7.56115e-07
7.56413e-07
7.5671e-07
7.57175e-07
7.57448e-07
7.58954e-07
7.65029e-07
7.65431e-07
7.65872e-07
7.66088e-07
7.66332e-07
7.66529e-07
7.66437e-07
7.64105e-07
7.63153e-07
7.61158e-07
7.61184e-07
7.61256e-07
7.60736e-07
7.60689e-07
7.60814e-07
7.60992e-07
7.63843e-07
7.64555e-07
7.64647e-07
7.64358e-07
7.64589e-07
7.66397e-07
7.67538e-07
7.76602e-07
7.85156e-07
8.05853e-07
8.46941e-07
8.48863e-07
8.48873e-07
8.48489e-07
4.82042e-07
4.81806e-07
4.74945e-07
4.83678e-07
4.84358e-07
4.83972e-07
4.82105e-07
4.79425e-07
4.79293e-07
4.78785e-07
4.78011e-07
4.77493e-07
4.78352e-07
4.79423e-07
4.76801e-07
4.76765e-07
4.77043e-07
4.80211e-07
4.80216e-07
4.80235e-07
4.77991e-07
4.80874e-07
4.77131e-07
4.7667e-07
4.76751e-07
4.82835e-07
4.77972e-07
4.769e-07
4.77295e-07
4.77441e-07
4.77597e-07
4.82311e-07
4.82717e-07
4.8138e-07
4.78323e-07
4.78916e-07
4.79152e-07
4.82028e-07
4.82268e-07
4.82536e-07
4.81736e-07
4.80549e-07
4.84374e-07
4.86385e-07
4.84751e-07
4.79362e-07
4.79703e-07
4.85003e-07
4.85742e-07
4.83727e-07
4.85796e-07
4.87311e-07
4.8438e-07
4.82077e-07
4.82503e-07
4.8575e-07
4.84723e-07
4.87061e-07
4.88544e-07
4.89017e-07
4.88887e-07
4.89099e-07
4.89607e-07
4.91068e-07
4.91583e-07
4.92124e-07
4.94626e-07
4.95178e-07
4.95743e-07
4.93272e-07
4.93853e-07
4.94443e-07
4.97689e-07
4.98922e-07
4.99565e-07
4.97757e-07
4.96644e-07
4.97415e-07
4.99093e-07
4.99758e-07
5.00442e-07
5.01235e-07
5.02499e-07
5.03184e-07
5.03623e-07
5.04275e-07
5.04998e-07
5.0709e-07
5.07818e-07
5.08561e-07
5.07308e-07
5.07699e-07
5.08484e-07
5.09286e-07
5.11579e-07
5.12279e-07
5.11709e-07
5.12375e-07
5.13179e-07
5.16806e-07
5.17628e-07
5.13845e-07
5.16979e-07
5.16963e-07
5.17829e-07
5.20835e-07
5.21688e-07
5.22573e-07
5.22317e-07
5.21256e-07
5.22168e-07
5.23964e-07
5.24983e-07
5.2588e-07
5.26139e-07
5.26827e-07
5.29011e-07
5.3066e-07
5.31978e-07
5.29601e-07
5.30585e-07
5.31548e-07
5.33692e-07
5.34673e-07
5.36635e-07
5.38075e-07
5.39088e-07
5.41954e-07
5.42957e-07
5.41842e-07
5.42842e-07
5.44735e-07
5.45701e-07
5.42899e-07
5.43971e-07
5.46725e-07
5.47261e-07
5.48309e-07
5.52159e-07
5.53388e-07
5.53439e-07
5.53783e-07
5.54514e-07
5.55437e-07
5.56555e-07
5.58673e-07
5.59757e-07
5.59733e-07
5.6081e-07
5.64788e-07
5.65882e-07
5.66147e-07
5.67917e-07
5.68397e-07
5.68643e-07
5.6834e-07
5.69469e-07
5.70614e-07
5.74221e-07
5.76279e-07
5.77429e-07
5.7859e-07
5.78651e-07
5.79737e-07
5.81498e-07
5.8263e-07
5.8226e-07
5.84421e-07
5.87687e-07
5.88846e-07
5.88266e-07
5.87545e-07
5.90819e-07
5.91964e-07
5.91035e-07
5.91052e-07
5.92201e-07
5.93749e-07
5.94768e-07
5.96455e-07
5.98524e-07
5.98758e-07
5.99942e-07
6.01098e-07
6.00578e-07
6.00537e-07
6.01792e-07
6.06139e-07
6.18042e-07
6.26005e-07
6.27398e-07
6.15632e-07
6.10009e-07
6.11621e-07
6.19539e-07
6.387e-07
6.39857e-07
6.41218e-07
6.21115e-07
6.2246e-07
6.23707e-07
6.26429e-07
6.31307e-07
6.35429e-07
6.3655e-07
6.37723e-07
6.28901e-07
6.3008e-07
6.31246e-07
6.36242e-07
6.37554e-07
6.38691e-07
6.39003e-07
6.38671e-07
6.37838e-07
6.39538e-07
6.43274e-07
6.46156e-07
6.4572e-07
6.46477e-07
6.4761e-07
6.48961e-07
6.50022e-07
6.47767e-07
6.48134e-07
6.48264e-07
6.47883e-07
6.49461e-07
6.50653e-07
6.51223e-07
6.52346e-07
6.56159e-07
6.57219e-07
6.57809e-07
6.60069e-07
6.66651e-07
6.6772e-07
6.68367e-07
6.68355e-07
6.69547e-07
6.69964e-07
6.68841e-07
6.65006e-07
6.65212e-07
6.66301e-07
6.72027e-07
7.02394e-07
7.07918e-07
6.95205e-07
6.76645e-07
6.77901e-07
6.8703e-07
7.06376e-07
7.03023e-07
6.93383e-07
6.9127e-07
6.90903e-07
6.92615e-07
6.95895e-07
6.9219e-07
6.93171e-07
6.94218e-07
6.97374e-07
6.96923e-07
6.94203e-07
6.92343e-07
6.9307e-07
6.94794e-07
6.95734e-07
6.96722e-07
6.96157e-07
7.04951e-07
7.06239e-07
7.068e-07
7.07564e-07
7.0401e-07
7.03277e-07
7.00356e-07
7.01249e-07
7.06123e-07
7.1277e-07
7.14684e-07
7.17091e-07
7.1801e-07
7.18499e-07
7.19013e-07
7.20353e-07
7.22057e-07
7.22865e-07
7.21863e-07
7.20011e-07
7.14886e-07
7.12719e-07
7.12558e-07
7.12773e-07
7.08491e-07
7.0842e-07
7.10059e-07
7.19138e-07
7.65372e-07
7.66405e-07
7.26982e-07
7.27942e-07
7.43364e-07
8.27741e-07
8.38495e-07
7.79987e-07
7.56829e-07
7.45517e-07
7.39154e-07
7.35732e-07
7.33704e-07
7.33087e-07
7.34424e-07
7.35735e-07
7.4376e-07
7.46402e-07
7.48416e-07
7.47986e-07
7.40992e-07
7.36571e-07
7.34198e-07
7.37587e-07
7.38234e-07
7.37245e-07
7.37927e-07
7.45162e-07
7.5584e-07
7.565e-07
7.57085e-07
7.55207e-07
7.50118e-07
7.50038e-07
7.50749e-07
7.51203e-07
7.54531e-07
7.55066e-07
7.50207e-07
7.50795e-07
7.57289e-07
7.56711e-07
7.53891e-07
7.57543e-07
7.49947e-07
7.45557e-07
7.45986e-07
7.4698e-07
7.57389e-07
7.61036e-07
7.61998e-07
7.62806e-07
7.63193e-07
7.58043e-07
7.54026e-07
7.54233e-07
7.54594e-07
7.54943e-07
7.5541e-07
7.55673e-07
7.55844e-07
7.56149e-07
7.55829e-07
7.55674e-07
7.56018e-07
7.56317e-07
7.56418e-07
7.59658e-07
7.62589e-07
7.62857e-07
7.63104e-07
7.62889e-07
7.6216e-07
7.62147e-07
7.63687e-07
7.63478e-07
7.64535e-07
7.62312e-07
7.6222e-07
7.62337e-07
7.61437e-07
7.6143e-07
7.61577e-07
7.6119e-07
7.61344e-07
7.61468e-07
7.6123e-07
7.63503e-07
7.64091e-07
7.60774e-07
7.60858e-07
7.6256e-07
7.62778e-07
7.62782e-07
7.6838e-07
7.70586e-07
7.78886e-07
8.28621e-07
8.48671e-07
8.48875e-07
8.48486e-07
4.82046e-07
4.79236e-07
4.74944e-07
4.74797e-07
4.74602e-07
4.79645e-07
4.78106e-07
4.77139e-07
4.79279e-07
4.7916e-07
4.76815e-07
4.76723e-07
4.78336e-07
4.77826e-07
4.76801e-07
4.76855e-07
4.76834e-07
4.76826e-07
4.80216e-07
4.80235e-07
4.79214e-07
4.77251e-07
4.77275e-07
4.77594e-07
4.77333e-07
4.75973e-07
4.76082e-07
4.76897e-07
4.76757e-07
4.76903e-07
4.80328e-07
4.80537e-07
4.80119e-07
4.80168e-07
4.80372e-07
4.80586e-07
4.79995e-07
4.78537e-07
4.79749e-07
4.81446e-07
4.81732e-07
4.82015e-07
4.8231e-07
4.86382e-07
4.83371e-07
4.81051e-07
4.85443e-07
4.85783e-07
4.86141e-07
4.84188e-07
4.84587e-07
4.85903e-07
4.8621e-07
4.86082e-07
4.86867e-07
4.86993e-07
4.84717e-07
4.85173e-07
4.85645e-07
4.86121e-07
4.90495e-07
4.91529e-07
4.92047e-07
4.91865e-07
4.94865e-07
4.94703e-07
4.92765e-07
4.93314e-07
4.95299e-07
4.93873e-07
4.9524e-07
4.95816e-07
4.96418e-07
4.97013e-07
4.99765e-07
5.00397e-07
5.01037e-07
4.98115e-07
4.98464e-07
4.99125e-07
5.00924e-07
5.00115e-07
5.00812e-07
5.01496e-07
5.02467e-07
5.04671e-07
5.05402e-07
5.06142e-07
5.06819e-07
5.08569e-07
5.09328e-07
5.08319e-07
5.10144e-07
5.10929e-07
5.11567e-07
5.14222e-07
5.15007e-07
5.14641e-07
5.13169e-07
5.14224e-07
5.17268e-07
5.13344e-07
5.14165e-07
5.17481e-07
5.18343e-07
5.19209e-07
5.18815e-07
5.21586e-07
5.22585e-07
5.2349e-07
5.23187e-07
5.23875e-07
5.24773e-07
5.26986e-07
5.25878e-07
5.26791e-07
5.29916e-07
5.31034e-07
5.32008e-07
5.32494e-07
5.35255e-07
5.38056e-07
5.36666e-07
5.35729e-07
5.36771e-07
5.37775e-07
5.40148e-07
5.41147e-07
5.40824e-07
5.41825e-07
5.44345e-07
5.43314e-07
5.41856e-07
5.42917e-07
5.44337e-07
5.45884e-07
5.47912e-07
5.48947e-07
5.50733e-07
5.54171e-07
5.54132e-07
5.53443e-07
5.54523e-07
5.5773e-07
5.57257e-07
5.5801e-07
5.5978e-07
5.60862e-07
5.60844e-07
5.64785e-07
5.6542e-07
5.66468e-07
5.6791e-07
5.69023e-07
5.67933e-07
5.68439e-07
5.71797e-07
5.72943e-07
5.74e-07
5.74821e-07
5.77418e-07
5.78578e-07
5.77936e-07
5.77475e-07
5.78618e-07
5.8023e-07
5.81899e-07
5.85541e-07
5.87695e-07
5.88864e-07
5.90036e-07
5.89414e-07
5.87923e-07
5.89066e-07
5.91794e-07
5.92915e-07
5.92689e-07
5.9228e-07
5.9344e-07
5.95212e-07
5.97272e-07
6.00074e-07
6.01233e-07
5.98484e-07
5.99685e-07
6.01861e-07
6.11022e-07
6.384e-07
6.6399e-07
6.35009e-07
6.01908e-07
6.03136e-07
6.04309e-07
6.14876e-07
6.29926e-07
6.38754e-07
6.37336e-07
6.25477e-07
6.21129e-07
6.224e-07
6.25982e-07
6.28088e-07
6.29671e-07
6.29786e-07
6.30927e-07
6.29207e-07
6.28828e-07
6.32269e-07
6.36248e-07
6.37314e-07
6.3596e-07
6.3699e-07
6.37006e-07
6.36439e-07
6.36917e-07
6.3893e-07
6.41126e-07
6.42204e-07
6.44369e-07
6.46559e-07
6.47666e-07
6.45907e-07
6.45176e-07
6.45656e-07
6.45675e-07
6.46786e-07
6.47894e-07
6.50359e-07
6.50086e-07
6.51194e-07
6.52833e-07
6.55546e-07
6.57671e-07
6.64044e-07
6.64804e-07
6.62593e-07
6.64525e-07
6.66901e-07
6.67068e-07
6.6676e-07
6.64947e-07
6.65101e-07
6.64959e-07
6.65188e-07
6.70032e-07
7.03217e-07
7.07842e-07
7.08153e-07
6.75499e-07
6.7677e-07
6.77924e-07
7.01581e-07
6.99912e-07
6.89503e-07
6.88471e-07
6.88265e-07
6.87706e-07
6.88627e-07
6.90016e-07
6.89786e-07
6.9314e-07
6.96086e-07
6.97039e-07
6.91607e-07
6.91197e-07
6.92176e-07
6.93167e-07
6.94619e-07
6.94851e-07
6.9628e-07
6.98828e-07
7.01632e-07
7.00633e-07
7.00898e-07
7.01924e-07
7.01618e-07
7.0237e-07
7.01431e-07
7.02231e-07
7.10915e-07
7.16831e-07
7.17739e-07
7.17094e-07
7.17699e-07
7.18585e-07
7.19446e-07
7.16925e-07
7.15287e-07
7.15541e-07
7.16353e-07
7.17154e-07
7.17753e-07
7.16036e-07
7.10502e-07
7.09919e-07
7.08285e-07
7.07672e-07
7.13293e-07
7.32769e-07
7.33718e-07
7.22717e-07
7.23643e-07
7.43396e-07
8.06019e-07
7.79243e-07
7.43521e-07
7.32303e-07
7.31058e-07
7.33522e-07
7.33917e-07
7.32099e-07
7.31389e-07
7.32046e-07
7.33834e-07
7.43703e-07
7.48012e-07
7.48674e-07
7.43233e-07
7.36866e-07
7.34825e-07
7.3294e-07
7.34665e-07
7.3529e-07
7.34749e-07
7.35428e-07
7.45104e-07
7.53124e-07
7.54813e-07
7.53713e-07
7.54852e-07
7.50906e-07
7.46517e-07
7.46426e-07
7.46914e-07
7.47224e-07
7.48098e-07
7.46518e-07
7.43228e-07
7.43253e-07
7.43682e-07
7.4415e-07
7.45196e-07
7.46026e-07
7.44725e-07
7.45165e-07
7.46999e-07
7.53251e-07
7.61152e-07
7.61408e-07
7.62191e-07
7.61291e-07
7.56803e-07
7.53808e-07
7.54036e-07
7.56361e-07
7.56974e-07
7.55278e-07
7.55736e-07
7.56969e-07
7.57294e-07
7.57593e-07
7.55382e-07
7.55673e-07
7.55874e-07
7.56178e-07
7.58597e-07
7.59404e-07
7.58547e-07
7.60615e-07
7.582e-07
7.54007e-07
7.54073e-07
7.54196e-07
7.55744e-07
7.62292e-07
7.67336e-07
7.67525e-07
7.67596e-07
7.65259e-07
7.61435e-07
7.61835e-07
7.60759e-07
7.60119e-07
7.60171e-07
7.60297e-07
7.60922e-07
7.6055e-07
7.60629e-07
7.60722e-07
7.63245e-07
7.63853e-07
7.62714e-07
7.62773e-07
7.62846e-07
7.65784e-07
7.80391e-07
8.23457e-07
8.48701e-07
8.48713e-07
8.48341e-07
4.8122e-07
4.79369e-07
4.77044e-07
4.76963e-07
4.7704e-07
4.7686e-07
4.77718e-07
4.77138e-07
4.79735e-07
4.79156e-07
4.79579e-07
4.79561e-07
4.78336e-07
4.79679e-07
4.78691e-07
4.7918e-07
4.80284e-07
4.80036e-07
4.80216e-07
4.78333e-07
4.80109e-07
4.80156e-07
4.80212e-07
4.80282e-07
4.7585e-07
4.75945e-07
4.78251e-07
4.76898e-07
4.78111e-07
4.84785e-07
4.82161e-07
4.80776e-07
4.80868e-07
4.81431e-07
4.81642e-07
4.77508e-07
4.77736e-07
4.78026e-07
4.81178e-07
4.81444e-07
4.80196e-07
4.80484e-07
4.83329e-07
4.85379e-07
4.8392e-07
4.84602e-07
4.84318e-07
4.84256e-07
4.84619e-07
4.86114e-07
4.86509e-07
4.86919e-07
4.8753e-07
4.87937e-07
4.88368e-07
4.87763e-07
4.89477e-07
4.8993e-07
4.90888e-07
4.91364e-07
4.91849e-07
4.91532e-07
4.92047e-07
4.94354e-07
4.94868e-07
4.92612e-07
4.92804e-07
4.94623e-07
4.95188e-07
4.90301e-07
4.90867e-07
4.96024e-07
4.97694e-07
4.98294e-07
4.9892e-07
4.97907e-07
5.01678e-07
4.99236e-07
4.98478e-07
5.02334e-07
5.02999e-07
5.03135e-07
5.00805e-07
5.03236e-07
5.03933e-07
5.04666e-07
5.05034e-07
5.05779e-07
5.06815e-07
5.07564e-07
5.08731e-07
5.09154e-07
5.0993e-07
5.10706e-07
5.13434e-07
5.1422e-07
5.15017e-07
5.1864e-07
5.19441e-07
5.14463e-07
5.15296e-07
5.19864e-07
5.1373e-07
5.14564e-07
5.16731e-07
5.16425e-07
5.17595e-07
5.20166e-07
5.21577e-07
5.22475e-07
5.25284e-07
5.25357e-07
5.24953e-07
5.27526e-07
5.28429e-07
5.29005e-07
5.29805e-07
5.30753e-07
5.31733e-07
5.32902e-07
5.36552e-07
5.38273e-07
5.3925e-07
5.40209e-07
5.41152e-07
5.37922e-07
5.3893e-07
5.39929e-07
5.41892e-07
5.42373e-07
5.4435e-07
5.44582e-07
5.44318e-07
5.4351e-07
5.43588e-07
5.44162e-07
5.46396e-07
5.4832e-07
5.5234e-07
5.5418e-07
5.53519e-07
5.53772e-07
5.56635e-07
5.57721e-07
5.58824e-07
5.57832e-07
5.58797e-07
5.59871e-07
5.63477e-07
5.64562e-07
5.64329e-07
5.65596e-07
5.66903e-07
5.69033e-07
5.70163e-07
5.7129e-07
5.69799e-07
5.70479e-07
5.71597e-07
5.74359e-07
5.747e-07
5.7487e-07
5.76052e-07
5.77226e-07
5.79001e-07
5.82058e-07
5.83249e-07
5.84181e-07
5.78371e-07
5.79067e-07
5.80223e-07
5.82588e-07
5.87939e-07
5.89081e-07
5.90224e-07
5.92095e-07
5.92686e-07
5.94204e-07
5.96862e-07
5.98086e-07
5.98348e-07
5.99788e-07
6.01315e-07
5.99302e-07
6.00433e-07
6.11199e-07
6.61486e-07
6.62828e-07
6.64393e-07
6.03483e-07
6.02045e-07
6.03211e-07
6.1503e-07
6.23017e-07
6.2068e-07
6.17444e-07
6.19669e-07
6.2206e-07
6.21828e-07
6.22677e-07
6.23914e-07
6.28176e-07
6.26503e-07
6.27065e-07
6.26857e-07
6.26297e-07
6.28799e-07
6.33651e-07
6.36207e-07
6.357e-07
6.36076e-07
6.37208e-07
6.37118e-07
6.35718e-07
6.36853e-07
6.37978e-07
6.39366e-07
6.40715e-07
6.42384e-07
6.43529e-07
6.43514e-07
6.43936e-07
6.44498e-07
6.45084e-07
6.46138e-07
6.49648e-07
6.52629e-07
6.53623e-07
6.53081e-07
6.53121e-07
6.54278e-07
6.57037e-07
6.64275e-07
6.66913e-07
6.60484e-07
6.58085e-07
6.59071e-07
6.59067e-07
6.60554e-07
6.65171e-07
6.66863e-07
6.67882e-07
6.64613e-07
6.68868e-07
6.9785e-07
7.06748e-07
7.08106e-07
6.86349e-07
6.75639e-07
6.76808e-07
7.01763e-07
7.02758e-07
6.90334e-07
6.88044e-07
6.87276e-07
6.85742e-07
6.85597e-07
6.86763e-07
6.87095e-07
6.88132e-07
6.93167e-07
6.94185e-07
6.91197e-07
6.91243e-07
6.91925e-07
6.96201e-07
6.97859e-07
6.94776e-07
6.9488e-07
6.96028e-07
6.98846e-07
6.98219e-07
6.9917e-07
7.00074e-07
7.01909e-07
7.01541e-07
7.02015e-07
7.00578e-07
7.01497e-07
7.05807e-07
7.13191e-07
7.1611e-07
7.17198e-07
7.18086e-07
7.16186e-07
7.16462e-07
7.17063e-07
7.17106e-07
7.17417e-07
7.17459e-07
7.17883e-07
7.16169e-07
7.10524e-07
7.14764e-07
7.17336e-07
7.06803e-07
7.07415e-07
7.08198e-07
7.12617e-07
7.18782e-07
7.20779e-07
7.2603e-07
7.32034e-07
7.33518e-07
7.28373e-07
7.25835e-07
7.26266e-07
7.2698e-07
7.28185e-07
7.30629e-07
7.33277e-07
7.33952e-07
7.32861e-07
7.32461e-07
7.35054e-07
7.40112e-07
7.45056e-07
7.45318e-07
7.41479e-07
7.3395e-07
7.32747e-07
7.3336e-07
7.34589e-07
7.44978e-07
7.51308e-07
7.54359e-07
7.5398e-07
7.48096e-07
7.44142e-07
7.44894e-07
7.47824e-07
7.48601e-07
7.47328e-07
7.45514e-07
7.41905e-07
7.41741e-07
7.42158e-07
7.42636e-07
7.43102e-07
7.43586e-07
7.44211e-07
7.47483e-07
7.47934e-07
7.45516e-07
7.45748e-07
7.49875e-07
7.59671e-07
7.61799e-07
7.62293e-07
7.62699e-07
7.60642e-07
7.58526e-07
7.56866e-07
7.55534e-07
7.56543e-07
7.57262e-07
7.57032e-07
7.5566e-07
7.55507e-07
7.5554e-07
7.55709e-07
7.56016e-07
7.59284e-07
7.59912e-07
7.59178e-07
7.63422e-07
7.65758e-07
7.57373e-07
7.55882e-07
7.54033e-07
7.53758e-07
7.53985e-07
7.54198e-07
7.54883e-07
7.59718e-07
7.67151e-07
7.67444e-07
7.67621e-07
7.63993e-07
7.62877e-07
7.63111e-07
7.63258e-07
7.60198e-07
7.60172e-07
7.60298e-07
7.60412e-07
7.60568e-07
7.61761e-07
7.64284e-07
7.67126e-07
7.68552e-07
7.68667e-07
7.66174e-07
7.62893e-07
7.6537e-07
7.70335e-07
7.77518e-07
7.92932e-07
8.48238e-07
8.48249e-07
4.79681e-07
4.76359e-07
4.76966e-07
4.78792e-07
4.79299e-07
4.79025e-07
4.80728e-07
4.8058e-07
4.80443e-07
4.80325e-07
4.7957e-07
4.79926e-07
4.7985e-07
4.79678e-07
4.77441e-07
4.80306e-07
4.80284e-07
4.80276e-07
4.79093e-07
4.77632e-07
4.77665e-07
4.79259e-07
4.80213e-07
4.80281e-07
4.79624e-07
4.80953e-07
4.81059e-07
4.81183e-07
4.82836e-07
4.84877e-07
4.80524e-07
4.8069e-07
4.81201e-07
4.8092e-07
4.82554e-07
4.82769e-07
4.8299e-07
4.81524e-07
4.76469e-07
4.76736e-07
4.80907e-07
4.81196e-07
4.8132e-07
4.83062e-07
4.84266e-07
4.84597e-07
4.84935e-07
4.85099e-07
4.84621e-07
4.85005e-07
4.86129e-07
4.86438e-07
4.86842e-07
4.87941e-07
4.88364e-07
4.87562e-07
4.88551e-07
4.88027e-07
4.88496e-07
4.89962e-07
4.93192e-07
4.94898e-07
4.94895e-07
4.93859e-07
4.92434e-07
4.92973e-07
4.92067e-07
4.94629e-07
4.95193e-07
4.95277e-07
4.90436e-07
4.93492e-07
4.92567e-07
4.95263e-07
4.98187e-07
4.97905e-07
5.01734e-07
5.03202e-07
5.03851e-07
5.00658e-07
5.01331e-07
5.02834e-07
5.01669e-07
5.01114e-07
5.01814e-07
5.02544e-07
5.03278e-07
5.05847e-07
5.07398e-07
5.08148e-07
5.08897e-07
5.10987e-07
5.12205e-07
5.1206e-07
5.17324e-07
5.19932e-07
5.2073e-07
5.1865e-07
5.19441e-07
5.23319e-07
5.21489e-07
5.23163e-07
5.23993e-07
5.17036e-07
5.1324e-07
5.13401e-07
5.1426e-07
5.16607e-07
5.21255e-07
5.22893e-07
5.25277e-07
5.28258e-07
5.29153e-07
5.28389e-07
5.27048e-07
5.27951e-07
5.30307e-07
5.31251e-07
5.31725e-07
5.33975e-07
5.34938e-07
5.35776e-07
5.3814e-07
5.40199e-07
5.39273e-07
5.37938e-07
5.39489e-07
5.4332e-07
5.44671e-07
5.45976e-07
5.52879e-07
5.52502e-07
5.53563e-07
5.52574e-07
5.49412e-07
5.44182e-07
5.42864e-07
5.46332e-07
5.47479e-07
5.48301e-07
5.50518e-07
5.54274e-07
5.55349e-07
5.5685e-07
5.58563e-07
5.57874e-07
5.59218e-07
5.62141e-07
5.6138e-07
5.62289e-07
5.63921e-07
5.66818e-07
5.67922e-07
5.69042e-07
5.70178e-07
5.69869e-07
5.69636e-07
5.70754e-07
5.75982e-07
5.79164e-07
5.80339e-07
5.81529e-07
5.83689e-07
5.87176e-07
5.91105e-07
5.9914e-07
5.89828e-07
5.85915e-07
5.81734e-07
5.79094e-07
5.80217e-07
5.82945e-07
5.85147e-07
5.8882e-07
5.90217e-07
5.91365e-07
5.93016e-07
5.9448e-07
5.95918e-07
5.98039e-07
5.99201e-07
6.00362e-07
6.01265e-07
6.02865e-07
6.23839e-07
6.63519e-07
6.65023e-07
6.26278e-07
5.99619e-07
6.009e-07
6.02102e-07
6.12373e-07
6.22014e-07
6.23182e-07
6.17224e-07
6.16887e-07
6.20516e-07
6.21541e-07
6.2176e-07
6.26696e-07
6.27514e-07
6.34649e-07
6.29322e-07
6.26496e-07
6.25846e-07
6.25675e-07
6.26848e-07
6.31231e-07
6.33401e-07
6.33652e-07
6.35602e-07
6.37145e-07
6.3517e-07
6.35711e-07
6.37765e-07
6.41095e-07
6.41546e-07
6.40543e-07
6.40913e-07
6.41689e-07
6.42804e-07
6.43961e-07
6.47833e-07
6.50664e-07
6.51773e-07
6.52419e-07
6.53109e-07
6.52877e-07
6.53704e-07
6.56535e-07
6.63767e-07
6.68254e-07
6.72175e-07
6.67476e-07
6.61577e-07
6.58244e-07
6.57349e-07
6.58431e-07
6.59437e-07
6.60076e-07
6.5951e-07
6.60535e-07
6.63748e-07
6.83721e-07
6.97981e-07
6.91776e-07
6.731e-07
6.74419e-07
6.75646e-07
7.03609e-07
7.07799e-07
6.91767e-07
6.84967e-07
6.83258e-07
6.83229e-07
6.84083e-07
6.84468e-07
6.85474e-07
6.87088e-07
6.90258e-07
6.93074e-07
6.93405e-07
6.92938e-07
6.96787e-07
7.06987e-07
7.11355e-07
7.05884e-07
7.0231e-07
6.99238e-07
6.95408e-07
6.9638e-07
6.97534e-07
6.99943e-07
7.00829e-07
7.00595e-07
7.01378e-07
6.99764e-07
7.00011e-07
7.0213e-07
7.10853e-07
7.14479e-07
7.15923e-07
7.14065e-07
7.14783e-07
7.15271e-07
7.14919e-07
7.15526e-07
7.15252e-07
7.15175e-07
7.17123e-07
7.16771e-07
7.10386e-07
7.12844e-07
7.2816e-07
7.25965e-07
7.0997e-07
7.10053e-07
7.23839e-07
7.36808e-07
7.31182e-07
7.41876e-07
7.30918e-07
7.26149e-07
7.25683e-07
7.26225e-07
7.26728e-07
7.27667e-07
7.28581e-07
7.29272e-07
7.29156e-07
7.28514e-07
7.28465e-07
7.29014e-07
7.29155e-07
7.29844e-07
7.30513e-07
7.31233e-07
7.32264e-07
7.32843e-07
7.33853e-07
7.36834e-07
7.47109e-07
7.49826e-07
7.51337e-07
7.53235e-07
7.54358e-07
7.48145e-07
7.42983e-07
7.44051e-07
7.48902e-07
7.61251e-07
7.62941e-07
7.65244e-07
7.63707e-07
7.48443e-07
7.42481e-07
7.42287e-07
7.42825e-07
7.43103e-07
7.44141e-07
7.4475e-07
7.44743e-07
7.45196e-07
7.45951e-07
7.53228e-07
7.59687e-07
7.60127e-07
7.59357e-07
7.56498e-07
7.56247e-07
7.53994e-07
7.51838e-07
7.53172e-07
7.57008e-07
7.57484e-07
7.57891e-07
7.56425e-07
7.55166e-07
7.55272e-07
7.55598e-07
7.55853e-07
7.57552e-07
7.62534e-07
7.70945e-07
7.88652e-07
7.90499e-07
7.88644e-07
7.64262e-07
7.55992e-07
7.5576e-07
7.54824e-07
7.5409e-07
7.55504e-07
7.59087e-07
7.5944e-07
7.59872e-07
7.57182e-07
7.59267e-07
7.60732e-07
7.59688e-07
7.59822e-07
7.59971e-07
7.601e-07
7.60208e-07
7.64758e-07
7.63874e-07
7.60098e-07
7.60052e-07
7.6049e-07
7.63302e-07
7.66211e-07
7.68749e-07
7.68809e-07
7.68728e-07
7.6877e-07
7.65777e-07
7.68998e-07
7.83235e-07
8.38259e-07
8.48459e-07
4.82322e-07
4.76735e-07
4.79444e-07
4.80073e-07
4.80126e-07
4.78587e-07
4.79889e-07
4.7933e-07
4.80067e-07
4.78833e-07
4.78727e-07
4.78873e-07
4.78595e-07
4.78169e-07
4.77441e-07
4.77405e-07
4.77384e-07
4.79022e-07
4.78906e-07
4.78381e-07
4.78888e-07
4.78935e-07
4.78993e-07
4.80282e-07
4.80363e-07
4.78731e-07
4.80894e-07
4.80883e-07
4.85071e-07
4.85219e-07
4.85383e-07
4.81486e-07
4.8038e-07
4.80573e-07
4.82551e-07
4.82768e-07
4.8235e-07
4.7949e-07
4.7647e-07
4.76736e-07
4.77399e-07
4.78629e-07
4.81224e-07
4.83945e-07
4.84264e-07
4.82375e-07
4.82712e-07
4.83938e-07
4.85825e-07
4.85653e-07
4.86056e-07
4.87007e-07
4.87406e-07
4.87825e-07
4.87248e-07
4.87499e-07
4.86972e-07
4.87429e-07
4.89438e-07
4.8991e-07
4.90395e-07
4.96113e-07
4.96627e-07
4.96099e-07
4.92435e-07
4.92659e-07
4.92065e-07
4.94214e-07
4.95191e-07
4.95679e-07
4.89677e-07
4.90248e-07
4.90844e-07
4.92354e-07
4.98189e-07
4.97901e-07
4.98549e-07
4.9919e-07
5.01369e-07
5.0326e-07
5.03928e-07
5.02387e-07
5.01667e-07
5.03475e-07
5.0418e-07
5.03516e-07
5.0434e-07
5.0508e-07
5.05836e-07
5.06587e-07
5.08776e-07
5.11419e-07
5.122e-07
5.12989e-07
5.16665e-07
5.17447e-07
5.22508e-07
5.28094e-07
5.28914e-07
5.23341e-07
5.18264e-07
5.2315e-07
5.17888e-07
5.11721e-07
5.12566e-07
5.13405e-07
5.17449e-07
5.2147e-07
5.22354e-07
5.22894e-07
5.23792e-07
5.24669e-07
5.29148e-07
5.30068e-07
5.2968e-07
5.27948e-07
5.2885e-07
5.31258e-07
5.32226e-07
5.32374e-07
5.31157e-07
5.31668e-07
5.32642e-07
5.35201e-07
5.36209e-07
5.38046e-07
5.4076e-07
5.4402e-07
5.49295e-07
5.55079e-07
5.56098e-07
5.56948e-07
5.51824e-07
5.49347e-07
5.5179e-07
5.45186e-07
5.42031e-07
5.42855e-07
5.44758e-07
5.47236e-07
5.49954e-07
5.54117e-07
5.56035e-07
5.57137e-07
5.58235e-07
5.60719e-07
5.61803e-07
5.62137e-07
5.61209e-07
5.62285e-07
5.64532e-07
5.66818e-07
5.67111e-07
5.67886e-07
5.68852e-07
5.69888e-07
5.72294e-07
5.73923e-07
5.76098e-07
5.78016e-07
5.7823e-07
5.78326e-07
5.8481e-07
5.94242e-07
5.93939e-07
5.99195e-07
5.89429e-07
5.86365e-07
5.81614e-07
5.79578e-07
5.80836e-07
5.83679e-07
5.85121e-07
5.85725e-07
5.86876e-07
5.8961e-07
5.92474e-07
5.94016e-07
5.96022e-07
5.9616e-07
5.97317e-07
5.98455e-07
6.05383e-07
6.42378e-07
7.57362e-07
6.51309e-07
5.96992e-07
5.98429e-07
5.9974e-07
6.00963e-07
6.13808e-07
6.18276e-07
6.19459e-07
6.16338e-07
6.14677e-07
6.16374e-07
6.21565e-07
6.26376e-07
6.27597e-07
6.31644e-07
6.32894e-07
6.3462e-07
6.30745e-07
6.24758e-07
6.24491e-07
6.25651e-07
6.26808e-07
6.28945e-07
6.30928e-07
6.3223e-07
6.33685e-07
6.34939e-07
6.36116e-07
6.38726e-07
6.40381e-07
6.41867e-07
6.42586e-07
6.43753e-07
6.45127e-07
6.46256e-07
6.46809e-07
6.48747e-07
6.49843e-07
6.50327e-07
6.49011e-07
6.49589e-07
6.50649e-07
6.52585e-07
6.55765e-07
6.59957e-07
6.64981e-07
6.68529e-07
6.72914e-07
6.70772e-07
6.62549e-07
6.58795e-07
6.57365e-07
6.58089e-07
6.58891e-07
6.58805e-07
6.58508e-07
6.61771e-07
6.76146e-07
6.80275e-07
6.70617e-07
6.71918e-07
6.73187e-07
6.88833e-07
7.03128e-07
7.04767e-07
6.94999e-07
6.85852e-07
6.8188e-07
6.81643e-07
6.82375e-07
6.8429e-07
6.86846e-07
6.8786e-07
6.88518e-07
6.89895e-07
6.89633e-07
6.90164e-07
6.92688e-07
7.01671e-07
7.06736e-07
7.12492e-07
7.08988e-07
7.01443e-07
6.94752e-07
6.95463e-07
6.97169e-07
7.00273e-07
7.0117e-07
7.00076e-07
7.00215e-07
6.98918e-07
6.99096e-07
7.00025e-07
7.07045e-07
7.11154e-07
7.12045e-07
7.0814e-07
7.08081e-07
7.0896e-07
7.09826e-07
7.11836e-07
7.15067e-07
7.16106e-07
7.14842e-07
7.1213e-07
7.09188e-07
7.10449e-07
7.27314e-07
7.28244e-07
7.21022e-07
7.12473e-07
7.30305e-07
7.52696e-07
7.55126e-07
7.56889e-07
7.57732e-07
7.38754e-07
7.26482e-07
7.26071e-07
7.26792e-07
7.27172e-07
7.27655e-07
7.28447e-07
7.27116e-07
7.26913e-07
7.27598e-07
7.28814e-07
7.31564e-07
7.38046e-07
7.38517e-07
7.3999e-07
7.40631e-07
7.37756e-07
7.32842e-07
7.33527e-07
7.3775e-07
7.49474e-07
7.5204e-07
7.52817e-07
7.53438e-07
7.46339e-07
7.42056e-07
7.42639e-07
7.43775e-07
7.52195e-07
7.62139e-07
7.63092e-07
7.65241e-07
7.6465e-07
7.49738e-07
7.43168e-07
7.43993e-07
7.4449e-07
7.44579e-07
7.45167e-07
7.44875e-07
7.44884e-07
7.45261e-07
7.46007e-07
7.46925e-07
7.5044e-07
7.59276e-07
7.60073e-07
7.54954e-07
7.50719e-07
7.51113e-07
7.51503e-07
7.53443e-07
7.5702e-07
7.57396e-07
7.5789e-07
7.58241e-07
7.58173e-07
7.58537e-07
7.58863e-07
7.59202e-07
7.60145e-07
7.71194e-07
7.88743e-07
7.89469e-07
7.90505e-07
7.89688e-07
7.73649e-07
7.58545e-07
7.5365e-07
7.53722e-07
7.53949e-07
7.5423e-07
7.54388e-07
7.54589e-07
7.5478e-07
7.55467e-07
7.59774e-07
7.64875e-07
7.66463e-07
7.66645e-07
7.66797e-07
7.66866e-07
7.65029e-07
7.65049e-07
7.65093e-07
7.6089e-07
7.60052e-07
7.60179e-07
7.6024e-07
7.60317e-07
7.613e-07
7.62339e-07
7.66856e-07
7.6561e-07
7.65552e-07
7.65581e-07
7.75224e-07
8.18707e-07
8.48206e-07
4.78868e-07
4.80042e-07
4.80871e-07
4.80626e-07
4.80153e-07
4.77895e-07
4.77728e-07
4.77886e-07
4.78134e-07
4.77197e-07
4.78888e-07
4.79291e-07
4.78062e-07
4.77997e-07
4.78989e-07
4.78195e-07
4.79091e-07
4.77737e-07
4.78906e-07
4.78021e-07
4.77425e-07
4.7747e-07
4.79795e-07
4.8028e-07
4.77858e-07
4.77954e-07
4.79367e-07
4.79219e-07
4.82819e-07
4.838e-07
4.82606e-07
4.81553e-07
4.82306e-07
4.80918e-07
4.82547e-07
4.82764e-07
4.78487e-07
4.76224e-07
4.76472e-07
4.78617e-07
4.77913e-07
4.78206e-07
4.79149e-07
4.82917e-07
4.81106e-07
4.8144e-07
4.84668e-07
4.85018e-07
4.85827e-07
4.86209e-07
4.86607e-07
4.87005e-07
4.87404e-07
4.86777e-07
4.87202e-07
4.87776e-07
4.86969e-07
4.87425e-07
4.88484e-07
4.89401e-07
4.93571e-07
4.96106e-07