/*--------------------------------*- C++ -*----------------------------------*\
  =========                 |
  \\      /  F ield         | OpenFOAM: The Open Source CFD Toolbox
   \\    /   O peration     | Website:  https://openfoam.org
    \\  /    A nd           | Version:  7
     \\/     M anipulation  |
\*---------------------------------------------------------------------------*/
FoamFile
{
    version     2.0;
    format      ascii;
    class       volScalarField;
    location    "3500";
    object      p;
}
// * * * * * * * * * * * * * * * * * * * * * * * * * * * * * * * * * * * * * //

dimensions      [1 -1 -2 0 0 0 0];

internalField   nonuniform List<scalar> 
160000
(
85748.5
85749.6
85752.1
85755.5
85759.3
85764.4
85770.7
85778.5
85788.7
85797
85805.2
85816.1
85827.4
85837.6
85849.1
85863.6
85880.5
85896.6
85910
85924.2
85942.6
85965
85987.3
86008.5
86033.1
86057.7
86076.6
86095.1
86117.2
86144.2
86176.9
86207.5
86229.7
86253.2
86288.1
86320.4
86345.8
86371.2
86403.8
86439
86470.4
86505.3
86537.5
86571.6
86603.9
86631.2
86664.4
86710.5
86753.3
86789.5
86828.1
86859.4
86891
86926.3
86960.8
87001.9
87038.9
87076
87133.7
87186.7
87216.4
87245.2
87290.8
87347.2
87407.9
87448.5
87485.7
87524
87566.4
87632.8
87674
87715.4
87765
87816.2
87870.1
87919.1
87968.2
88021.5
88070.5
88116.2
88159.2
88195.9
88236.7
88288.6
88336.3
88377.7
88425.7
88487
88548.9
88598.8
88651.2
88700.5
88737.7
88775.5
88826
88893.3
88957.9
89015.6
89073.7
89138.8
89199.4
89261.4
89317.5
89362.6
89416.9
89477.1
89539.4
89598
89648.1
89697.8
89748.1
89814.2
89877.1
89934.3
90004.9
90067.1
90128.7
90188
90233.1
90275.1
90326.5
90396.2
90464.1
90522.3
90575.4
90616.4
90657.5
90717.6
90782.3
90840.2
90907.1
90980.5
91027.2
91061.2
91102.9
91165.3
91226.7
91288
91371.7
91466
91525.6
91567.3
91620.1
91682.9
91726.7
91777.3
91840
91899.6
91963.6
92035.9
92107.7
92175
92250.1
92309.1
92369.3
92436.9
92497.6
92548.5
92599.8
92653
92706.1
92765.4
92828.7
92889.3
92955.2
93016.1
93060.1
93111.4
93173.7
93241.8
93304.9
93361
93431.4
93476.2
93516.1
93582.4
93648.9
93713.5
93760.4
93803.4
93868.1
93928.7
93982
94060.2
94132.3
94193.9
94254.8
94317.3
94381.1
94430.1
94475.4
94530.5
94586.3
94625.3
94656.5
94694.3
94735.2
94764.8
94796.2
94831.2
94865.8
94906.1
94946.2
94979.5
95008.7
95041.7
95093.1
95146.3
95189.5
95233.4
95275.4
95313.5
95356
95407.1
95450.1
95492
95545.8
95587.1
95621.3
95660.7
95696.1
95730.9
95775.8
95820.2
95863.1
95906.1
95949.6
96001.1
96050.8
96099
96170.8
96228.2
96270.2
96313.2
96363
96411.1
96462.8
96517.3
96575.2
96629.8
96678.9
96732.9
96779.2
96826.7
96881.4
96925.2
96963.4
97004.5
97038.2
97070.7
97103.4
97132.1
97164
97208.8
97255
97290.5
97330.3
97382.5
97427.9
97458.5
97486
97517.1
97551
97588.9
97625.2
97658.9
97696.6
97734.6
97767.7
97799
97841.8
97896.4
97940.9
97985.8
98025.1
98060.5
98092.6
98126
98177.3
98232.8
98273.8
98308.8
98340.7
98372.3
98408
98450.5
98485.6
98520.5
98546.7
98566.5
98588.8
98621.3
98664.5
98706.5
98749.8
98787.3
98824.7
98876.5
98921.6
98953.5
98986.3
99016.8
99041.1
99062.7
99085.3
99112.1
99139.5
99166.7
99199.4
99224.6
99248.2
99280.7
99313
99343.2
99380.2
99420.1
99452
99482.1
99509.3
99534.6
99566
99603.5
99637.1
99664.3
99693.9
99726.2
99748.3
99767
99790.7
99817.4
99842.5
99871.1
99903.6
99930.9
99957.1
99984.6
100007
100028
100046
100066
100102
100135
100161
100189
100216
100247
100292
100328
100356
100379
100400
100421
100439
100457
100482
100507
100528
100548
100572
100600
100626
100648
100668
100688
100707
100726
100747
100760
100774
100797
100827
100856
100880
100896
100912
100932
100949
100971
100994
101017
101037
101058
101078
101096
101115
101132
101146
101161
101177
101194
101211
101228
101243
101258
101275
101286
101295
101308
101316
101322
85749.1
85750.1
85752.7
85756
85760.1
85765.4
85771.7
85779
85788.2
85797.1
85805.6
85816.1
85828.8
85840.5
85851.6
85865
85882.3
85896.1
85908.7
85923
85941.5
85963.6
85985
86006.6
86032.5
86059.7
86079.3
86097.5
86118.9
86144.1
86173.8
86204
86229.5
86254.8
86288.9
86320.4
86345
86374.1
86411.7
86440.8
86468.7
86503.8
86537.8
86573.3
86604.4
86631.1
86665.5
86714.4
86756.3
86787
86819.5
86856.2
86894.4
86928.2
86962.6
87006.8
87043.9
87082.8
87129.8
87176.2
87216
87251.6
87293.8
87347.7
87402.7
87444.5
87488.2
87531.7
87577.2
87625.4
87668.1
87712.4
87763.2
87818.4
87871.7
87918.4
87966.7
88020.1
88069.2
88114.4
88156.6
88197.2
88242.9
88297.5
88341.8
88379
88424.6
88483.3
88544.2
88597.7
88645.9
88695.2
88737.3
88777.4
88832.4
88900.3
88961.9
89020.2
89076.9
89140.3
89199.4
89255.8
89319.7
89366.3
89412.3
89474.3
89537.5
89593.6
89646.1
89696.5
89747.7
89811.3
89877.2
89942.5
90009.3
90070.3
90130.5
90185.6
90233.7
90278.1
90325.8
90387.6
90455
90514.5
90569.9
90616.5
90664
90723.9
90783.1
90842.4
90912.5
90983.4
91024.8
91059.6
91106.4
91176.8
91230
91281.8
91372.9
91465.1
91527.2
91571.2
91620.3
91677
91723.5
91777.2
91841.1
91903
91972.6
92050.5
92108.1
92166.6
92250.6
92310.7
92366.5
92429.6
92489.9
92544.6
92601.7
92657.4
92711.6
92766.1
92822.8
92888.6
92959.4
93019.1
93063.5
93113.1
93171.3
93229.4
93293.5
93356.9
93431.8
93477.1
93523.6
93589.3
93645.2
93704.7
93759.3
93809
93871.8
93934.5
93997.6
94074.8
94138.1
94194.2
94254.7
94318.7
94379.8
94425.2
94469.2
94524.7
94584.1
94625.2
94658.8
94692.6
94727.9
94760.6
94792.7
94829.3
94865
94902.6
94943.1
94978.7
95007.4
95038.1
95087.2
95141.1
95184.9
95228.1
95270.1
95311.1
95351
95398.2
95447.7
95491
95536.7
95580.8
95619.3
95659.6
95698
95738.7
95781.7
95823.9
95866
95907.4
95950.7
96000.7
96050.3
96101.6
96170.7
96230.3
96270.5
96308.1
96355.5
96406.9
96460.9
96516
96575
96630.4
96682.1
96739.3
96782.4
96824.9
96881.3
96924.6
96957.9
96994.9
97034.5
97070.7
97106.1
97136.6
97164.6
97201
97249.3
97288.6
97332.1
97378.1
97418
97454.7
97489.3
97522.9
97556.3
97592.6
97625.1
97656.6
97695.6
97734.2
97765.7
97799.2
97847.9
97894.9
97936.9
97985
98025.7
98061.9
98092.3
98124.6
98180.7
98234
98274.3
98308.1
98340.4
98372.1
98405.7
98443.5
98480.7
98518
98547.7
98571.3
98596.1
98626.5
98662.5
98700.1
98742.1
98785
98829.4
98884.8
98923.6
98950.6
98979.3
99010.5
99038
99062
99084.4
99109.5
99137.4
99166
99197.9
99224.6
99251.3
99284.2
99314.7
99344.4
99377.8
99415.7
99451.7
99483.1
99510
99536.4
99568.1
99605
99637.7
99663.1
99691.6
99725.9
99748.8
99767
99789.7
99819.1
99842.5
99867.1
99902
99928.7
99953.5
99982.9
100005
100025
100047
100073
100105
100136
100162
100189
100219
100252
100288
100322
100352
100378
100400
100422
100440
100458
100481
100507
100528
100548
100572
100601
100627
100649
100668
100687
100706
100725
100745
100759
100775
100798
100823
100850
100876
100896
100914
100934
100954
100974
100996
101018
101037
101059
101076
101091
101112
101131
101146
101162
101178
101193
101211
101228
101242
101257
101274
101285
101295
101307
101316
101322
85750.6
85752.1
85754.5
85757.6
85761.5
85766.4
85773
85779.9
85788.4
85797.6
85806.2
85816.8
85830.6
85843.5
85854
85866.8
85881.5
85894.6
85908.8
85924
85941.6
85961.2
85982
86006.9
86031.7
86057.8
86081.2
86101.6
86120.9
86144
86175
86205.3
86231.7
86256.7
86285.7
86318
86345.5
86377.7
86416
86444.7
86471.7
86503.1
86537.9
86574.8
86603.4
86630.6
86671.4
86719.7
86758
86785.8
86813.8
86849.6
86893.3
86931.6
86969.1
87011.8
87049.8
87088.8
87128.1
87168.6
87216.5
87257.4
87295.8
87345.1
87401.5
87441.3
87480.4
87529.2
87576.5
87620.8
87670.3
87719.8
87766.9
87821.1
87872.2
87917.3
87967.5
88018.3
88063.4
88111.5
88156.9
88197.8
88243.7
88298.7
88347
88387.5
88432.6
88479.4
88533.8
88591.6
88640.1
88688.1
88737.3
88784.6
88842
88907.8
88968.1
89028.2
89084.6
89141
89199.3
89254.2
89312.4
89367.3
89414.5
89467.4
89529.1
89592.2
89650.1
89699.9
89754.3
89815.8
89875.6
89945.4
90010.5
90071.8
90131.9
90181.9
90227.7
90277.1
90331
90391.7
90450.8
90508.8
90563.9
90614.2
90668.3
90726.6
90786.1
90850.8
90917.8
90972
91017
91060.3
91110.7
91176.8
91235.9
91294.4
91375.3
91462.9
91528
91573.4
91620.7
91677.4
91724.8
91775.3
91840.5
91908.6
91980.8
92051.3
92109.4
92174.1
92254.9
92310.6
92360.3
92423.4
92485
92539.1
92599.9
92659
92715.7
92769.5
92823.7
92887.5
92957.3
93018.8
93068.1
93120.2
93173.7
93225.1
93284.1
93348.2
93412.4
93473.9
93540.2
93599.5
93648.1
93700.9
93760.2
93814.6
93872.4
93944.8
94018.5
94084.7
94143.9
94200.3
94257.8
94314.8
94368.3
94415.6
94465.2
94526.1
94578.4
94621.4
94658.1
94689.8
94721.1
94753.9
94786.2
94823.9
94862.2
94897.2
94931.9
94967.4
95004.7
95042.7
95094.3
95137.4
95174.7
95224.4
95267.2
95303
95342
95392.7
95442.7
95485.7
95528.4
95573.5
95620
95662.2
95699
95739
95782.7
95825
95868.4
95910.7
95955.9
96005.5
96049.7
96099.5
96165.4
96224.7
96270.6
96312.2
96353.8
96398.3
96453.7
96515.3
96580
96632.2
96682.6
96741
96785.4
96827.9
96877.9
96919.4
96951.2
96984.4
97029.9
97071.5
97107.2
97136.6
97166.2
97202.5
97243.7
97286.2
97329.7
97371.5
97411.1
97453.4
97493.1
97525.8
97559.3
97595
97628.7
97660
97692
97726.2
97762
97802.4
97847.6
97893.2
97938.6
97985.6
98024.5
98061.9
98093.2
98126.7
98184
98232.8
98273.2
98305.6
98335.9
98371.2
98407.6
98442.4
98476.9
98515.6
98547.5
98576
98602.6
98630.2
98664.2
98701.2
98738.1
98780.1
98832
98888.6
98918.9
98943.7
98973
99006
99034.8
99058.6
99080.8
99104.7
99133
99166.3
99198.7
99225.2
99254.4
99285.6
99313.6
99344.4
99380.3
99417.4
99449.9
99481
99509.7
99538.5
99570.6
99602.8
99633.2
99661.4
99693.1
99722.5
99746.3
99767.6
99791.8
99822.1
99845
99866.7
99897.3
99924.8
99949.3
99979.5
100003
100023
100047
100075
100107
100140
100166
100190
100222
100255
100284
100314
100347
100377
100400
100423
100441
100459
100484
100509
100528
100547
100569
100598
100627
100649
100667
100684
100701
100722
100742
100759
100778
100800
100821
100845
100870
100894
100915
100935
100955
100978
101000
101018
101036
101059
101075
101089
101108
101130
101147
101162
101177
101192
101210
101227
101241
101256
101272
101284
101297
101307
101315
101322
85752.5
85753.8
85756
85758.9
85762.6
85767.3
85773.7
85780.6
85788.3
85797.3
85806.9
85819.7
85833.4
85844.9
85855.2
85868.1
85882.3
85895.8
85910.7
85925.7
85943.3
85961.1
85981.5
86009.2
86030.8
86054.3
86082.4
86102.7
86122.4
86147.7
86176.8
86207.8
86236
86260.6
86285.8
86315.9
86347.5
86383.2
86420.6
86447.1
86472.2
86501.2
86535.6
86573.5
86605.6
86637.8
86677.9
86720.3
86755.5
86786.5
86815.1
86846.4
86889.7
86931.4
86968.6
87009.6
87052.2
87093.6
87133.3
87175
87219.8
87259.3
87297.5
87348
87402.3
87442.6
87481.8
87527.7
87571.9
87612.9
87662.3
87725.5
87777.7
87827.9
87869.7
87909
87960.4
88012.4
88060.4
88113.7
88156.5
88197.7
88247.9
88307.4
88353.3
88392.7
88436.7
88481.4
88533.1
88585.7
88636.2
88689.2
88738.1
88792.4
88856
88911
88964.8
89034
89095.2
89143.6
89193.8
89251
89307.3
89363.4
89415.9
89468.1
89524.9
89590.3
89649.9
89702.7
89765.4
89824.9
89879.2
89941.8
90006.8
90073.5
90136.2
90182.5
90224.4
90277.5
90335.8
90394.7
90451.6
90511.2
90560.7
90608.2
90665.1
90725.4
90790.1
90852.7
90915.2
90964.8
91010.6
91059.7
91110.6
91174.3
91239.4
91304
91377.9
91453.9
91519.1
91576.7
91631
91683
91731.1
91778.2
91837.1
91913.4
91990
92051.1
92108.9
92175.4
92245.2
92309.4
92366
92428.4
92484.6
92538.5
92605.3
92662.2
92713.7
92769.1
92823.6
92884.2
92956.8
93021
93070.6
93120.4
93171.6
93220.4
93278.2
93350.8
93415.3
93475.2
93539.2
93600.4
93653
93709.1
93771.1
93823.6
93876
93947.3
94029.7
94093.8
94149.7
94199.8
94250.8
94304
94358.1
94414.6
94474.4
94524.7
94564.2
94607.2
94651
94686.9
94716.5
94745.3
94776.2
94813.3
94854.2
94890.1
94922.4
94955.8
94997.4
95042.5
95094.4
95135.4
95172.7
95225.1
95262.2
95294.5
95334.6
95386.4
95436.4
95479.8
95521.9
95567.9
95616.9
95659.3
95698.5
95740.2
95782
95824.4
95871.1
95914.7
95959.3
96008.7
96054.8
96106.5
96159.4
96211.5
96267.4
96309.4
96351.2
96399.7
96451.5
96507.1
96570.3
96626.5
96681.1
96745.1
96791.1
96834.4
96876.5
96913.1
96945.4
96979.7
97027.2
97068.9
97103.7
97134
97167.8
97202.5
97238.4
97285.2
97327.6
97364.8
97404.7
97449.8
97492.5
97527.2
97560.8
97596.5
97633.3
97665.1
97693.8
97723.1
97761.1
97800.8
97837.3
97884.1
97939.1
97984.2
98023.8
98060.9
98094.2
98131.8
98180.3
98229.2
98271.6
98305.6
98338.6
98371.6
98405.1
98441.1
98476.7
98515.6
98545.4
98574.6
98608.6
98637.7
98669.8
98703.9
98736.2
98776.6
98833.5
98881.8
98912.9
98938.5
98966.3
98997.3
99024.4
99049.7
99076.6
99104.3
99134.4
99167.7
99198.7
99227.1
99259.3
99286.7
99311.8
99343.5
99379.4
99413.7
99447.1
99483
99510.3
99536.7
99569.3
99601.1
99631.9
99662.6
99693.6
99718.6
99742.8
99766
99789.4
99823
99849.3
99871
99895.6
99921.6
99945.8
99974
99999.5
100020
100047
100078
100109
100140
100170
100194
100221
100255
100284
100311
100341
100372
100397
100421
100443
100463
100487
100510
100530
100549
100569
100594
100623
100648
100667
100684
100698
100715
100737
100756
100778
100798
100818
100841
100866
100892
100916
100937
100957
100983
101004
101020
101036
101058
101074
101087
101104
101128
101147
101161
101176
101191
101206
101223
101239
101255
101271
101284
101297
101307
101315
101322
85753.8
85755.2
85757.4
85760.1
85763.9
85768.7
85774.8
85781.5
85789.1
85798.6
85810
85824.8
85836.2
85845
85855.2
85869.3
85883.9
85899
85914
85927.6
85942.4
85960.8
85982.5
86009.5
86033
86059.4
86085.5
86105.5
86127.7
86151.4
86174.7
86205.9
86237.1
86262.1
86286.4
86317.5
86354
86389.2
86419
86445.3
86473.8
86502.5
86534.2
86574.4
86610.6
86645.2
86685.5
86725.1
86755
86782.9
86814.1
86848.1
86889.5
86931.1
86971.3
87011.6
87053.3
87094.8
87135.3
87178.7
87223.4
87265.7
87305.9
87353
87406.1
87444.4
87481.2
87524.9
87569.9
87612.7
87663
87723.9
87773.4
87824.4
87869.5
87907.6
87954.3
88009.9
88063.6
88109.9
88152
88201.3
88253.7
88309.6
88356.1
88396.3
88440.4
88485.2
88532
88583.6
88640.2
88697
88744.5
88796.7
88861.1
88914.6
88966.5
89031.9
89095.9
89146.2
89192.9
89246.3
89304.9
89358
89414
89471.5
89529.3
89594.6
89650.9
89702.7
89768
89836.3
89890.5
89938.9
89993.7
90069.9
90143.5
90187.7
90227.7
90281
90338.7
90394.8
90453.5
90509
90554.7
90604.2
90667.2
90729.9
90792.4
90852.3
90913.1
90960.1
91005
91057.9
91109.7
91166.5
91237
91312.4
91381
91449.9
91516.2
91580.4
91634
91684.4
91736.4
91786.1
91845.7
91917
91986.1
92051.8
92118.3
92182.5
92243.4
92304.3
92364.7
92425.9
92486.1
92547.6
92615.6
92666.9
92713.4
92767.5
92823.6
92882.8
92954.7
93018.8
93065.1
93112.1
93167.6
93220.9
93284.6
93356.5
93417.4
93479.5
93542.2
93605.2
93665.2
93722.8
93782.3
93834
93885.6
93948.5
94022
94091.9
94150.6
94195.5
94241.4
94296.1
94357.4
94416.7
94468.5
94513.6
94547.7
94588.3
94642.3
94680.4
94708.3
94736.4
94767.1
94803.6
94845
94880.8
94913.2
94946.5
94987.9
95038.6
95091
95134.8
95176.6
95221.9
95255.6
95288.5
95334.6
95384.3
95437
95478.5
95514.3
95558.1
95606.3
95652.4
95699.2
95743.9
95783.6
95824.4
95872.4
95919
95964.7
96012.2
96059.9
96115.2
96161.6
96205.6
96259
96301.3
96344.1
96396.9
96450.7
96506.8
96568.5
96620.8
96674
96738.6
96791.7
96836.7
96874.5
96909
96940.9
96976.4
97025.1
97062.1
97094.7
97128.5
97163.2
97201
97238.9
97281.6
97326.6
97364.1
97402.4
97444.4
97486
97527.8
97564.2
97600
97637.5
97668.5
97693.2
97718.7
97754.4
97797.7
97839
97894.2
97944
97979.2
98016.8
98057.5
98093
98134.7
98180.8
98228.2
98268.8
98302.1
98336.6
98373.5
98408.8
98441.4
98472.7
98507
98543
98577.8
98612.3
98644
98677.3
98709.8
98742.7
98780.4
98828.8
98875.6
98907.6
98932
98957
98983.4
99011.7
99041.4
99071.5
99102.5
99139.6
99169.5
99198.1
99229.8
99262.6
99286.6
99309.4
99342.3
99379.2
99413
99444.7
99479.6
99510.2
99537.8
99569.2
99600.4
99630.9
99663.2
99691.9
99714.3
99738.2
99763.4
99787
99821.2
99852.3
99874.2
99893.5
99915
99942.4
99970.3
99997
100022
100052
100082
100109
100139
100170
100195
100224
100258
100286
100311
100338
100368
100393
100416
100441
100464
100489
100510
100530
100550
100571
100594
100620
100647
100668
100684
100697
100712
100731
100752
100774
100795
100816
100838
100861
100886
100917
100941
100960
100984
101006
101021
101036
101055
101072
101086
101104
101128
101147
101160
101174
101190
101205
101221
101237
101253
101271
101285
101295
101305
101315
101322
85755.6
85757.3
85759.6
85762.6
85766.7
85771.4
85776.4
85783.2
85791.8
85802.5
85813.5
85826.5
85837.1
85846.2
85857.2
85869.5
85883.5
85900.9
85917.8
85932.4
85946.6
85962.1
85983
86011.4
86037
86060.1
86085.1
86108.3
86134.4
86154.2
86174.6
86204.6
86236.3
86264.5
86290.7
86321
86355.9
86389.2
86419
86447
86476.2
86505.2
86538.4
86579.1
86613.7
86647.2
86686.7
86725.7
86758.2
86785.2
86813.1
86851.1
86893.2
86930.9
86972.5
87015.6
87055.2
87095.7
87140.3
87184.2
87229.3
87276.3
87313.8
87354.4
87405.7
87444.1
87479.2
87523.1
87570.9
87615.9
87666.4
87718.3
87763.6
87816.7
87868.8
87908.1
87951
88004.5
88060
88112.1
88157.8
88205.4
88259.6
88312
88357
88400.6
88447.2
88488.7
88530.5
88583.1
88647.8
88705.1
88748
88796
88860.4
88919.3
88974.5
89030.3
89085.9
89143.6
89196.9
89249
89299.8
89350.4
89410.6
89475
89542.3
89606.9
89653.9
89699.6
89763.2
89837.2
89895.8
89943.4
89996
90070.5
90146
90195.5
90235.9
90281.7
90340.4
90395.3
90454.8
90505.3
90549.4
90611
90672.7
90729.3
90790
90850.2
90907.9
90955.6
91003
91062.2
91113.9
91162
91222.7
91301.6
91379
91451.4
91520.3
91586.8
91638.2
91686.3
91741.2
91798.8
91855.8
91917.3
91984.7
92057
92121.8
92183.3
92240.6
92296.7
92359.7
92428.4
92501.2
92562.7
92620.9
92668.1
92710.8
92764.7
92829.3
92885.9
92943.2
93006.8
93059.1
93108.6
93165.8
93225.1
93291.6
93366.7
93423.7
93477.8
93543.6
93617.2
93678.3
93736.3
93793.2
93840.6
93890.6
93959.3
94029
94086.6
94135.5
94182.7
94235.2
94297.6
94368.9
94415.3
94455.1
94496.5
94529.8
94566.3
94622.1
94667
94697.5
94726.4
94758.7
94795.3
94837.2
94874.7
94906.8
94940.4
94984
95030.7
95079.6
95128.1
95171.2
95214.3
95253
95292.5
95338.5
95384
95435.8
95477.4
95510.4
95547.6
95595.2
95650.4
95700.6
95746.9
95787.1
95825.8
95870
95917.8
95968.4
96015.2
96061
96113.2
96168.6
96215.7
96254.3
96293.5
96341.1
96396.6
96450.2
96502.8
96557.1
96612.2
96673.5
96738
96787.6
96830.7
96870.2
96909.4
96939.8
96970.5
97018
97055.1
97086.8
97121.1
97157.5
97197.5
97237.5
97279.1
97323.5
97364.2
97406.6
97442
97477.8
97525.8
97567.3
97603.8
97636.9
97664.3
97689.8
97718.6
97756.3
97798.2
97844
97897.1
97944.5
97977
98010.9
98055.6
98095
98139.5
98181.4
98225.7
98265.4
98299
98333.9
98369.5
98406.9
98442.5
98476.4
98508.1
98540.9
98578.4
98614.9
98646.9
98678.5
98713.1
98749.7
98787.8
98828.3
98867
98900.8
98924.1
98948.3
98976.2
99003.6
99035.2
99068.8
99101.6
99140.6
99166.7
99192.7
99228.3
99262.4
99287.4
99311.3
99343.5
99379.8
99412.8
99444.1
99476.3
99507.6
99537.9
99568.8
99600.5
99633.8
99664.2
99688.8
99710.1
99733.8
99761.2
99787.1
99818.1
99851.5
99873.2
99891.9
99913.5
99939.5
99965.6
99993.4
100026
100057
100082
100107
100141
100172
100196
100223
100259
100289
100313
100335
100360
100390
100416
100439
100463
100487
100508
100530
100551
100573
100595
100620
100644
100667
100683
100695
100709
100728
100750
100772
100793
100814
100837
100859
100882
100914
100942
100962
100983
101006
101022
101037
101053
101071
101086
101103
101127
101145
101158
101173
101189
101204
101220
101236
101253
101273
101284
101294
101304
101314
101322
85758.8
85760.2
85762.5
85765.9
85770
85774
85778.7
85785.6
85793.9
85804.3
85815.8
85828
85837.7
85847
85858.6
85872.1
85887.5
85903.3
85921
85936.9
85950
85965
85989.1
86017.2
86041.4
86062.6
86084.7
86107.8
86133.8
86155.5
86177.1
86205.3
86236.7
86267.1
86296.2
86325.3
86355.5
86388.2
86420.7
86452.6
86481.7
86509.5
86542.9
86582.5
86615.2
86648
86687.6
86724.6
86757.6
86787.1
86817.1
86854.8
86895.9
86932.6
86973.8
87019.9
87060.3
87101
87147.7
87190.9
87236.4
87282.4
87316.8
87351.2
87397.9
87444.9
87481.1
87518.2
87564.7
87618.9
87672.6
87716.3
87759.1
87812.6
87864.1
87908.2
87955.2
88006
88059.9
88113.2
88160.7
88211.8
88268.3
88311.6
88353
88401.7
88449.9
88491.6
88535.7
88588.5
88653
88709.9
88753.2
88801.7
88865.3
88930.7
88982.7
89027.2
89076.3
89140.3
89196
89247.2
89295.4
89347.3
89415.3
89477.2
89544.9
89614.8
89657.5
89701.2
89771.8
89841.8
89898.9
89948.4
90004.4
90077.9
90147.4
90194.1
90237.6
90282.7
90333
90394.3
90458.4
90504
90547.7
90617.2
90679.7
90731.5
90785
90842.7
90904.9
90960.1
91011.3
91066
91112.3
91159.9
91216.9
91285.1
91376.8
91454.7
91522.9
91587
91643.8
91693
91743.8
91800.7
91861
91927.4
91996.6
92069.7
92122
92176.8
92238.1
92288.4
92353.3
92432.3
92512.4
92571.6
92626.1
92670.6
92709.6
92761.4
92835.2
92888.4
92940.4
93003.1
93061.4
93111.4
93162.6
93226.6
93292.3
93360.8
93425.2
93481.8
93547.7
93624
93686.3
93744.7
93802.4
93853
93906.3
93972.5
94030.5
94074.9
94117.8
94173
94237.6
94298.3
94359.4
94403.7
94445.3
94486.6
94518
94550.6
94599.2
94648.2
94685.1
94716.4
94748.5
94787.8
94832.6
94871.3
94904.4
94938.4
94979
95018.4
95063.1
95120
95163.8
95204.4
95251.3
95298.4
95340.2
95382.5
95432.9
95476.5
95510.6
95546
95591.1
95649.9
95698.6
95743.7
95788.4
95829.1
95869.1
95913.4
95964.8
96015
96065.1
96115.7
96173
96216.5
96253
96295.5
96344.9
96399
96451
96499.4
96549.2
96605.3
96669.2
96731.6
96780.4
96820.6
96858.9
96897.3
96937.5
96972.4
97012.3
97048.2
97080.8
97117
97156.3
97198.2
97235.8
97276.4
97318.8
97358.2
97399
97437.1
97477.5
97529.3
97569.5
97600.5
97631.8
97660.9
97690
97723.1
97757.6
97797.2
97843
97894.6
97942.4
97976.7
98012.3
98057.8
98097.2
98136.8
98177.2
98221.4
98264.3
98299.8
98333.7
98367.5
98405.1
98439.7
98475.3
98510.2
98544
98583.9
98619.3
98646.2
98675.3
98715.3
98756.6
98794.2
98827.4
98860
98890.2
98914
98938.4
98971.9
99002
99033
99065.4
99097.7
99133.8
99160.8
99186.3
99224.1
99263.6
99292.3
99318.2
99347.1
99378.9
99410.4
99443.1
99476.5
99506.5
99538.1
99566.9
99596
99632
99663
99687.2
99709.3
99732.4
99758.3
99788
99818.2
99845.1
99868.8
99890.3
99913.2
99938
99962.7
99990.2
100028
100060
100082
100105
100139
100172
100198
100225
100258
100290
100314
100334
100356
100384
100414
100440
100464
100486
100505
100527
100552
100575
100596
100617
100639
100663
100682
100695
100709
100726
100745
100766
100792
100814
100836
100857
100880
100909
100942
100965
100985
101004
101021
101039
101055
101072
101087
101103
101124
101141
101156
101170
101186
101202
101218
101234
101253
101270
101283
101294
101305
101316
101323
85762.4
85763.5
85765.8
85768.9
85772.7
85776.8
85781.9
85788.6
85796.4
85806.4
85817.8
85829.6
85839.4
85849.3
85861.8
85877.4
85891.2
85904.2
85921.1
85939.8
85955.4
85973.5
85995.3
86019
86044.2
86067.5
86085.7
86105.5
86133.3
86156.4
86180
86209.7
86241.6
86268.5
86294.7
86325.9
86359.3
86395.9
86428.3
86456
86485.3
86515.8
86549.8
86586.6
86617.8
86650.4
86687.6
86723
86754.5
86784.9
86820.9
86860.9
86898.6
86936
86979.6
87025.3
87067.6
87111.6
87157.6
87196
87237
87281.7
87317.5
87352.5
87396.1
87441.9
87480.9
87517.3
87560.8
87618.2
87670.7
87712.1
87755.3
87812.9
87864.7
87909.5
87956.4
88011.1
88069.8
88118.7
88164.7
88216.1
88264.5
88308.6
88355.1
88407.1
88455
88493.4
88535.7
88592.1
88657.1
88714.1
88761.8
88814.6
88871.8
88926.9
88983.9
89032.5
89077.8
89129.9
89188.5
89243.8
89293.4
89352
89421.4
89483.6
89552.1
89615.5
89662.2
89715.6
89781.5
89838.4
89900.1
89956.4
90017.1
90083.2
90139.7
90187.6
90237.4
90285.1
90334.7
90397.8
90459.2
90501
90542.9
90614.7
90687.8
90741.1
90787.2
90838.9
90905.5
90966.2
91013.8
91059.1
91107.2
91161.5
91217.6
91285.1
91385.5
91458.9
91516.5
91579.1
91647.4
91697.2
91744.9
91807.8
91878.5
91938.4
91999.5
92066.6
92124.3
92190.4
92241.9
92287.2
92351.1
92429.1
92506.5
92571.4
92630.7
92674.8
92715.5
92771.5
92837.3
92885.5
92935.3
93004.9
93072.6
93116.8
93158.2
93218.6
93297.8
93359.5
93414.7
93480
93559
93632.8
93693
93751.7
93817.1
93877.3
93928.8
93976.8
94020.3
94063.1
94107.5
94165.6
94238.9
94293
94339.1
94379.8
94423.1
94472.9
94507.3
94540
94582.2
94629.7
94672.5
94707.4
94739.3
94780.2
94825.9
94865.3
94900.8
94936.9
94975.8
95011.1
95049.5
95103.7
95153.5
95200.7
95252.8
95296.6
95338.8
95383.2
95431.1
95473.8
95510.1
95548.5
95592.9
95647.2
95700.3
95745.6
95786.8
95825.5
95867.8
95920.4
95967.3
96012.5
96064.3
96114.9
96167.8
96213.5
96252.7
96297.6
96347.8
96399.2
96450.2
96498
96549.4
96608.1
96663.7
96719.8
96771.5
96811.1
96848.3
96885.8
96928.8
96966.4
97001.9
97042
97079.3
97114.3
97154.5
97195.5
97231.3
97275
97316.8
97350.6
97389.5
97430.9
97476
97529.1
97569.5
97598.3
97627.3
97659.5
97692.2
97724.5
97756.4
97796
97840.8
97889.8
97936
97973.8
98014.4
98059
98099.1
98139.1
98175.8
98217.2
98263.3
98300.9
98334.2
98368.6
98407.1
98437.8
98469.6
98507
98544.5
98588.5
98622.3
98647.8
98674.7
98713.8
98758.8
98795.9
98824
98853.8
98881
98904.2
98930.4
98964.3
98999.5
99033.4
99063.6
99093.1
99123.9
99153.7
99184
99221.7
99265.6
99295.6
99320.7
99345.4
99374.2
99411.4
99445.6
99477.4
99506.3
99535.5
99564.8
99593.1
99627.7
99660.5
99684.3
99707.3
99730.7
99755.9
99789.7
99822.2
99843.4
99863.4
99888.2
99911.3
99935.9
99961.9
99990.5
100030
100060
100084
100109
100140
100172
100197
100223
100257
100289
100311
100331
100356
100382
100410
100441
100465
100484
100503
100525
100549
100574
100598
100617
100635
100655
100677
100694
100710
100727
100743
100763
100789
100812
100834
100856
100879
100907
100938
100965
100985
101003
101022
101041
101057
101072
101088
101105
101120
101136
101152
101168
101185
101201
101217
101234
101254
101268
101279
101292
101306
101316
101323
85765.7
85766.6
85768.7
85771.8
85775.7
85779.5
85784.4
85791.5
85800
85810.5
85820.7
85831.1
85841.4
85852
85865.5
85880.9
85894.3
85907.4
85926.1
85945.7
85962.8
85979.9
85998.8
86020.9
86044.6
86067.2
86087.3
86110.3
86135.9
86159.4
86185.4
86214.3
86244.4
86270.8
86297.8
86331.4
86365.8
86405.9
86433.8
86456.8
86484.1
86518.6
86554.9
86588.9
86620.3
86654
86688.2
86723.3
86754.6
86784.7
86824.1
86870.2
86904.4
86938.4
86985.1
87030.2
87073
87119.5
87162.7
87198.9
87239
87282.6
87319.7
87355.6
87393.6
87434.3
87479
87518.7
87560.3
87616.4
87670
87714.5
87761.5
87816.4
87863.1
87905.5
87957.1
88020.1
88078.3
88122.5
88165.3
88215.7
88264.2
88309.5
88358.7
88413.1
88459
88497.8
88540.5
88594.4
88657.2
88714.7
88767.3
88823.3
88878.6
88929.3
88985.5
89035.1
89079.1
89130.5
89190.4
89241.9
89291.5
89356.7
89420
89482.8
89551.5
89613.9
89671.7
89743.5
89794
89842.4
89900.2
89954.4
90017.4
90082.2
90135
90185.1
90239.4
90285.9
90335.5
90397.1
90453.6
90501.7
90551
90610
90680
90741.8
90796.9
90856
90910
90960.5
91009.1
91057.3
91108.4
91160.2
91219.8
91304.2
91392.1
91458.1
91511.2
91569.1
91643
91702.6
91760.1
91823.4
91882.8
91943.2
92011.6
92070.3
92125.2
92193.6
92246.8
92298.3
92357.8
92421.4
92497.2
92566.5
92631.9
92680.8
92726.8
92779.6
92829.1
92877.7
92935.5
93006
93073.2
93123.2
93169.4
93220.7
93286.2
93355.5
93416.5
93488.5
93570.3
93635.9
93695.9
93764.9
93846.8
93889.9
93930.2
93971.2
94010.8
94055.1
94103.9
94163.7
94230.1
94277.7
94323.2
94363.1
94402.3
94449.2
94488.9
94527.6
94570.2
94613.8
94658.6
94697.4
94730.9
94769.9
94817.7
94859.2
94895.4
94933.9
94973.6
95009.3
95046.5
95094.7
95145.8
95196.6
95246
95287.8
95331
95381.1
95431.5
95471
95508.8
95549.1
95594.2
95650.4
95702.1
95742.5
95782.1
95828.3
95874.2
95923.4
95969.1
96014
96064.7
96116.2
96164
96207.9
96254.9
96304.2
96350.6
96397.8
96448.5
96494.1
96541.9
96602.8
96658.6
96713.9
96765.4
96804.3
96840
96875.1
96915.1
96959.5
96998.7
97036.9
97075.3
97109.2
97147.4
97193.3
97230
97274.9
97316.6
97347.6
97380.5
97420.8
97468.4
97521.3
97563.3
97598.3
97635.2
97660.7
97686.3
97720.9
97757.7
97805.3
97843.2
97881.9
97926.7
97967.5
98014.5
98058.8
98100.1
98138.6
98174.4
98217.3
98262.7
98301.6
98333.2
98364.7
98399.9
98435.4
98471.5
98509.6
98547.9
98584.6
98621.3
98653.1
98681.7
98718
98757.1
98788.8
98815.9
98844.7
98875.8
98901.3
98926.7
98954.1
98987.1
99026.2
99062.4
99093.7
99120.5
99147.7
99181.1
99218.8
99262
99294.5
99321.9
99345.6
99372
99408.7
99441.9
99475.1
99507
99534.6
99562.6
99591.2
99621.6
99654.4
99681.2
99706.2
99731.8
99757.2
99786.4
99820
99842.5
99861.7
99885.3
99907.8
99930.4
99959.7
99995.7
100033
100063
100090
100115
100140
100171
100195
100220
100252
100285
100309
100332
100356
100379
100404
100433
100464
100484
100502
100524
100546
100571
100598
100617
100633
100651
100669
100690
100708
100725
100743
100765
100787
100808
100829
100854
100882
100910
100936
100961
100984
101003
101022
101039
101055
101071
101088
101105
101118
101131
101149
101166
101184
101201
101217
101233
101251
101266
101278
101291
101304
101315
101322
85769
85770
85771.4
85774.8
85778.4
85782.2
85787.8
85795.2
85804.2
85814.2
85824.1
85834.4
85844.7
85856.4
85869.2
85883.7
85899
85913.1
85932.4
85952.3
85969.2
85982.6
85998.7
86023.4
86046
86068.3
86092.6
86116.4
86139.7
86164.4
86191.2
86216.3
86243.7
86274.5
86307
86338.3
86367.9
86403.4
86437.9
86462.4
86488.5
86525.2
86560.4
86593.1
86625.5
86658.6
86689.6
86722.4
86753.3
86784.6
86827.4
86875.4
86908.8
86942.9
86989.4
87032.6
87076.4
87125.2
87166.2
87202.6
87244.1
87284.7
87321.2
87358.1
87392.2
87427.6
87473.8
87519.5
87564.8
87622.7
87676.8
87722.9
87769
87817.5
87863.5
87907.8
87961.1
88019.7
88073.1
88121.3
88170.9
88223.5
88267
88309.1
88360.1
88415.6
88462.5
88503.4
88546.4
88601.6
88659.1
88712.8
88769.1
88828.2
88890.3
88940.6
88989.6
89035
89078.4
89131.4
89191.8
89241.3
89291.3
89362.5
89422
89481.3
89547.5
89610.2
89677
89746.4
89800.6
89856.6
89903
89948
90012.8
90082.5
90137.1
90183.9
90235.3
90287.7
90343.5
90400.6
90451.3
90500.9
90554
90610.6
90676.4
90741.6
90802.1
90858.7
90909.5
90960.4
91011.2
91061.5
91113.7
91164.9
91231
91321.2
91383.6
91438.6
91506.1
91582
91658.7
91714.2
91768.1
91826.1
91884.1
91951.3
92024.1
92073.7
92123
92195.4
92253.3
92311.8
92363
92415
92496
92568.9
92631.7
92679.1
92725.8
92783.2
92832.5
92878.9
92935.4
93006.8
93070.2
93124.6
93179.6
93229.9
93287.7
93359.4
93422.4
93490.3
93572.9
93640.3
93705
93774.3
93839.2
93888.5
93931.8
93968.5
94004.7
94054.9
94109.3
94161.7
94208.9
94250.7
94302.8
94350.2
94391.5
94433.7
94470.8
94505.9
94553.2
94601.2
94645.4
94684.8
94722.7
94762.8
94807.1
94850.5
94889.2
94928.3
94970.3
95007.9
95044.6
95092.8
95144.8
95197.1
95245.2
95284.6
95324.9
95374
95423.5
95463.4
95504.1
95545.8
95592
95650.9
95702