/*--------------------------------*- C++ -*----------------------------------*\
  =========                 |
  \\      /  F ield         | OpenFOAM: The Open Source CFD Toolbox
   \\    /   O peration     | Website:  https://openfoam.org
    \\  /    A nd           | Version:  7
     \\/     M anipulation  |
\*---------------------------------------------------------------------------*/
FoamFile
{
    version     2.0;
    format      ascii;
    class       surfaceScalarField;
    location    "3500";
    object      phi;
}
// * * * * * * * * * * * * * * * * * * * * * * * * * * * * * * * * * * * * * //

dimensions      [0 3 -1 0 0 0 0];

internalField   nonuniform List<scalar> 
319200
(
-1.14007e-16
-9.94181e-17
-2.81373e-16
-6.05003e-17
-4.43777e-16
-7.39591e-17
-6.31853e-16
-6.66276e-17
-7.82921e-16
-1.26862e-16
-8.88524e-16
-1.31584e-16
-9.61411e-16
-1.68739e-16
-1.08301e-15
-6.31892e-17
-1.35058e-15
4.87593e-17
-1.57537e-15
-2.84296e-17
-1.74718e-15
-7.17033e-17
-1.96319e-15
-1.25467e-17
-1.97757e-15
-2.40928e-16
-1.6716e-15
-5.48956e-16
-1.47407e-15
-3.9089e-16
-1.51717e-15
-1.65972e-16
-1.49348e-15
-2.11985e-16
-1.74635e-15
6.77888e-17
-2.19447e-15
2.39764e-16
-2.58198e-15
1.83975e-16
-2.89797e-15
1.1569e-16
-3.2714e-15
1.63928e-16
-3.85566e-15
3.66976e-16
-4.40689e-15
3.22952e-16
-4.67393e-15
6.54366e-17
-4.50425e-15
-4.03001e-16
-4.0192e-15
-7.17207e-16
-3.69933e-15
-5.28454e-16
-3.56859e-15
-3.23671e-16
-3.7284e-15
-1.03294e-17
-4.29683e-15
3.84521e-16
-5.00424e-15
5.05559e-16
-5.26489e-15
2.99416e-17
-5.1952e-15
-2.55071e-16
-5.25641e-15
-1.16337e-16
-5.43772e-15
-1.95771e-17
-5.7955e-15
1.54641e-16
-5.50486e-15
-4.95352e-16
-4.57412e-15
-1.08564e-15
-4.38543e-15
-3.58677e-16
-4.76855e-15
2.1463e-16
-5.1037e-15
1.68655e-16
-5.23358e-15
-5.9882e-17
-5.16538e-15
-2.34791e-16
-5.23732e-15
-1.14641e-16
-5.40982e-15
3.24069e-18
-5.38809e-15
-1.75377e-16
-5.12885e-15
-3.99026e-16
-4.80942e-15
-4.76664e-16
-5.35104e-15
4.01742e-16
-6.76784e-15
1.2555e-15
-7.63288e-15
6.80574e-16
-7.18037e-15
-6.20842e-16
-6.89121e-15
-4.45821e-16
-6.73754e-15
-3.11003e-16
-6.18602e-15
-6.80499e-16
-5.35909e-15
-9.81913e-16
-4.78657e-15
-6.93099e-16
-5.2778e-15
3.70149e-16
-6.62703e-15
1.21826e-15
-6.88365e-15
8.72203e-17
-6.05429e-15
-9.62204e-16
-5.82181e-15
-3.60613e-16
-5.86617e-15
-7.59642e-17
-6.53784e-15
5.56519e-16
-7.39616e-15
7.10233e-16
-7.15022e-15
-3.78658e-16
-5.72911e-15
-1.55746e-15
-4.41009e-15
-1.42136e-15
-5.62447e-15
1.12645e-15
-7.07829e-15
1.31452e-15
-7.60321e-15
4.14779e-16
-7.98467e-15
2.49718e-16
-7.80182e-15
-2.91776e-16
-7.65694e-15
-2.605e-16
-7.85767e-15
9.18947e-17
-8.17896e-15
2.07218e-16
-8.45068e-15
1.68334e-16
-8.7743e-15
2.0797e-16
-9.19528e-15
3.17737e-16
-9.86245e-15
5.53205e-16
-9.67499e-15
-3.05e-16
-8.68285e-15
-1.09458e-15
-7.38635e-15
-1.39351e-15
-6.22524e-15
-1.25862e-15
-6.04362e-15
-2.75898e-16
-6.23772e-15
1.01163e-16
-6.70105e-15
3.80177e-16
-7.36759e-15
5.78218e-16
-7.64715e-15
1.84117e-16
-8.57306e-15
8.48213e-16
-9.75096e-15
1.08113e-15
-9.96787e-15
1.19813e-16
-9.62381e-15
-4.35456e-16
-8.82388e-15
-8.83308e-16
-7.99014e-15
-9.04886e-16
-7.48854e-15
-5.7909e-16
-6.89894e-15
-6.61467e-16
-6.55953e-15
-4.10839e-16
-6.46708e-15
-1.56221e-16
-6.53512e-15
-2.71598e-18
-7.16081e-15
5.68076e-16
-6.90781e-15
-3.26995e-16
-6.22449e-15
-7.47046e-16
-6.83177e-15
5.48355e-16
-7.26321e-15
3.62842e-16
-7.57265e-15
2.54086e-16
-8.41156e-15
7.73679e-16
-8.82896e-15
3.52647e-16
-9.11639e-15
2.26444e-16
-9.23458e-15
5.55278e-17
-9.54687e-15
2.62832e-16
-9.58889e-15
-1.66626e-17
-8.73258e-15
-9.06691e-16
-8.2398e-15
-5.41111e-16
-7.85288e-15
-4.37411e-16
-7.67253e-15
-2.24844e-16
-8.1074e-15
3.87357e-16
-8.03599e-15
-1.21069e-16
-7.48358e-15
-5.9809e-16
-7.63344e-15
1.07191e-16
-8.593e-15
9.20021e-16
-9.94816e-15
1.31279e-15
-1.12175e-14
1.22691e-15
-1.22943e-14
1.03466e-15
-1.23241e-14
-1.3773e-17
-1.11483e-14
-1.21626e-15
-1.03929e-14
-7.8983e-16
-1.03097e-14
-1.19094e-16
-1.00574e-14
-2.87385e-16
-9.49187e-15
-5.95443e-16
-9.21461e-15
-3.04769e-16
-1.00583e-14
8.13933e-16
-1.05778e-14
4.86295e-16
-9.99412e-15
-6.12066e-16
-8.49511e-15
-1.52476e-15
-7.76662e-15
-7.52144e-16
-8.54924e-15
7.58448e-16
-8.50625e-15
-6.36226e-17
-8.65443e-15
1.30017e-16
-8.41661e-15
-2.59003e-16
-7.58362e-15
-8.53847e-16
-7.61218e-15
1.38404e-17
-8.70269e-15
1.0729e-15
-9.44287e-15
7.22585e-16
-9.50942e-15
5.16654e-17
-9.38451e-15
-1.38359e-16
-8.95948e-15
-4.37329e-16
-7.92202e-15
-1.0484e-15
-6.55714e-15
-1.37422e-15
-6.53611e-15
-2.93999e-17
-7.40727e-15
8.62947e-16
-7.40585e-15
-8.15682e-18
-7.20419e-15
-2.07986e-16
-7.53813e-15
3.29053e-16
-8.6113e-15
1.06905e-15
-9.73174e-15
1.11718e-15
-1.05286e-14
7.95412e-16
-1.02584e-14
-2.71216e-16
-9.38798e-15
-8.70027e-16
-8.56555e-15
-8.21759e-16
-8.45046e-15
-1.13079e-16
-9.20385e-15
7.55993e-16
-9.32673e-15
1.28277e-16
-8.91147e-15
-4.11604e-16
-8.34715e-15
-5.58156e-16
-7.63626e-15
-7.03992e-16
-7.45001e-15
-1.79564e-16
-7.82157e-15
3.80092e-16
-9.23475e-15
1.42191e-15
-1.1012e-14
1.78995e-15
-1.16966e-14
6.9998e-16
-1.17084e-14
2.34895e-17
-1.14069e-14
-2.84864e-16
-1.02979e-14
-1.09426e-15
-9.25604e-15
-1.02823e-15
-9.86092e-15
6.20601e-16
-1.11869e-14
1.34272e-15
-1.14979e-14
3.32489e-16
-1.05065e-14
-9.69999e-16
-1.01676e-14
-3.23505e-16
-9.08232e-15
-1.06335e-15
-7.43654e-15
-1.62782e-15
-6.21752e-15
-1.20197e-15
-5.5203e-15
-6.79193e-16
-5.5087e-15
7.57974e-18
-5.52739e-15
3.97719e-17
-5.40273e-15
-1.03385e-16
-5.54255e-15
1.6095e-16
-6.5417e-15
1.02558e-15
-7.65532e-15
1.14339e-15
-8.36376e-15
7.40578e-16
-8.2865e-15
-3.94898e-17
-7.61411e-15
-6.29045e-16
-6.35506e-15
-1.21333e-15
-6.33907e-15
1.19491e-17
-8.04018e-15
1.73649e-15
-9.49603e-15
1.51022e-15
-1.01213e-14
7.00865e-16
-9.88439e-15
-1.53682e-16
-9.15063e-15
-6.69647e-16
-8.61801e-15
-4.79312e-16
-8.11398e-15
-4.58834e-16
-7.42857e-15
-6.47438e-16
-7.51657e-15
1.26641e-16
-8.16319e-15
6.95415e-16
-8.45651e-15
3.55132e-16
-8.63411e-15
2.42604e-16
-8.54335e-15
-3.89069e-17
-8.5994e-15
1.04403e-16
-8.65613e-15
1.06804e-16
-8.32276e-15
-2.8192e-16
-8.32838e-15
5.45618e-17
-8.8142e-15
5.31898e-16
-8.65993e-15
-1.05564e-16
-8.29706e-15
-3.13783e-16
-9.06183e-15
8.07964e-16
-1.01855e-14
1.17084e-15
-1.03504e-14
2.2306e-16
-1.01749e-14
-1.1261e-16
-9.34029e-15
-7.74198e-16
-7.79386e-15
-1.49361e-15
-6.62619e-15
-1.12945e-15
-5.98637e-15
-6.04929e-16
-5.46503e-15
-4.86166e-16
-5.24046e-15
-1.84567e-16
-5.00821e-15
-1.86173e-16
-4.98506e-15
1.62853e-17
-5.01274e-15
7.8235e-17
-4.74496e-15
-2.19179e-16
-4.73743e-15
2.89796e-17
-4.47286e-15
-2.18917e-16
-4.42802e-15
-2.34322e-18
-5.06223e-15
6.84976e-16
-5.77958e-15
7.67955e-16
-6.3052e-15
5.80329e-16
-6.49928e-15
2.44328e-16
-6.66302e-15
2.21628e-16
-6.6958e-15
8.24443e-17
-6.60878e-15
-3.0369e-17
-6.26664e-15
-2.91392e-16
-5.54501e-15
-6.74972e-16
-5.0476e-15
-4.49241e-16
-5.27926e-15
2.7691e-16
-5.34505e-15
1.14398e-16
-5.50199e-15
2.04784e-16
-6.65873e-15
1.21226e-15
-8.49507e-15
1.91195e-15
-9.43118e-15
1.05317e-15
-9.12642e-15
-1.64607e-16
-7.89712e-15
-1.08065e-15
-6.05524e-15
-1.72055e-15
-5.3028e-15
-6.51945e-16
-5.66403e-15
4.50701e-16
-6.1292e-15
5.46055e-16
-6.24532e-15
1.93212e-16
-5.85385e-15
-3.22465e-16
-6.41172e-15
6.10274e-16
-8.12918e-15
1.77494e-15
-9.11305e-15
1.07546e-15
-8.16911e-15
-8.25862e-16
-6.7131e-15
-1.35783e-15
-5.6254e-15
-1.0155e-15
-4.98554e-15
-5.85591e-16
-4.9559e-15
2.41165e-17
-5.24404e-15
3.54898e-16
-5.32208e-15
1.42239e-16
-5.37934e-15
1.04456e-16
-5.75934e-15
4.34797e-16
-5.63667e-15
-4.21471e-17
-5.01955e-15
-5.4872e-16
-5.14738e-15
1.94575e-16
-5.55519e-15
4.85606e-16
-5.56519e-15
8.40028e-17
-5.41288e-15
-9.01531e-17
-5.16429e-15
-1.96071e-16
-5.19338e-15
8.64933e-17
-5.30587e-15
1.85853e-16
-4.99909e-15
-2.39277e-16
-4.78463e-15
-1.50075e-16
-4.66009e-15
-5.94518e-17
-4.72265e-15
1.30044e-16
-4.72104e-15
7.16648e-17
-4.69083e-15
5.2394e-17
-4.9338e-15
3.29769e-16
-5.76418e-15
9.13397e-16
-6.54129e-15
8.64384e-16
-6.86624e-15
3.97201e-16
-6.58039e-15
-2.14774e-16
-5.31745e-15
-1.19414e-15
-4.03474e-15
-1.21654e-15
-3.51994e-15
-4.68422e-16
-3.77751e-15
3.06121e-16
-4.44283e-15
7.1691e-16
-5.1818e-15
7.93489e-16
-5.4295e-15
3.08065e-16
-4.87549e-15
-4.87267e-16
-4.30086e-15
-5.23682e-16
-3.98769e-15
-2.48409e-16
-4.48199e-15
5.69369e-16
-5.54116e-15
1.18895e-15
-6.57478e-15
1.21359e-15
-7.05636e-15
6.85677e-16
-6.90707e-15
4.44414e-17
-6.76374e-15
3.63199e-17
-6.86052e-15
2.71045e-16
-7.00193e-15
3.06886e-16
-6.83816e-15
-1.10861e-17
-6.8576e-15
1.55146e-16
-6.68854e-15
-5.49094e-17
-6.05446e-15
-5.3513e-16
-5.44817e-15
-5.245e-16
-5.10618e-15
-2.75256e-16
-4.83794e-15
-1.93492e-16
-5.05006e-15
3.08559e-16
-5.51762e-15
5.80967e-16
-5.45087e-15
4.84528e-17
-5.20396e-15
-1.54353e-16
-5.0125e-15
-1.20503e-16
-4.67085e-15
-2.71927e-16
-4.41084e-15
-2.01235e-16
-4.23763e-15
-1.20308e-16
-4.15603e-15
-3.4457e-17
-4.37909e-15
2.97431e-16
-4.57332e-15
2.96748e-16
-4.4931e-15
3.19686e-17
-4.20785e-15
-1.73575e-16
-4.08274e-15
-1.18182e-17
-4.11261e-15
1.42087e-16
-3.69449e-15
-3.08664e-16
-3.6097e-15
1.46277e-17
-4.00403e-15
4.91873e-16
-4.08871e-15
1.82711e-16
-4.44128e-15
4.46304e-16
-4.88758e-15
5.39591e-16
-5.09571e-15
3.01451e-16
-5.46255e-15
4.54234e-16
-5.981e-15
6.00168e-16
-5.59898e-15
-2.77032e-16
-4.53565e-15
-9.49209e-16
-4.0932e-15
-3.57778e-16
-3.8924e-15
-1.18604e-16
-3.75407e-15
-4.80814e-17
-3.75933e-15
9.15296e-17
-3.36182e-15
-3.31289e-16
-2.93421e-15
-3.62428e-16
-3.23265e-15
3.66377e-16
-3.78527e-15
6.38049e-16
-4.12227e-15
4.42928e-16
-4.18383e-15
1.64524e-16
-4.03405e-15
-5.29529e-17
-3.76196e-15
-1.87578e-16
-3.3082e-15
-3.75428e-16
-3.0725e-15
-1.66922e-16
-3.0867e-15
8.92322e-17
-3.01629e-15
5.6237e-18
-2.93713e-15
2.09136e-18
-2.91256e-15
5.73767e-17
-2.9107e-15
7.9505e-17
-2.81985e-15
-1.78535e-17
-2.70117e-15
-5.06837e-17
-2.61218e-15
-2.35683e-17
-2.57207e-15
2.68979e-17
-2.64435e-15
1.35622e-16
-2.92191e-15
3.51881e-16
-3.01719e-15
1.75324e-16
-3.41441e-15
4.70395e-16
-3.69404e-15
3.66667e-16
-3.37874e-15
-2.2634e-16
-3.17488e-15
-1.24435e-16
-3.4624e-15
3.69617e-16
-3.9911e-15
6.14369e-16
-4.55631e-15
6.50549e-16
-4.50931e-15
5.34665e-17
-4.1522e-15
-2.74526e-16
-3.67633e-15
-3.82425e-16
-2.95091e-15
-6.46152e-16
-2.41287e-15
-4.63125e-16
-2.12183e-15
-2.22656e-16
-1.97824e-15
-7.65382e-17
-1.96369e-15
5.59537e-17
-1.8835e-15
-1.13673e-17
-2.12965e-15
3.12195e-16
-2.62275e-15
5.66989e-16
-2.85253e-15
3.06064e-16
-2.90678e-15
1.30873e-16
-2.85034e-15
2.89269e-17
-2.62619e-15
-1.39106e-16
-2.37137e-15
-1.76102e-16
-2.33657e-15
4.02162e-17
-2.33317e-15
7.62068e-17
-2.3204e-15
6.5044e-17
-2.41084e-15
1.77178e-16
-2.44165e-15
1.24146e-16
-2.53906e-15
1.87276e-16
-2.62423e-15
2.13474e-16
-2.42957e-15
-6.61439e-17
-2.44629e-15
1.16484e-16
-2.4323e-15
1.34731e-16
-4.28646e-17
-1.68812e-16
-2.2488e-16
-2.71866e-16
-1.7491e-16
-3.47238e-16
-2.13414e-16
-4.61414e-16
-1.84822e-16
-6.17193e-16
-1.96865e-16
-8.61092e-16
-1.25807e-16
-1.08744e-15
-1.98515e-16
-1.22014e-15
-1.60163e-16
-1.35519e-15
-4.6726e-17
-1.49966e-15
-1.17822e-16
-1.6365e-15
-1.70695e-16
-1.72605e-15
-1.33049e-16
-1.89882e-15
-2.88068e-16
-2.09155e-15
-5.86824e-16
-2.08749e-15
-6.31619e-16
-2.14346e-15
-3.05089e-16
-2.68701e-15
1.35084e-16
-3.22123e-15
3.425e-16
-3.17108e-15
-6.2523e-17
-2.98085e-15
-2.36697e-16
-3.00752e-15
-5.4666e-17
-3.3685e-15
3.12792e-16
-3.57937e-15
3.62659e-16
-3.38935e-15
-7.69284e-17
-3.52531e-15
3.03313e-17
-4.33952e-15
2.01941e-16
-4.84035e-15
-4.49378e-16
-4.69334e-15
-8.93591e-16
-4.7385e-15
-4.68833e-16
-4.93025e-15
-2.31635e-17
-4.52034e-15
-2.17314e-16
-3.97668e-15
-2.26653e-16
-3.72981e-15
-4.14361e-16
-3.86202e-15
-3.03703e-16
-4.39489e-15
2.5891e-16
-4.90506e-15
3.00733e-16
-4.81477e-15
-1.37069e-16
-5.04486e-15
-3.96758e-16
-5.69501e-15
-6.23787e-16
-5.45206e-15
-8.07489e-16
-4.90566e-15
-5.0715e-16
-4.93784e-15
4.63627e-17
-5.11809e-15
-6.4259e-17
-5.25622e-15
-2.54109e-16
-5.74958e-15
1.98175e-16
-5.94903e-15
2.76744e-17
-5.56706e-15
-7.09044e-16
-5.55273e-15
-5.57685e-16
-5.86981e-15
-3.25199e-16
-5.87857e-15
2.37579e-16
-5.57331e-15
7.98481e-16
-5.88503e-15
8.30439e-16
-6.73603e-15
8.79197e-17
-6.61461e-15
-7.32145e-16
-6.09055e-15
-9.50094e-16
-6.09818e-15
-8.1762e-16
-5.92174e-15
-1.30423e-15
-5.71781e-15
-1.02608e-15
-5.77068e-15
2.86818e-16
-5.59559e-15
9.06478e-16
-5.52024e-15
-1.23446e-16
-5.67383e-15
-9.47375e-16
-5.815e-15
-3.41591e-16
-6.21285e-15
2.01792e-16
-5.89853e-15
1.09663e-16
-5.7922e-15
4.7695e-16
-7.03377e-15
7.47028e-16
-9.06583e-15
3.31848e-16
-1.06921e-14
6.51414e-17
-1.05298e-14
8.23666e-16
-8.95055e-15
-4.00344e-16
-7.4116e-15
-1.24717e-15
-6.75792e-15
-5.09666e-16
-6.84382e-15
-3.23277e-16
-7.11876e-15
-9.99847e-17
-7.29502e-15
1.49801e-16
-7.04685e-15
-1.44392e-16
-7.22659e-15
2.45595e-16
-8.21886e-15
1.09891e-15
-8.48304e-15
4.66768e-16
-7.94435e-15
-9.55852e-17
-8.18756e-15
-1.64125e-16
-9.20449e-15
-1.79959e-16
-1.04898e-14
-2.08739e-16
-1.05421e-14
-1.32092e-15
-9.04991e-15
-1.8807e-15
-7.70831e-15
-1.32797e-15
-7.97932e-15
5.59549e-16
-8.7024e-15
1.20814e-15
-9.55242e-15
9.36295e-16
-9.83716e-15
1.03555e-15
-9.89984e-15
1.05421e-15
-9.84464e-15
-3.30951e-17
-9.15157e-15
-1.21847e-15
-9.1719e-15
-9.39643e-16
-9.23923e-15
-9.21102e-16
-9.0914e-15
-8.03776e-16
-8.66192e-15
-1.1692e-15
-8.05515e-15
-1.093e-15
-8.18023e-15
-1.00616e-16
-8.24575e-15
-1.55242e-17
-7.95114e-15
2.06418e-16
-9.187e-15
8.48247e-16
-9.79912e-15
-2.11513e-16
-8.91323e-15
-4.05659e-16
-9.50435e-15
8.92086e-16
-1.05336e-14
1.21304e-15
-1.00478e-14
2.15595e-16
-9.11203e-15
-6.47365e-16
-8.33851e-15
-6.08274e-16
-7.4692e-15
-8.71573e-16
-6.75698e-15
-4.98786e-16
-6.98951e-15
1.64914e-16
-7.67976e-15
-2.65284e-16
-8.117e-15
-1.53076e-16
-8.40989e-15
-1.93331e-16
-8.50657e-15
-1.77158e-16
-8.77839e-15
6.08222e-16
-9.96253e-15
1.01171e-15
-1.08053e-14
1.94439e-16
-9.95741e-15
-7.8897e-16
-8.63764e-15
-4.41502e-16
-7.91343e-15
5.47412e-16
-7.36437e-15
6.37663e-16
-7.09656e-15
7.27759e-16
-7.48526e-15
3.35968e-16
-8.23964e-15
-4.98844e-16
-8.77553e-15
-2.88372e-16
-8.5519e-15
-3.78549e-16
-8.00168e-15
-8.69036e-16
-8.04791e-15
-5.78608e-16
-1.02227e-14
1.84539e-15
-1.16581e-14
2.21598e-15
-1.1095e-14
-1.07596e-16
-1.10908e-14
-6.43079e-16
-1.27081e-14
7.03849e-17
-1.19825e-14
-1.50396e-15
-9.61194e-15
-1.63386e-15
-9.53176e-15
-1.63411e-16
-9.77427e-15
3.52451e-16
-9.95356e-15
-1.0017e-16
-1.01921e-14
-6.35235e-16
-1.01829e-14
-1.37701e-17
-9.12341e-15
-4.21721e-18
-8.21804e-15
-1.99432e-16
-8.48324e-15
3.02972e-16
-8.80325e-15
1.6803e-16
-8.60265e-15
-6.49678e-16
-8.78701e-15
-8.7442e-16
-1.0163e-14
-7.58989e-18
-9.98856e-15
-2.1355e-16
-8.41421e-15
-7.19028e-16
-7.98622e-15
-4.42986e-16
-8.28488e-15
8.45391e-17
-9.04313e-15
1.08203e-15
-8.87467e-15
8.96656e-16
-8.53417e-15
7.73644e-16
-8.62852e-15
8.87874e-16
-9.15046e-15
2.49393e-16
-9.80967e-15
-2.10591e-16
-1.0128e-14
-5.02498e-16
-9.65176e-15
-5.86619e-16
-8.81159e-15
-8.11515e-17
-8.86504e-15
1.85699e-16
-9.56183e-15
2.89645e-16
-1.02067e-14
9.30951e-17
-1.00005e-14
-9.02061e-16
-9.18386e-15
-9.88885e-16
-8.44371e-15
-3.50631e-16
-7.80304e-15
7.91309e-16
-7.40053e-15
1.39846e-15
-7.9672e-15
1.27791e-15
-1.00805e-14
2.147e-15
-1.1156e-14
8.07206e-16
-1.06561e-14
-1.58064e-15
-9.91281e-15
-1.75672e-15
-8.86566e-15
-4.10756e-16
-8.15398e-15
6.46393e-16
-7.80879e-15
4.34075e-18
-8.14076e-15
-6.2121e-16
-8.52979e-15
8.27162e-17
-8.50851e-15
-1.0652e-15
-7.92131e-15
-2.19739e-15
-8.06689e-15
-1.04067e-15
-7.96409e-15
-7.60993e-16
-7.18538e-15
-7.51203e-16
-6.75859e-15
-3.66025e-16
-7.50543e-15
6.6355e-16
-9.6725e-15
2.35647e-15
-1.12312e-14
2.62429e-15
-1.06224e-14
5.8294e-16
-9.09643e-15
-7.4013e-16
-8.81904e-15
-2.80076e-16
-9.06996e-15
-3.41439e-16
-9.52979e-15
-7.18629e-16
-9.9807e-15
5.04098e-16
-9.56504e-15
1.3814e-15
-9.25681e-15
1.28528e-15
-9.02224e-15
5.36197e-16
-9.04108e-15
-8.03886e-17
-8.99257e-15
-6.721e-16
-9.06042e-15
-3.69836e-16
-1.03272e-14
8.47642e-16
-1.24644e-14
1.52947e-15
-1.2559e-14
2.68268e-16
-1.03915e-14
-1.41424e-15
-8.63234e-15
-1.35149e-15
-8.19096e-15
-1.5173e-16
-8.53375e-15
3.44718e-16
-7.98774e-15
-3.99719e-16
-7.34657e-15
-4.91813e-16
-7.98554e-15
3.98815e-16
-8.30709e-15
4.14712e-16
-7.59859e-15
-1.38221e-16
-7.69034e-15
2.52325e-17
-8.18703e-15
2.21406e-16
-7.97673e-15
6.38245e-16
-7.39734e-15
6.38341e-16
-6.72068e-15
-4.04268e-16
-6.06775e-15
-7.21029e-16
-6.24457e-15
-5.58822e-16
-7.33238e-15
-3.73741e-16
-8.06962e-15
-3.59112e-16
-8.38049e-15
-2.59192e-16
-8.36839e-15
-4.57268e-16
-7.9229e-15
-5.85083e-16
-7.24531e-15
-8.16982e-16
-6.54362e-15
-6.44231e-16
-6.51325e-15
9.46221e-17
-6.88162e-15
1.93088e-16
-7.31115e-15
5.03179e-16
-8.24723e-15
7.65626e-16
-8.22358e-15
3.35695e-17
-6.86008e-15
-6.17948e-16
-6.35316e-15
3.08319e-16
-6.89974e-15
1.17856e-15
-7.44434e-15
8.45056e-16
-7.34821e-15
1.83514e-16
-6.81931e-15
-3.97315e-16
-6.59643e-15
-2.00644e-16
-6.89072e-15
5.15184e-17
-7.42411e-15
-9.60947e-17
-7.26315e-15
-5.61203e-16
-6.70902e-15
-2.28754e-16
-7.2344e-15
6.79123e-16
-8.25658e-15
1.28618e-15
-9.05826e-15
2.10388e-15
-9.07782e-15
2.04821e-15
-8.54089e-15
6.66315e-16
-8.00544e-15
-5.79351e-16
-8.1706e-15
-8.25637e-16
-9.1075e-15
-6.9974e-16
-8.68582e-15
-9.86124e-16
-7.48864e-15
-6.66256e-16
-7.3147e-15
4.42265e-16
-7.17536e-15
1.22101e-16
-7.54189e-15
1.02976e-16
-7.87689e-15
1.00393e-15
-7.05747e-15
1.03627e-15
-6.01288e-15
1.26707e-16
-6.07441e-15
-6.78088e-16
-6.64715e-15
-7.22816e-16
-7.01044e-15
-5.99373e-16
-7.04914e-15
-4.91871e-16
-6.22633e-15
-7.3584e-16
-5.21412e-15
-5.91649e-16
-5.50315e-15
4.81671e-16
-6.66415e-15
1.3146e-15
-6.82047e-15
6.6323e-16
-6.36431e-15
-4.13667e-16
-6.82487e-15
-2.19365e-17
-6.80287e-15
2.4537e-16
-5.98056e-15
-2.58738e-16
-5.74476e-15
-8.46925e-17
-5.99702e-15
2.21158e-16
-6.15788e-15
1.99839e-17
-5.80452e-15
-2.00145e-16
-5.31347e-15
-2.35294e-16
-5.21016e-15
-2.77391e-16
-5.47683e-15
1.80883e-16
-5.64045e-15
1.75958e-16
-6.02588e-15
5.93435e-16
-6.64087e-15
7.74126e-16
-6.69533e-15
2.02014e-16
-6.03749e-15
-2.36214e-16
-5.27782e-15
2.34216e-16
-4.8783e-15
5.34967e-16
-4.80216e-15
3.84345e-16
-5.09173e-15
1.37054e-16
-5.36173e-15
-8.61243e-16
-5.18097e-15
-1.34598e-15
-5.15185e-15
-4.47143e-16
-4.74071e-15
-5.21946e-17
-4.01122e-15
4.03229e-17
-3.68484e-15
5.08421e-16
-3.849e-15
5.109e-16
-4.07582e-15
-2.19843e-16
-4.25373e-15
-3.04671e-16
-5.44704e-15
1.00888e-15
-6.20519e-15
1.4712e-15
-5.77783e-15
9.47268e-16
-4.96316e-15
5.54577e-16
-4.50551e-15
3.53762e-16
-4.842e-15
5.08639e-16
-5.26605e-15
5.99823e-16
-5.51838e-15
6.44502e-16
-5.61112e-15
4.97542e-16
-5.33133e-15
-2.0609e-16
-4.88026e-15
-2.18883e-16
-4.6917e-15
-1.71642e-16
-4.77359e-15
-3.85506e-16
-5.04226e-15
-1.92206e-16
-5.42667e-15
1.76386e-16
-5.55987e-15
1.94389e-17
-4.89269e-15
-2.70561e-16
-4.05302e-15
-1.61902e-16
-4.17411e-15
2.51495e-16
-4.59187e-15
3.2698e-16
-4.74311e-15
9.27556e-17
-4.69424e-15
-2.61622e-16
-4.56567e-15
-2.77669e-16
-4.99945e-15
3.61934e-16
-5.8057e-15
8.43078e-16
-5.78262e-15
3.79745e-16
-5.19531e-15
-1.79582e-16
-5.57197e-15
5.05748e-16
-6.18994e-15
5.4083e-16
-5.95397e-15
-1.44588e-16
-5.41155e-15
-2.98072e-16
-5.12296e-15
-5.02114e-16
-4.42127e-15
-6.01905e-16
-3.93663e-15
8.67916e-17
-4.14649e-15
4.70796e-16
-4.30465e-15
6.81894e-16
-4.21399e-15
5.29056e-16
-4.2729e-15
4.4314e-16
-4.31114e-15
5.71908e-16
-4.06814e-15
4.33732e-16
-4.22822e-15
-3.72086e-17
-4.76748e-15
-3.31804e-16
-4.89162e-15
-1.60956e-16
-4.41127e-15
-5.20064e-16
-3.71209e-15
-6.62295e-16
-3.38104e-15
-1.6675e-16
-3.39583e-15
-2.51221e-16
-3.337e-15
-3.53098e-16
-3.29807e-15
3.98724e-16
-3.46845e-15
9.01524e-16
-3.46917e-15
5.3615e-16
-3.32136e-15
1.05117e-16
-3.33942e-15
4.53454e-17
-3.38476e-15
-6.6953e-17
-3.45885e-15
-2.32019e-16
-3.36616e-15
-1.89701e-16
-2.91457e-15
-2.90149e-16
-2.62124e-15
-2.20452e-16
-2.49139e-15
-6.31224e-17
-2.48624e-15
1.1831e-16
-2.62585e-15
2.85185e-16
-2.7738e-15
1.95403e-16
-2.79593e-15
3.61548e-17
-2.6808e-15
-7.25614e-17
-2.67171e-15
8.43661e-17
-2.95267e-15
4.85871e-16
-3.29813e-15
7.78407e-16
-3.41558e-15
3.73269e-16
-3.3473e-15
4.86575e-16
-3.0567e-15
1.68343e-16
-2.86786e-15
-3.34331e-16
-2.77004e-15
-1.52572e-16
-2.67749e-15
3.47087e-16
-2.59655e-15
6.00212e-16
-2.51092e-15
6.35467e-16
-2.61512e-15
2.27986e-16
-2.71061e-15
-1.0376e-16
-2.9086e-15
-1.12896e-16
-3.26381e-15
-2.2004e-16
-3.10111e-15
-5.49253e-16
-2.76663e-15
-4.88771e-16
-2.74883e-15
-2.36561e-17
-2.72988e-15
1.18202e-16
-2.71784e-15
3.66649e-17
-2.51957e-15
1.94821e-16
-2.19086e-15
3.11877e-16
-2.2448e-15
4.21269e-16
-2.19893e-15
1.59709e-16
-1.99517e-15
-1.00875e-16
-2.05342e-15
-1.11379e-17
-2.28259e-15
1.21585e-16
-2.3368e-15
1.71154e-16
-2.3136e-15
1.21863e-16
-2.41595e-15
2.4299e-16
-2.36895e-15
2.11451e-16
-2.25286e-15
8.89852e-17
-2.27788e-15
2.91381e-16
-2.14529e-15
1.89198e-16
-1.97039e-15
-1.41428e-16
-1.72286e-15
-7.75703e-18
-1.60013e-15
1.18675e-16
4.40699e-17
-1.3357e-16
-2.99202e-16
-2.5105e-16
-2.46688e-16
-3.97047e-16
-2.9641e-16
-5.36857e-16
-2.30143e-16
-7.07908e-16
-2.63744e-16
-8.5488e-16
-1.77425e-16
-1.13343e-15
-1.4637e-16
-1.37351e-15
-1.65257e-16
-1.61985e-15
-1.02247e-17
-2.03513e-15
4.69917e-17
-2.29154e-15
-1.75288e-16
-2.20482e-15
-4.52057e-16
-2.26784e-15
-4.40266e-16
-2.78023e-15
-3.16123e-16
-3.29477e-15
-3.75346e-16
-3.53395e-15
-2.8945e-16
-3.40318e-15
-2.47153e-16
-2.97236e-15
-3.19969e-16
-2.85781e-15
-3.86575e-16
-2.97133e-15
-3.59021e-16
-2.95297e-15
-2.82986e-16
-2.82561e-15
-2.15516e-17
-2.64648e-15
-4.49304e-18
-2.5475e-15
-3.51701e-16
-2.78261e-15
8.87665e-17
-3.05023e-15
2.86284e-16
-3.46352e-15
-2.24912e-16
-4.30112e-15
-2.48423e-16
-4.65934e-15
-3.33083e-16
-4.38207e-15
-4.88931e-16
-4.51351e-15
-2.74778e-16
-4.52976e-15
-4.11175e-16
-4.35466e-15
-7.85183e-16
-4.05769e-15
-7.97789e-16
-3.87831e-15
-8.13871e-17
-3.98335e-15
2.31882e-16
-3.92866e-15
-3.71695e-16
-3.92768e-15
-5.5756e-16
-4.06391e-15
-6.48156e-16
-4.47354e-15
-5.6697e-16
-4.98001e-15
-1.76369e-16
-5.36399e-15
2.57479e-16
-5.87499e-15
2.7549e-16
-6.43125e-15
1.28411e-16
-5.84421e-15
-5.87655e-16
-4.88973e-15
-1.07544e-15
-4.91981e-15
-8.27045e-16
-5.49042e-15
-1.35347e-16
-6.32232e-15
3.36765e-16
-6.05763e-15
-2.10634e-16
-5.08457e-15
-3.30377e-16
-4.75812e-15
3.63679e-16
-5.07579e-15
2.65193e-16
-5.91594e-15
-3.84825e-17
-7.03173e-15
1.26283e-17
-8.24863e-15
2.46591e-16
-9.20859e-15
-5.03608e-16
-9.46777e-15
-9.17322e-16
-8.17758e-15
-1.1627e-15
-6.34327e-15
-1.05385e-15
-6.06298e-15
-5.36116e-16
-6.71335e-15
-4.33105e-16
-6.88079e-15
-3.23845e-16
-6.44237e-15
-3.56821e-16
-6.2846e-15
-1.74444e-16
-5.66938e-15
-2.83916e-16
-4.81723e-15
-2.20927e-16
-4.70211e-15
1.05473e-16
-5.24386e-15
5.05026e-16
-5.59779e-15
1.05921e-15
-6.61986e-15
5.21841e-16
-7.19955e-15
-7.93079e-16
-6.39022e-15
-1.43963e-15
-5.79245e-15
-1.0173e-15
-6.44457e-15
4.45717e-16
-7.80487e-15
1.39236e-15
-8.95429e-15
8.88326e-16
-9.92022e-15
1.09714e-15
-9.42809e-15
4.85163e-16
-8.71248e-15
-3.54699e-16
-8.96971e-15
5.0489e-17
-9.21183e-15
-3.10363e-17
-8.75896e-15
-7.39987e-16
-7.92944e-15
-1.12741e-15
-7.86842e-15
-1.48043e-15
-8.71894e-15
-1.12203e-15
-9.22985e-15
-9.18361e-16
-8.31147e-15
-4.60151e-16
-7.22863e-15
3.84792e-17
-7.42775e-15
1.05409e-15
-7.01711e-15
5.2994e-16
-5.83086e-15
-2.13956e-16
-5.79997e-15
-1.36891e-16
-6.06641e-15
-1.03341e-15
-5.79973e-15
-1.27527e-15
-6.30389e-15
-4.8332e-16
-7.4892e-15
3.05707e-16
-8.0039e-15
-7.30733e-16
-7.5415e-15
-1.62837e-15
-7.22136e-15
-4.88962e-16
-8.01158e-15
7.06339e-16
-8.40498e-15
5.30262e-16
-8.30912e-15
6.90331e-16
-9.24054e-15
6.52162e-16
-9.41792e-15
-2.99823e-16
-8.46683e-15
-1.25436e-16
-7.86024e-15
5.43663e-16
-7.91125e-15
2.08903e-16
-8.63191e-15
1.25847e-17
-8.82254e-15
-4.82265e-16
-8.3934e-15
-1.35661e-15
-7.40401e-15
-1.54332e-15
-6.87904e-15
-4.11886e-16
-7.5398e-15
3.48047e-16
-8.24277e-15
4.99447e-16
-8.27746e-15
-2.06268e-16
-7.86756e-15
-6.36732e-16
-7.21896e-15
-9.13937e-17
-6.76339e-15
5.06702e-16
-6.60046e-15
-1.44149e-17
-6.91772e-15
-5.14076e-16
-7.10586e-15
-2.95774e-16
-6.52841e-15
-7.19015e-17
-5.74411e-15
-1.85191e-16
-5.60499e-15
5.52345e-16
-6.10889e-15
8.04346e-16
-7.10912e-15
4.67687e-16
-7.61841e-15
1.86007e-16
-7.62088e-15
-4.09683e-16
-8.37311e-15
-1.46563e-16
-9.3985e-15
4.16104e-16
-9.04428e-15
1.45841e-15
-7.99453e-15
1.13559e-15
-8.32066e-15
1.91903e-16
-9.085e-15
9.61685e-17
-9.40611e-15
3.67665e-16
-1.04181e-14
-5.15536e-16
-1.07887e-14
-1.28633e-15
-1.07731e-14
-1.99859e-16
-1.17036e-14
1.26223e-15
-1.35941e-14
1.76897e-15
-1.35733e-14
-6.76924e-16
-1.17982e-14
-1.80701e-15
-1.08164e-14
-1.00331e-15
-9.60081e-15
-1.43156e-15
-8.91203e-15
-4.00271e-16
-9.28717e-15
5.29973e-16
-9.50549e-15
-4.435e-16
-9.38683e-15
-1.00378e-15
-9.55136e-15
1.47e-16
-9.97243e-15
1.98193e-16
-1.06519e-14
-4.7488e-17
-1.2382e-14
1.28002e-15
-1.2645e-14
3.41625e-16
-1.06315e-14
-9.36334e-16
-9.15439e-15
-5.84257e-16
-8.53374e-15
1.49945e-16
-7.79502e-15
1.46982e-16
-7.02028e-15
-5.26773e-16
-6.82413e-15
-4.07127e-16
-7.61561e-15
2.89263e-16
-8.31441e-15
1.1421e-16
-8.4581e-15
6.54583e-17
-8.71713e-15
4.48673e-16
-8.55515e-15
1.32325e-16
-8.22231e-15
-2.34155e-16
-8.76152e-15
-3.56381e-16
-9.80793e-15
6.48709e-17
-1.07419e-14
5.93e-16
-1.11264e-14
1.18803e-15
-1.07091e-14
9.93853e-16
-9.19148e-15
-2.26532e-16
-6.79713e-15
-2.3516e-16
-5.98107e-15
2.55011e-18
-7.83561e-15
2.84181e-16
-9.60137e-15
2.28567e-17
-9.29593e-15
-6.99514e-16
-7.80627e-15
-8.26813e-16
-6.77945e-15
-1.00775e-15
-6.37299e-15
-1.01171e-15
-6.14196e-15
-1.32258e-16
-7.25284e-15
6.13622e-17
-8.5559e-15
-8.76672e-16
-8.42658e-15
-1.1511e-15
-8.41027e-15
-7.58745e-16
-9.36187e-15
2.2095e-16
-1.11173e-14
1.41472e-15
-1.29198e-14
2.5024e-15
-1.27423e-14
2.22849e-15
-9.97816e-15
-6.69677e-17
-7.67883e-15
-1.65378e-15
-7.27579e-15
-1.10412e-15
-8.10747e-15
5.79241e-16
-9.3183e-15
9.03149e-16
-1.04314e-14
4.35217e-16
-9.95946e-15
8.27302e-17
-8.72731e-15
2.06592e-16
-8.13595e-15
7.45372e-16
-8.0351e-15
4.78766e-16
-8.21654e-15
1.40782e-16
-8.67778e-15
-1.72336e-16
-8.94627e-15
-6.44041e-17
-8.57677e-15
5.14911e-16
-7.89193e-15
8.83529e-16
-7.69507e-15
1.14593e-16
-8.34143e-15
-7.247e-16
-8.81417e-15
-8.39216e-16
-8.44746e-15
-4.80014e-16
-7.35991e-15
-7.04599e-16
-6.78713e-15
-9.33156e-16
-7.20328e-15
-3.79893e-17
-7.45362e-15
6.84624e-16
-7.06833e-15
6.37058e-17
-7.12448e-15
-4.69558e-17
-7.20682e-15
1.42867e-16
-7.1009e-15
1.51172e-16
-6.67888e-15
2.54977e-16
-6.16337e-15
1.64252e-16
-6.43995e-15
-8.69253e-17
-7.18432e-15
5.98907e-17
-7.42573e-15
-2.83263e-16
-7.30209e-15
-4.62707e-16
-7.55428e-15
-6.94129e-17
-7.75346e-15
-1.865e-17
-7.71654e-15
-4.5142e-16
-7.50481e-15
-7.52482e-16
-7.80764e-15
-4.73019e-16
-7.94091e-15
-4.68517e-16
-7.03532e-15
-7.64664e-16
-6.1704e-15
-6.27982e-16
-6.26679e-15
6.40572e-16
-6.68383e-15
1.23031e-15
-7.06051e-15
4.63962e-16
-8.08992e-15
4.6099e-16
-8.2307e-15
4.99058e-16
-6.92511e-15
-7.44399e-17
-6.38559e-15
3.54229e-16
-7.09471e-15
9.39137e-16
-8.47561e-15
1.03141e-15
-9.63032e-15
1.00863e-15
-9.87107e-15
3.46866e-16
-9.61303e-15
-3.04648e-16
-9.09923e-15
-1.02577e-15
-8.53369e-15
-7.51478e-16
-8.34353e-15
5.43367e-16
-8.61e-15
1.6361e-15
-8.17467e-15
1.78719e-15
-6.58722e-15
6.30979e-16
-5.65344e-15
-1.12785e-16
-5.8167e-15
-3.22656e-16
-6.24609e-15
-3.26297e-16
-6.60273e-15
-2.6453e-16
-6.63023e-15
-8.84411e-16
-6.7119e-15
-5.18285e-16
-6.5508e-15
3.43412e-16
-6.2181e-15
-1.51538e-16
-6.18635e-15
1.2664e-16
-6.02106e-15
8.98257e-16
-5.6287e-15
7.1474e-16
-5.69375e-15
2.63325e-16
-6.23469e-15
-7.4889e-17
-6.49178e-15
-4.10812e-16
-6.7028e-15
-3.3205e-16
-6.84782e-15
-2.90886e-16
-6.79182e-15
-7.32666e-16
-6.28259e-15
-1.04422e-15
-5.52422e-15
-2.24401e-16
-4.82034e-15
6.70264e-16
-4.22308e-15
1.33937e-16
-4.84128e-15
2.70065e-16
-6.23031e-15
1.42689e-15
-6.92578e-15
1.00758e-15
-7.02464e-15
-9.05367e-17
-7.19402e-15
1.49793e-16
-7.03506e-15
1.24826e-16
-7.13741e-15
1.8162e-16
-7.09363e-15
-1.77146e-16
-6.64726e-15
-6.1066e-16
-7.2281e-15
3.69681e-16
-7.49595e-15
5.25582e-16
-7.47982e-15
2.45668e-16
-6.82549e-15
2.99451e-17
-5.60211e-15
-3.61254e-16
-5.30091e-15
-1.85041e-17
-5.85784e-15
3.89409e-16
-5.84411e-15
2.84452e-16
-5.38261e-15
1.35062e-16
-5.0773e-15
1.37696e-16
-5.482e-15
6.00938e-16
-6.68683e-15
4.03485e-16
-6.85676e-15
-1.11507e-15
-5.86693e-15
-1.38011e-15
-5.33525e-15
-5.36011e-16
-5.03768e-15
-2.19143e-16
-4.88063e-15
3.99666e-16
-4.65657e-15
3.41388e-16
-4.66861e-15
-1.60778e-16
-5.47807e-15
5.65159e-16
-5.47706e-15
1.13383e-15
-4.52169e-15
6.66641e-16
-4.15316e-15
7.05003e-16
-4.31177e-15
8.17988e-16
-5.57542e-15
1.73264e-15
-6.54649e-15
1.59845e-15
-6.45017e-15
6.01926e-16
-5.58977e-15
-1.3769e-16
-4.66413e-15
-3.60847e-16
-4.52612e-15
-2.78683e-16
-4.57287e-15
-1.05872e-16
-4.34792e-15
-3.31478e-16
-4.12941e-15
-5.39914e-16
-4.07981e-15
-1.76664e-16
-4.08328e-15
2.47768e-16
-4.11199e-15
1.21026e-16
-4.42139e-15
1.24047e-16
-4.97845e-15
4.73908e-16
-5.0569e-15
3.97505e-16
-4.46707e-15
-1.98514e-16
-4.25341e-15
-5.78335e-17
-4.73841e-15
2.81525e-16
-5.21102e-15
2.47228e-16
-5.09483e-15
3.12858e-16
-4.40445e-15
2.43322e-16
-3.82153e-15
-1.07482e-16
-3.87947e-15
-3.67691e-17
-3.89781e-15
6.15114e-16
-3.75191e-15
4.83141e-16
-4.08944e-15
2.78699e-16
-4.66102e-15
3.56434e-16
-4.99858e-15
-8.44092e-17
-4.55721e-15
-9.68205e-16
-3.7553e-15
-6.42351e-16
-3.46361e-15
2.50718e-16
-3.27285e-15
5.5915e-16
-3.31226e-15
6.34386e-16
-3.44727e-15
6.42878e-16
-3.54128e-15
7.28177e-16
-3.48551e-15
4.37073e-16
-3.54496e-15
8.19424e-17
-3.57934e-15
-2.39015e-16
-3.56153e-15
-1.19044e-16
-4.01316e-15
-7.00973e-18
-4.04726e-15
-5.65143e-16
-3.6311e-15
-5.19973e-16
-3.89159e-15
7.42607e-17
-4.22118e-15
4.44635e-17
-3.78954e-15
4.91244e-17
-3.1176e-15
3.23663e-16
-3.00239e-15
5.06355e-16
-3.36006e-15
5.36909e-16
-3.75647e-15
5.13871e-16
-4.04265e-15
2.90862e-16
-3.9655e-15
-2.36324e-16
-3.53918e-15
-5.3911e-16
-3.46958e-15
-2.85297e-16
-3.51575e-15
-1.06103e-16
-3.31828e-15
-1.93873e-16
-2.76536e-15
-3.6281e-16
-2.40012e-15
-8.73804e-18
-2.59628e-15