/*--------------------------------*- C++ -*----------------------------------*\
  =========                 |
  \\      /  F ield         | OpenFOAM: The Open Source CFD Toolbox
   \\    /   O peration     | Website:  https://openfoam.org
    \\  /    A nd           | Version:  7
     \\/     M anipulation  |
\*---------------------------------------------------------------------------*/
FoamFile
{
    version     2.0;
    format      ascii;
    class       volScalarField;
    location    "3500";
    object      rho;
}
// * * * * * * * * * * * * * * * * * * * * * * * * * * * * * * * * * * * * * //

dimensions      [1 -3 0 0 0 0 0];

internalField   nonuniform List<scalar> 
160000
(
22.5764
22.5763
17.4173
17.3839
15.7242
15.8432
21.3163
27.9777
21.0482
20.2262
18.8735
17.6406
17.8177
19.2177
19.2181
19.3696
20.7434
21.9333
23.5834
23.5839
22.1859
17.3259
17.326
18.0633
22.0147
16.9128
16.9129
17.2351
23.0571
23.0573
17.9377
17.6844
17.6856
21.9522
21.9527
17.5534
17.5536
20.3245
21.4437
21.4413
21.444
21.4428
17.065
17.0653
17.0657
21.3111
24.4526
22.552
22.5514
22.5507
18.4592
18.4597
18.4601
18.4606
24.2088
23.116
23.1165
23.1171
19.9975
19.998
19.9986
20.2791
20.884
20.8846
19.1268
19.1274
20.2007
20.2012
20.202
18.4808
18.481
18.4813
18.4812
20.4085
21.8642
21.983
21.9838
21.9588
21.959
21.9608
21.9604
21.9619
21.9621
20.9433
19.487
19.4323
19.4329
19.4336
19.9142
19.9151
19.9159
19.9168
20.6793
21.4254
21.4272
20.5687
21.4834
21.4836
21.4854
21.4854
21.4872
20.9322
20.9305
21.8577
19.6907
19.6915
19.6922
19.6927
21.1557
22.9876
22.9935
22.9897
22.992
22.9917
21.3597
21.3608
21.3534
20.5973
23.6796
24.122
24.1226
22.3972
22.3987
22.4796
22.712
22.7125
22.7142
20.5194
18.7641
18.7653
21.2945
20.3657
20.2642
20.2649
22.2374
22.7814
19.5569
19.5583
20.2255
19.204
19.205
20.5043
20.5053
20.5062
21.6702
22.4904
22.4868
22.4925
22.4889
22.4907
20.4636
20.4638
20.0768
20.8634
20.8647
20.8655
20.8667
22.5518
22.5544
22.0779
19.2417
18.5778
18.1193
18.1202
20.6787
21.3576
21.3585
20.1416
20.1423
18.3463
21.4281
21.7794
21.7838
21.7814
21.7842
20.2685
20.2683
20.2704
20.27
21.3076
21.1457
22.0779
22.2049
22.2058
22.854
22.8332
22.5892
22.5897
20.3023
19.1635
18.4645
14.5835
13.5681
13.5691
17.4923
17.4911
10.4205
10.4226
10.4212
14.8561
21.1838
21.1905
21.185
19.4351
14.9694
14.9713
14.9708
15.7436
23.2596
23.2597
20.7627
20.7618
20.7609
20.2915
19.8316
19.8343
19.861
18.3302
18.3312
18.3317
20.0925
21.3649
21.3664
21.3673
24.6595
24.6617
27.8059
24.8656
22.6914
22.695
22.6947
23.3821
24.673
24.9758
24.7923
22.4562
18.4086
18.4092
18.4092
18.5561
20.4556
21.0947
25.1576
25.9395
27.7586
27.5743
24.0478
11.3106
6.94745
6.95032
6.94864
10.2791
10.2723
8.78259
8.78072
13.0361
16.6732
16.6917
15.0981
15.0969
15.0993
15.8481
16.6949
16.6962
18.8076
20.9278
24.7922
24.4832
23.6133
23.6657
26.0792
20.5332
17.181
17.6338
17.6359
18.4339
21.7301
27.3143
30.5116
29.0392
19.9109
18.1206
17.3938
16.8898
16.6552
16.4526
16.4518
16.4509
16.2318
19.34
20.8901
21.6021
31.9254
36.5025
36.5021
33.0168
30.2769
28.5036
26.9408
15.0708
5.16919
4.92395
4.92545
5.80748
5.5529
4.0577
3.19859
3.1804
3.71555
6.13861
9.82104
13.1532
18.13
20.2834
17.2138
15.3949
15.3925
15.3902
14.3682
14.4724
18.3772
24.008
32.3179
25.83
22.9812
22.9774
20.3325
15.0957
13.5687
13.5682
13.4445
13.2242
13.2248
13.3041
13.2097
13.2103
13.6369
17.123
14.9601
11.9748
11.7434
11.2515
11.2191
11.5634
34.9173
33.6136
33.6088
26.9202
17.4112
16.2319
15.883
15.6062
18.0392
24.0608
24.4402
24.641
21.2865
20.6584
20.6592
21.0037
21.0029
22.2153
25.7604
26.7207
27.0825
27.0829
27.0592
26.7133
26.7155
24.6387
18.1869
18.0446
17.8696
17.8699
17.8415
17.8417
18.0613
20.3057
21.5114
24.3153
24.5082
24.6216
25.6667
25.9673
25.9674
25.8636
21.9703
21.2648
21.2644
21.6887
21.5076
19.6928
18.7188
13.3704
10.6382
7.29548
4.75718
4.68923
4.68935
4.70314
18.6626
18.6624
26.2025
17.0094
16.459
16.5861
17.7142
19.7311
19.731
20.0839
20.7223
21.1544
20.2307
19.2182
21.6873
21.6873
21.3665
18.4859
18.4859
18.4859
20.4582
18.0587
21.4324
22.0146
22.0147
16.9128
20.9289
22.2199
21.9248
21.9239
21.9248
17.8429
17.6846
18.8484
21.9525
21.5369
21.5388
19.0441
19.0447
19.0447
19.9887
21.4428
18.2683
17.0653
18.463
24.4521
24.453
19.084
18.7697
20.9391
19.3712
18.4597
21.5104
24.9292
24.9302
21.4092
23.1171
20.9916
19.9976
19.998
20.5876
20.8833
20.884
19.961
19.9616
19.9623
18.3183
18.319
18.3195
21.0079
21.0087
21.0097
18.6125
18.1194
18.0951
20.137
21.9339
21.7835
20.7007
20.7013
20.7019
20.6012
20.0527
20.0533
20.3063
20.3926
20.3937
19.1501
19.151
19.1517
21.0315
21.4248
21.4247
21.4266
19.9201
19.9838
21.3305
21.4741
21.4845
18.8329
18.8319
23.6276
20.9331
21.8553
21.8599
19.6916
19.6924
19.6931
20.7907
22.9906
22.9887
21.9112
21.7622
21.763
22.4997
22.7712
21.3266
20.5966
20.2543
24.1215
24.1231
24.1236
22.5925
22.5902
21.4754
21.0154
21.0171
19.2496
19.2512
21.2935
21.2946
20.3653
20.4194
25.1618
25.1632
22.7812
23.4037
23.4054
20.2255
20.0106
20.9881
21.7891
22.1832
22.3621
22.3647
21.2213
21.2234
22.4879
22.4894
19.4705
19.4715
20.2511
19.5973
20.1783
21.0635
22.6937
22.6961
22.6959
20.0371
19.2031
19.2038
19.2043
20.2201
20.2906
19.6999
19.7003
21.2238
20.1967
18.3452
18.3463
19.8409
21.7818
19.6059
19.6076
21.7232
23.0519
23.054
22.5714
22.7636
22.158
21.1466
22.2039
22.2052
22.2057
24.4408
26.4487
26.4497
22.0951
14.2887
11.8165
11.8274
18.2408
26.0267
25.347
17.9915
10.4208
10.4228
10.4279
21.189
21.1819
21.1906
19.6566
16.749
14.9865
14.9706
14.9701
23.2069
23.2584
23.2587
19.1338
18.9831
18.9844
19.7064
21.1433
23.4837
22.7236
19.8603
18.3304
19.6994
20.0886
20.0909
19.845
19.8454
23.5856
24.5838
26.1159
28.9248
27.9681
27.79
28.8669
28.7734
24.0861
24.155
24.9772
23.3229
17.8121
17.8127
18.1396
19.0083
18.8737
19.4194
21.572
29.033
30.8608
30.6432
22.5993
9.08167
8.41754
11.2707
23.653
23.6663
16.2811
9.77875
10.7673
14.4718
16.1405
16.9855
16.4556
15.0965
18.1774
18.297
18.2949
16.6937
17.6488
20.8896
24.4419
24.7923
23.6126
23.6134
23.6753
26.0804
17.4132
17.1799
17.4509
17.5383
21.5539
23.5481
30.4173
30.5119
23.4218
17.6424
16.9135
15.9524
15.9536
16.2168
16.4512
16.1448
15.6216
15.6215
16.7414
18.7281
25.6813
31.7055
34.3539
36.196
69.2929
82.3795
69.0245
27.761
7.30559
7.30215
20.663
20.6556
12.1275
4.2493
4.0027
6.53981
9.50852
12.6942
16.008
18.9738
21.6515
23.2028
22.3209
21.5743
15.6318
14.5882
13.9368
14.4167
19.4871
25.6526
31.6817
25.8571
25.8435
29.0341
29.0295
19.6669
13.3879
13.363
13.3634
14.4565
17.9189
18.4138
18.2666
18.3212
16.3049
16.2837
20.6237
20.5265
15.8255
16.4734
18.9289
16.5216
24.4617
34.9135
34.9176
33.2306
18.2058
15.9719
15.6537
15.423
15.4234
19.3902
24.5498
24.7974
24.7976
24.7979
24.6094
24.725
24.9654
24.9789
26.0013
26.8039
26.7217
26.7228
27.083
22.5591
19.66
19.6611
19.6603
20.0932
21.0862
21.3423
19.9519
20.365
19.5276
22.088
22.4218
22.4872
23.9077
24.1443
24.1433
24.9355
24.9084
24.9073
25.4691
22.3857
21.7948
26.7693
26.7703
24.1278
23.9082
23.9873
18.0695
16.5153
12.522
5.57404
4.69596
4.68928
4.70326
18.6626
20.978
26.2028
26.1039
26.1041
19.8147
21.1451
22.0253
19.7425
19.7427
21.9838
21.9839
20.2461
20.6777
21.6874
21.5896
21.5897
21.5894
18.4859
18.4859
19.3466
21.2463
21.2815
21.0238
21.3796
23.0451
23.0455
22.2197
22.5424
22.543
19.2644
19.2295
19.7543
19.8886
19.8891
19.8891
20.6676
22.494
21.4108
19.9931
19.9881
19.9922
19.9945
17.0655
19.6108
22.2999
18.4521
18.4527
18.4529
20.4841
20.484
19.6334
19.7168
20.2138
19.8828
20.1658
23.116
23.1181
23.1168
23.1181
19.128
18.69
18.6894
19.2619
17.3611
17.8584
19.8856
19.8863
18.6667
20.4187
19.68
19.6805
19.6813
19.682
17.9427
17.9427
17.9423
21.0387
21.3629
21.3636
20.2304
21.7675
21.7682
21.769
21.4739
19.9971
19.9943
19.9987
20.0561
19.1521
19.1528
20.7996
19.7895
19.7891
19.9208
18.3307
18.3313
19.2831
21.4842
21.2305
19.1309
24.3078
24.321
21.2949
21.2955
21.2959
22.7256
20.6314
20.5086
20.5095
21.7698
21.9995
22.0007
20.5973
22.8135
22.8148
20.4043
20.2416
20.2424
20.7233
19.07
17.64
19.5225
21.3966
21.3354
21.3318
19.9634
19.9639
21.2923
21.2936
19.7864
21.8696
25.1606
25.162
24.6056
23.868
22.5776
22.5782
21.6899
19.3043
20.2956
22.1819
22.1835
19.9545
21.5549
21.9499
21.1966
21.1985
22.43
19.4706
19.8885
19.9341
19.5969
19.5978
21.8709
22.5942
20.1739
20.1756
20.2511
20.5596
19.2041
19.2047
20.9351
22.7796
22.7803
22.208
21.6182
19.1742
18.3454
18.3462
18.3472
19.8682
22.686
22.6854
20.8737
20.8744
22.4284
24.5337
24.5349
23.6818
22.5465
20.7172
20.7178
25.7608
25.7622
24.3163
16.7037
8.59195
6.15106
9.67663
41.482
41.5081
41.4587
21.1575
12.6124
10.423
11.0897
16.5072
21.1804
21.185
18.9406
18.191
17.8514
18.6375
18.6386
21.4037
23.305
20.6793
18.1595
18.2228
20.4359
20.5408
21.7254
23.8457
24.7766
23.5033
22.1362
22.1987
21.0533
19.9895
19.9893
23.1687
25.8169
26.8498
28.9229
28.9241
28.9252
26.3348
28.925
28.9261
27.8102
25.016
23.5709
18.1589
18.4174
21.5547
20.6363
19.3649
20.1761
21.5902
25.4312
26.9
29.1383
30.86
23.8416
8.76038
8.25764
8.42753
23.6527
23.6674
23.657
10.5984
11.3089
15.9994
17.3153
18.1934
19.475
19.4992
19.1446
20.3582
18.3008
16.8698
16.8699
22.7687
24.672
24.6721
24.612
23.8656
24.9668
24.3455
22.2564
20.2258
22.3832
23.2283
23.0391
24.6777
24.8735
28.1247
28.3634
18.392
15.0945
15.0948
15.9767
16.1627
16.1642
16.1637
18.5688
20.8842
21.5006
21.5012
21.5017
21.7138
25.0608
41.8416
49.3056
72.5555
100.038
43.8613
14.5535
14.543
25.0663
25.0691
11.8395
4.93223
6.47529
12.6279
19.5597
21.5723
19.7265
19.9962
22.7707
24.6812
24.6809
23.0911
15.2764
13.5359
13.5353
16.7616
23.4255
27.7086
33.5177
30.5295
30.5188
33.7046
33.6976
19.1589
14.3264
13.8245
14.6182
14.3446
16.932
21.2466
21.9824
22.0399
22.2992
21.8638
24.652
32.2601
33.5576
33.7189
33.7198
32.0896
31.1268
36.1719
36.174
32.0146
21.8066
15.6496
15.7544
15.5398
16.3194
20.2041
24.3068
24.5293
21.9182
21.6207
24.2891
24.1213
22.8918
22.8925
22.9097
26.7776
26.8032
26.9923
26.9929
23.5998
22.8965
24.4795
22.0528
25.8409
36.4855
37.0417
37.3852
33.1159
21.6518
17.2394
17.2399
17.3168
19.3521
23.909
23.5673
25.4006
26.7348
26.8857
26.8858
25.9844
26.8258
26.8647
26.8649
23.0717
22.3874
24.0018
24.0019
23.9705
20.4498
12.0083
5.87515
4.69496
4.69501
4.70841
19.3453
20.8415
23.2026
23.0436
22.7112
22.7111
21.5509
22.0251
19.3411
19.7428
19.281
19.221
20.2465
19.0055
19.8143
19.3522
18.4347
18.6223
18.4859
20.1042
18.61
18.609
18.6101
18.6088
23.0835
23.0825
20.6501
22.2198
21.0529
16.0391
17.8288
19.0287
19.1039
18.8033
18.8025
23.1814
23.1814
23.1113
19.9936
19.9934
21.5154
21.5166
19.1029
17.7544
19.1353
18.8484
19.3686
19.7266
19.727
18.7796
18.7798
18.7801
18.6101
18.6108
18.6111
19.4751
18.4285
18.4291
18.0567
18.0566
18.0571
18.689
18.6905
17.3606
17.3611
19.5257
19.8468
18.7627
18.7618
24.6351
24.6368
19.495
18.5913
18.5917
18.5919
20.0113
17.492
19.9592
21.3629
18.4423
18.4429
18.8924
21.7682
19.9951
19.9968
19.9964
20.3411
20.3403
20.0583
20.057
19.6795
19.9829
19.9836
19.9843
18.3301
18.3309
18.3317
16.3882
16.3881
20.9778
20.9786
17.7611
24.9742
24.9748
23.1711
24.7644
24.3293
22.1529
21.5509
21.5514
19.6549
20.4198
21.7869
20.0772
20.0779
20.3984
20.5146
20.5155
20.5166
20.3228
18.0337
17.4835
17.4847
17.4945
17.5205
21.1764
21.1773
21.1781
20.2042
20.715
19.7863
20.5492
21.9518
24.3063
25.7551
26.4897
24.5828
23.3521
20.0396
19.3041
20.9355
21.8074
19.9535
19.9544
19.9555
22.1448
22.301
22.3021
19.6675
19.6679
20.9631
20.783
20.568
19.5973
19.5988
19.5984
22.3101
22.8802
22.8814
21.0096
21.902
23.1141
23.1153
23.1164
22.3321
20.2607
20.2246
20.4614
31.2081
32.3691
32.3703
29.4579
22.6234
22.624
22.6249
21.764
22.4301
22.005
20.3848
20.3188
21.267
20.9748
20.5821
24.4235
24.5413
15.8205
6.14172
6.14464
6.14777
32.4603
41.5333
41.4838
19.8952
15.1071
17.2252
21.026
20.0334
19.0149
20.3961
20.8118
20.8127
18.0819
20.5827
21.1858
22.7716
25.1963
23.3072
19.3228
18.1592
19.5551
20.2821
20.2822
21.5647
24.866
24.867
24.8679
24.4692
24.145
23.3983
23.3605
24.9541
26.0337
26.9613
27.9227
28.0256
24.0447
21.6651
21.7758
23.8421
25.4071
25.3063
22.9611
17.1771
16.1764
22.7915
28.3277
28.4943
30.8128
29.7833
23.5687
22.7159
22.7169
29.8616
24.059
9.51235
8.2572
8.2639
14.1214
23.6686
23.6572
10.2969
10.3098
14.9359
16.8802
18.1577
20.3891
21.5815
21.3787
22.1741
22.1747
18.2455
18.2135
22.0381
23.1882
23.5929
19.8374
19.199
23.6696
24.965
24.745
22.2557
24.3857
24.3846
24.3834
23.0378
24.771
25.4353
29.9542
29.9564
23.8707
17.358
16.0329
15.9194
15.9194
17.7829
18.2365
18.4324
19.0967
19.5558
20.3036
20.6882
23.6755
38.3083
28.6773
25.5925
104.451
110.878
110.884
53.9425
31.153
28.7273
21.9022
17.2012
16.7474
22.0592
26.9405
27.514
27.5146
26.5743
23.7895
21.32
21.3206
23.5008
25.0795
22.4138
18.0813
15.2629
15.4675
18.5074
29.4726
34.068
34.0764
32.4347
18.1944
14.6121
13.5013
13.9276
17.6941
21.9944
21.7876
19.3526
19.1599
20.9495
23.8606
31.7661
33.6185
33.8704
33.9245
34.0091
34.0095
33.5428
27.0459
27.0466
33.6821
34.302
25.9637
16.287
15.2885
15.2492
15.2495
16.7359
18.6159
20.519
22.4643
21.6957
21.2877
21.9591
24.2297
24.9693
25.4379
25.6814
25.6822
21.587
21.2211
22.4438
18.4391
16.9003
26.4006
29.8993
35.6183
37.3708
37.3706
37.3849
35.7446
25.1436
17.3715
17.2958
17.2955
20.5831
22.0166
21.9275
21.9271
26.5912
26.8857
26.8858
26.8858
26.793
24.953
21.6766
18.902
17.8002
17.7637
19.9673
23.9043
20.8866
16.7063
13.0456
9.04244
4.71184
4.71169
20.7682
24.4111
23.3019
20.9859
20.2969
20.3866
18.7521
18.7517
18.7518
18.7512
19.2891
18.919
18.9189
19.0053
21.0121
18.4347
18.4347
18.4347
19.4057
20.7793
20.7788
19.3472
18.6095
18.6102
19.2147
18.2281
18.2278
18.2276
17.1527
15.9862
19.1029
19.1035
18.83
19.2252
18.0964
18.0967
18.0969
19.466
25.6165
25.617
20.7783
20.7785
20.9568
19.5953
18.8455
18.8462
18.8463
18.9957
19.727
19.7275
19.0945
19.1726
19.1733
18.6106
18.6112
19.6511
19.179
20.0414
20.0418
19.1649
17.112
16.3509
16.6692
17.7057
19.2116
19.2108
20.5412
18.7634
18.7633
19.168
25.276
22.0179
23.8812
21.3799
19.1915
20.0118
17.4573
16.9014
16.901
19.8654
19.8649
19.1364
20.844
22.1835
22.1847
22.1852
22.1865
20.2659
19.5282
19.5289
19.5296
18.4189
18.0776
18.8006
15.7693
14.8151
14.8182
16.3876
16.3897
14.73
16.1587
15.6869
15.6876
21.8177
28.7372
30.1803
30.1823
27.2379
21.8981
21.0983
19.6554
17.9429
17.944
19.2957
21.5007
21.5027
20.0285
20.029
20.5165
19.3311
19.3319
19.446
18.295
17.4948
18.9706
21.1763
20.604
18.1295
17.864
17.6505
14.2839
14.9605
14.9601
16.0714
19.0255
26.4874
31.1439
26.2633
26.0592
26.4175
24.5972
21.2423
21.2422
20.8142
20.1975
22.0849
21.7975
19.9052
21.7866
21.99
21.3804
19.5958
19.5948
19.5978
19.5965
20.9925
22.5254
22.5284
18.4777
16.982
16.9816
16.9814
16.3584
15.0557
13.7514
11.3772
15.4737
18.9319
24.9314
32.3689
32.367
28.6765
26.6651
22.9175
22.6035
22.6044
22.0059
21.6456
21.3192
20.3182
20.3197
20.3267
20.5825
20.1626
10.6306
5.92932
5.92792
11.1411
41.5371
41.5959
41.5121
21.4857
15.0492
15.049
20.0901
21.6821
19.2651
19.4372
20.3958
17.3239
17.6329
14.2124
18.0802
21.8138
24.1132
26.1787
26.1681
21.7131
20.6146
21.5684
20.7017
20.3038
23.9803
24.866
23.5592
20.9299
21.6561
24.3691
25.5101
26.0715
26.0735
25.9886
22.1055
20.245
20.2458
20.7035
21.1276
22.658
22.9958
20.9686
16.0716
14.2836
13.0874
15.8414
21.5121
28.0774
32.5547
32.4438
32.503
33.5919
38.9258
38.9288
31.9689
13.0829
9.5168
11.2551
23.6497
23.6636
23.6559
9.66706
9.09219
13.7476
18.351
20.8464
21.9881
22.1524
22.9122
22.9133
22.1744
19.8718
18.2841
18.8126
20.1128
17.6596
12.8219
11.6867
14.0829
16.5607
19.7685
25.8381
25.8372
25.4879
23.2929
23.2835
24.8554
25.0169
29.7334
31.3534
28.6291
18.4722
16.4929
16.1464
18.0483
18.1777
18.4849
19.5323
19.7529
20.8717
21.886
20.628
21.8799
35.9391
31.0881
14.8484
16.7107
56.7395
63.5315
20.5513
12.9449
16.0827
11.7978
17.4138
22.8083
24.5667
24.9364
25.3478
25.0311
24.7231
24.7226
26.0009
28.4589
30.0396
30.356
31.7003
31.7008
31.7014
31.5106
30.519
30.5975
29.6646
25.2057
15.8478
14.7195
14.2965
13.7206
13.5015
17.2201
22.6847
22.0756
17.9459
12.0251
11.6706
11.1606
11.7718
20.9069
31.6305
33.5044
33.382
34.0091
32.4351
32.0485
33.3132
33.3144
32.4643
20.8612
16.0082
16.007
16.775
19.3423
19.9613
22.9527
26.8859
25.2632
20.7631
20.6546
20.6062
22.7073
24.976
25.3423
25.3421
25.4413
23.3707
18.4189
13.6042
8.9353
8.68446
9.03872
18.2226
29.6692
30.7711
33.8996
36.9998
33.2113
25.8517
25.5994
25.2077
30.878
26.8612
24.6975
26.705
26.7509
26.7507
26.7721
26.8213
20.695
21.8073
27.6742
27.9622
27.2959
22.9964
19.8094
17.7021
17.7023
17.8028
17.8023
20.4963
17.6765
11.1675
5.10506
4.70428
18.4486
23.9029
20.5536
19.7631
19.5433
20.8146
19.4484
19.8115
19.0593
20.038
20.0377
19.8234
20.0064
20.3441
21.012
21.012
21.0119
19.4623
19.5682
20.0588
19.6305
19.6292
19.6299
18.61
18.6103
20.0908
18.3552
18.4565
15.7916
15.792
15.7919
18.4648
19.5235
19.5238
18.0964
18.0967
18.5878
21.4223
25.6163
25.6169
25.0332
23.7219
21.0513
18.8453
18.8458
20.8541
20.8551
20.0103
18.7035
19.1614
19.1603
18.7044
18.7047
18.705
19.5434
19.7027
20.6154
20.616
19.2047
19.2055
19.2056
15.6484
15.6489
16.2489
19.213
19.4839
20.5496
19.1073
18.7641
18.8347
26.4797
26.4798
26.4829
25.052
19.1919
20.0118
20.0125
20.0132
18.6922
17.7527
17.7535
19.5215
20.8433
19.771
19.7724
21.1188
21.0185
21.0192
21.02
21.0206
19.6295
18.0768
18.0774
18.0783
16.1493
16.1498
13.995
12.2077
12.2079
14.7307
18.3347
15.6868
20.096
30.1829
30.1801
30.1821
24.5092
20.7172
20.7182
21.0979
21.0988
21.0996
17.9436
17.9448
18.9869
21.5034
21.5036
20.0129
20.0135
20.8329
23.3363
23.9429
23.932
21.9618
21.9632
21.0522
19.4015
17.6099
15.0363
12.9676
12.9679
13.0411
15.9059
18.2378
17.2135
24.9065
33.3126
33.8179
31.5016
28.347
25.4307
21.3963
20.5193
20.5182
20.5202
19.2253
19.2261
19.9051
21.989
21.9903
20.7321
19.5952
20.3656
20.7185
20.8893
20.9804
19.7091
19.2446
18.3729
17.789
18.5385
19.4679
15.7025
12.1678
12.6637
11.3778
15.7281
18.5903
25.1389
31.1627
30.8176
27.2427
26.6644
27.6365
27.6391
24.9577
22.6083
22.1309
21.1595
22.2978
22.299
22.3005
17.0888
7.43985
3.26591
6.86423
41.6315
41.5491
41.6329
41.539
19.0093
16.5541
16.5292
19.8273
22.9147
22.2792
18.376
15.9149
15.9167
14.4423
14.4437
14.2121
17.0401
24.0019
26.1776
26.1787
26.18
24.6227
23.4459
23.2422
22.8479
22.7226
22.6973
21.0181
20.4845
20.128
20.5218
20.4728
20.2271
20.2282
20.7979
19.965
19.965
20.5758
23.3996
24.1225
24.1713
23.0213
20.6219
17.9012
15.3811
14.1553
12.8024
14.14
20.5098
27.0974
32.5557
33.3928
34.0741
37.8052
43.4634
34.8339
16.3429
14.6676
23.6513
23.6446
23.6576
13.1209
9.53579
9.43688
12.1228
16.9071
21.1745
22.6263
22.9749
21.8623
20.2059
20.2074
20.565
20.1881
21.4999
22.0063
20.3192
14.6742
12.9076
11.3458
12.8087
17.1892
25.3774
25.8365
24.6284
21.7422
21.7408
24.304
25.442
29.5889
31.3542
31.3549
21.2404
18.2297
18.2301
23.1491
24.4728
24.4735
24.4741
22.8765
20.184
19.9885
22.2562
27.6222
37.3394
35.5843
14.8476
14.8502
20.9905
41.8002
15.1968
8.81407
8.56345
8.42625
8.42632
13.2079
22.3905
23.9782
24.0573
24.6111
24.9943
24.8695
28.46
30.3973
30.3993
29.2164
25.3839
18.6542
18.8417
18.1731
18.1719
21.5022
30.5956
30.433
23.869
14.5791
13.6907
13.63
13.6304
18.1215
23.1164
23.1171
22.3989
15.7201
11.7398
11.6226
11.1606
11.4855
19.6071
29.9706
29.2434
29.2438
30.1454
29.89
31.715
32.9183
33.1432
32.3265
31.1051
25.0501
16.5414
16.3055
20.861
27.4955
27.5012
27.5014
24.829
20.746
20.7456
20.6065
20.6064
21.0466
21.0169
21.0173
20.9918
20.3228
13.3721
8.86973
8.80102
8.68448
8.8637
12.9862
24.9053
36.9371
37.5197
37.5199
37.2864
37.4737
37.4739
37.4741
35.7328
25.9639
19.7012
18.4414
18.4229
18.4231
18.482
20.286
20.393
20.4644
26.2217
27.9622
27.8962
27.9438
27.9439
26.2461
24.6509
19.3719
20.6344
20.7326
20.7328
14.028
6.19306
4.71333
21.6158
20.1949
19.2566
19.285
19.5236
21.5329
21.5328
21.208
20.8197
21.6757
19.89
19.4531
20.5083
20.5084
19.5483
20.2375
19.4101
20.6502
19.5685
20.3967
21.0201
21.0212
18.9451
18.6102
20.8385
20.8403
19.6123
19.8522
17.1624
16.6269
17.5178
18.4147
17.9817
19.2269
18.0964
18.0967
22.2737
25.6159
25.6165
23.0093
24.2918
24.2923
23.4322
19.7202
21.8428
21.8433
19.0653
19.0656
18.7037
18.7034
18.7043
18.704
18.7049
19.5832
19.5847
19.4572
20.6154
20.6159
20.0458
19.6437
16.8592
15.6484
16.2029
20.2391
20.2614
20.264
20.5496
18.7657
18.7649
23.5898
22.7958
22.7983
22.7941
22.7987
22.7959
22.7975
18.3898
18.3904
18.7441
18.2975
19.7545
19.7555
18.4214
18.4221
21.5458
21.5474
21.2169
19.0975
18.3169
18.3176
18.3184
18.077
18.192
19.4943
19.4243
14.7175
14.719
17.5315
17.5338
14.7301
19.2882
15.6876
19.7179
30.1789
30.1841
30.1813
30.1841
22.5986
20.146
20.1487
20.1492
19.269
19.2698
21.6234
21.6244
21.6254
20.0119
20.0125
20.0139
22.9756
23.9419
23.9432
21.7221
19.2165
20.317
21.2981
19.839
19.2363
17.7702
15.4159
13.9945
14.8239
14.823
15.0775
16.8723
20.3014
32.9204
33.8176
33.8193
29.4116
24.5252
22.4949
21.1822
19.84
19.7004
19.7018
20.6299
20.6306
19.3678
19.3686
20.5688
20.5719
20.0554
20.0559
20.5108
20.979
19.7066
19.1661
18.508
18.6124
22.3911
22.3923
19.7941
11.947
11.7385
11.7203
18.1787
18.8103
24.3158
32.8277
33.0219
33.0238
27.7721
26.7314
26.732
26.7333
23.3228
21.3379
21.1597
21.5702
21.9307
17.445
7.6206
3.26343
3.26006
10.194
41.5523
41.6355
41.5504
20.6873
16.6596
16.6607
19.5722
19.5988
22.9145
22.9157
21.5923
16.8023
15.8572
14.7889
15.681
14.2123
14.2128
21.014
24.1268
25.5858
26.18
26.181
26.1817
22.4206
21.5592
21.7501
20.0509
18.5962
18.5971
20.0592
20.4557
20.7493
22.0354
23.4761
22.5076
20.8874
20.855
21.4408
21.8942
23.2042
24.4585
24.4595
24.2292
18.8582
14.4793
13.7852
12.8023
14.9945
23.8717
33.479
33.4837
26.6242
25.7337
38.4226
43.4632
34.7499
24.4779
22.8187
21.7494
18.0122
12.9425
10.5115
10.2038
12.2268
15.2781
19.5516
23.0568
23.6349
23.6353
23.1552
23.4639
24.1344
24.1352
24.1146
24.1366
24.1374
21.8983
13.5199
12.0608
11.3458
12.5835
18.1934
18.9091
20.865
20.8644
23.1952
25.9414
28.1864
28.445
31.3534
31.3541
31.355
26.7092
22.9278
20.4693
20.2288
20.0926
19.9255
18.9055
18.7722
18.7729
19.9814
22.5929
26.2095
32.1204
22.1482
14.8498
14.8481
20.8781
16.3625
9.12869
8.64447
8.90941
10.4971
10.5301
16.3682
21.4826
22.7573
23.5643
24.8703
25.4422
27.6434
29.7005
30.1902
29.7405
20.3982
17.819
17.2939
17.2937
18.8695
23.1419
26.8936
27.5241
25.9719
25.4113
24.4788
21.9959
18.2576
16.6559
18.3598
22.0504
22.8621
21.7357
15.09
11.6497
11.787
11.1714
11.7159
17.7911
30.0122
30.7411
30.5655
30.4876
29.8897
31.6724
32.8912
33.1268
30.3103
29.4012
23.3389
16.2826
16.282
19.6817
26.6362
27.3643
26.8023
20.9945
20.6829
20.6832
23.9493
24.2152
24.2154
22.5797
23.3019
24.0018
24.0023
22.6423
16.2219
8.94368
8.68446
9.02567
18.461
29.4885
30.4333
30.4329
33.3038
37.259
36.9668
33.4967
30.0193
29.5572
29.3554
29.1568
22.3826
18.5805
18.5429
23.1859
26.1381
24.2131
23.8388
27.7267
27.6602
20.6774
18.7853
18.5725
18.5726
18.6067
18.6264
18.6261
20.7325
20.4736
14.2538
6.37022
4.72194
18.9711
20.1951
18.865
21.5615
21.5616
20.1774
19.9552
19.9548
21.4038
21.6757
21.6755
19.1631
19.1629
19.1626
19.1625
19.0512
19.4097
21.1585
21.1585
20.3968
20.975
20.406
20.4059
20.7888
20.7393
19.9984
19.9961
19.9973
18.332
18.5297
18.5301
17.8471
17.8473
19.3904
19.5062
25.2406
25.2412
23.2431
22.6669
23.0089
21.5762
21.5764
22.8118
21.1529
21.8428
21.7902
21.1882
21.1885
21.1886
21.1889
19.856
19.8564
19.8566
18.6512
18.6521
18.6522
18.8279
19.9912
19.2982
19.2984
19.2989
17.949
18.3125
19.0351
18.9761
18.9767
18.9773
19.6403
24.264
24.2649
25.7827
27.3792
27.3803
24.3331
19.8023
19.7452
19.7456
21.7256
20.1913
19.5558
18.9831
18.4207
18.4214
19.0626
19.9879
20.1407
19.0967
19.0974
19.4893
19.7613
18.0768
18.0773
18.4302
19.4938
20.0472
20.0471
19.8257
16.2553
17.147
20.6448
21.1687
16.3749
23.6701
27.3291
24.3417
23.9134
22.485
20.702
20.705
20.7023
20.7039
20.1919
19.5323
19.4193
19.4203
19.4211
21.2695
22.0537
22.0546
20.3739
20.3746
20.3756
19.2156
19.2164
20.9585
21.2991
18.9765
17.6948
17.6905
17.6967
17.6923
16.8859
17.2676
21.7672
26.1907
32.0579
32.0574
33.4974
32.5006
23.8073
22.9308
22.9325
21.7228
19.8406
20.1243
20.6289
20.6296
19.9979
19.9983
21.7162
21.7176
20.5717
20.0549
20.0564
20.4365
20.9167
20.1607
21.4498
21.6395
22.2614
22.3912
22.3922
18.8012
16.8016
22.0483
22.533
22.5347
20.0259
30.9456
33.0203
33.0225
27.5544
27.5554
27.5564
27.5578
22.02
19.71
19.7108
22.7239
21.4614
15.0897
6.65015
3.26338
3.2598
3.26451
10.1509
41.6342
41.5528
16.2113
14.1828
18.9111
22.1791
22.1806
19.9917
19.9938
22.5526
22.5542
20.8738
16.7055
15.4881
15.6812
15.2595
19.8433
22.4327
23.4647
22.5052
22.5043
25.9868
25.3122
21.4003
20.7028
19.6969
18.5528
19.3887
21.2028
22.4169
22.6678
23.4739
23.4766
23.4758
23.4778
23.2586
21.7938
21.4405
23.5974
24.4574
24.4586
23.6234
23.7792
23.7808
22.1916
20.5999
20.7905
23.263
27.4383
33.4826
29.7879
23.8227
24.5643
29.1392
27.8462
23.6981
22.6004
20.561
18.2368
16.2871
15.6224
14.5256
14.2397
15.2099
16.5853
18.128
19.9651
21.685
22.0178
22.7102
23.9862
24.1004
24.1352
24.136
24.1367
23.3298
18.1981
15.4341
14.7989
16.039
16.0402
16.0402
16.1594
18.9591
22.1006
23.8753
24.6954
25.0002
28.0456
30.1692
30.0663
27.5476
25.8888
24.9282
23.7266
22.0874
21.1833
20.4691
19.8724
20.8495
22.5513
23.0732
25.6522
29.5785
32.5718
21.214
15.3208
16.4608
16.9931
11.0998
8.74547
8.64445
11.4281
17.1663
21.5152
21.6237
24.7734
23.9281
23.6752
25.7708
29.9598
30.6823
31.0349
31.4462
28.7309
18.3827
17.8178
18.4752
20.098
18.929
19.3239
19.4217
21.6903
24.5985
24.8437
25.3191
25.3198
22.5706
19.8828
21.2973
22.7302
22.7646
21.2643
13.0805
11.5913
13.9041
18.8966
23.0573
30.5624
31.6717
32.3082
32.3086
32.309
32.3093
30.8511
22.3041
20.701
20.2956
19.865
17.5119
16.2818
17.1837
23.5002
27.6763
27.6768
27.1388
22.619
21.3878
23.7899
23.809
24.2152
24.2114
19.0626
18.2902
19.5101
23.9684
23.969
22.8299
16.5368
13.4889
14.0576
26.9292
37.144
37.1448
34.3264
37.2995
37.2597
37.3438
37.3444
33.8282
29.7444
29.5259
25.8569
18.5935
18.5938
24.6855
26.2378
26.4921
27.7345
27.9739
27.9739
27.9741
24.3234
27.0679
27.0682
26.9858
22.7823
22.53
22.5306
20.4325
12.8874
8.34682
4.71521
4.71533
18.2139
19.1121
18.8648
20.0926
20.0923
21.3472
21.0366
19.9546
19.1769
18.747
20.4589
20.2736
20.2735
20.2733
19.0512
19.0512
19.3476
20.7674
20.3774
22.4088
22.409
20.9919
21.7805
21.7808
20.5967
20.5958
20.5969
19.9569
17.9971
17.9976
18.53
19.3731
19.6135
20.9414
19.507
19.5076
19.5083
20.189
22.5871
23.5875
23.588
21.5766
19.2444
19.2447
19.2451
19.4441
20.6883
19.0479
19.0485
19.0488
20.9168
18.8354
18.8356
18.8361
18.8365
18.6526
19.3746
19.7011
19.4875
19.4882
18.8035
15.4981
14.6226
14.6227
20.3861
20.6753
20.6761
19.065
19.0656
19.0663
22.7617
27.287
25.5966
21.7592
21.7593
21.7605
21.7605
21.726
19.5559
19.556
21.3231
21.3238
20.6031
19.3151
20.7189
20.1297
19.8762
19.6021
21.2579
21.5179
21.519
18.2709
19.1131
18.8801
18.8807
19.9801
17.6356
16.2232
16.2245
16.7927
21.4466
16.3767
19.1752
28.3204
28.3207
28.076
22.7152
20.9723
20.9729
20.4943
18.4852
18.4855
19.3962
21.3591
21.1164
19.449
21.0646
22.0536
19.6315
21.7967
21.7978
21.7988
21.7357
20.1777
19.5833
19.5827
20.5691
19.9208
17.625
14.8704
14.871
15.5801
20.8745
23.3724
20.877
20.8781
30.8281
33.3662
26.3585
21.4965
21.4975
21.7342
21.7353
21.7362
19.8508
19.8512
20.3179
23.2468
23.248
21.4873
21.4881
21.4887
21.8415
20.4941
20.0629
20.0639
20.6479
21.6601
21.6613
19.7891
17.5536
15.6342
15.6352
16.0182
18.4603
16.0372
16.0399
19.118
22.656
28.4999
32.9301
32.7517
31.4221
29.4008
24.181
20.9435
20.9454
23.0879
22.9829
12.9078
5.73801
3.26487
3.26129
3.26518
5.52745
27.1778
41.5427
17.5785
13.5835
13.5837
18.3515
21.2259
22.818
23.1375
23.1382
22.3767
22.1259
19.87
18.3102
15.4882
16.3897
15.2605
17.4682
22.5194
23.6412
22.5191
22.4906
23.6478
25.9015
25.9026
24.4741
19.6814
18.4628
18.8615
19.8721
19.5509
19.4316
20.8939
22.7085
23.4775
23.4766
21.769
20.4477
23.3461
24.4563
24.4575
23.3208
23.3214
23.3226
23.5483
18.3349
15.56
13.3633
13.3642
20.5412
25.891
23.9557
20.6253
23.2856
28.1766
26.9685
24.4539
23.6209
21.774
20.551
20.8896
22.0964
22.42
19.3994
17.3238
17.2854
18.8181
21.4198
23.0545
23.3551
23.3563
22.4959
21.4895
21.9252
22.4652
22.2345
17.1592
12.9638
12.0231
12.0241
12.024
12.8415
17.3002
20.1163
24.0983
24.6497
24.5035
25.4221
26.7867
27.1725
26.0391
23.942
23.0427
22.4582
22.2124
21.2782
18.1987
17.5743
18.9524
22.2276
22.8501
22.8497
19.8191
20.4623
32.3858
32.5602
26.9029
21.2832
15.2364
10.4811
9.33686
9.25305
11.6071
12.2151
12.2148
12.8079
21.7168
27.6441
29.1358
24.1803
24.179
24.6853
29.4334
29.2196
31.463
31.4639
26.5343
19.5765
19.5501
23.3141
24.7056
24.7838
24.7843
24.3203
23.9341
24.1399
23.5363
21.4231
19.9856
19.8822
20.0336
22.3588
22.7654
22.6424
16.9857
11.5917
11.6386
11.6384
12.0788
26.4125
30.3594
31.7967
25.7763
22.9195
22.6697
23.5385
24.0162
22.6277
23.8264
26.878
27.683
27.9244
25.1771
24.8816
27.2921
27.1003
26.9498
26.5101
18.2009
17.3714
17.3933
17.585
18.0419
18.0421
18.1293
18.2513
21.266
23.953
23.3295
14.1731
13.587
13.979
24.0732
36.8127
37.1167
36.8624
37.4203
37.4207
29.9594
29.9572
32.2043
35.048
32.5326
27.7356
25.4182
25.3642
24.2593
20.5869
18.6231
18.7624
25.4492
27.9726
27.9428
27.9427
27.7985
21.0041
20.1529
20.1531
20.1944
22.525
22.5002
14.8449
13.4358
9.81709
4.85325
24.0755
19.3662
18.8647
18.8646
21.9665
21.3486
19.5549
19.5548
19.5545
18.7469
18.707
18.7069
18.7067
18.7067
19.1776
19.1777
18.7848
20.0573
18.7847
19.9991
19.8118
21.4403
21.4407
19.0385
20.6135
20.6135
19.7503
19.1505
19.6961
19.7825
18.4631
18.4638
19.4626
20.8645
19.5074
20.7541
24.0713
24.0716
21.9839
21.9842
21.9847
21.1451
19.3674
20.6735
20.9249
19.0475
19.0477
19.0481
20.5475
21.1783
21.1791
18.8354
19.717
19.964
18.6524
18.6523
19.8565
19.8568
18.6187
18.6187
18.619
18.6198
16.8402
15.4179
15.7789
19.9801
20.5027
19.065
23.8342
23.8358
23.5787
23.5843
23.9025
23.8713
20.3904
20.1157
20.0685
19.8993
19.8993
22.5207
22.5217
20.9501
20.2814
20.2819
21.9154
21.9164
20.0192
19.6024
21.5082
21.5181
20.4606
20.4612
20.4617
20.4622
18.4969
16.9234
16.1695
17.1906
21.969
21.9703
21.4461
20.1879
28.3181
28.3195
25.2217
23.4614
23.4632
22.0539
20.4931
18.4844
18.4847