/*--------------------------------*- C++ -*----------------------------------*\
  =========                 |
  \\      /  F ield         | OpenFOAM: The Open Source CFD Toolbox
   \\    /   O peration     | Website:  https://openfoam.org
    \\  /    A nd           | Version:  7
     \\/     M anipulation  |
\*---------------------------------------------------------------------------*/
FoamFile
{
    version     2.0;
    format      ascii;
    class       volScalarField;
    location    "3500";
    object      rho1;
}
// * * * * * * * * * * * * * * * * * * * * * * * * * * * * * * * * * * * * * //

dimensions      [1 -3 0 0 0 0 0];

internalField   nonuniform List<scalar> 
160000
(
984.961
984.95
984.939
984.929
984.919
984.91
984.902
984.895
984.888
984.882
984.877
984.872
984.868
984.865
984.863
984.861
984.86
984.859
984.86
984.861
984.862
984.864
984.867
984.871
984.875
984.88
984.885
984.891
984.898
984.905
984.913
984.921
984.93
984.94
984.95
984.96
984.972
984.984
984.996
985.008
985.022
985.036
985.05
985.066
985.081
985.098
985.114
985.131
985.148
985.166
985.184
985.204
985.224
985.244
985.265
985.285
985.306
985.328
985.349
985.371
985.395
985.419
985.442
985.466
985.489
985.514
985.54
985.566
985.592
985.617
985.643
985.67
985.697
985.725
985.752
985.78
985.809
985.837
985.866
985.896
985.926
985.957
985.988
986.018
986.049
986.081
986.112
986.143
986.174
986.207
986.239
986.271
986.305
986.34
986.373
986.405
986.438
986.472
986.505
986.539
986.573
986.606
986.64
986.676
986.71
986.745
986.78
986.815
986.851
986.887
986.924
986.959
986.994
987.03
987.065
987.1
987.136
987.172
987.21
987.248
987.285
987.322
987.358
987.395
987.433
987.471
987.51
987.547
987.583
987.621
987.658
987.694
987.731
987.77
987.81
987.847
987.884
987.921
987.957
987.993
988.029
988.068
988.105
988.142
988.182
988.22
988.258
988.296
988.333
988.369
988.406
988.443
988.479
988.517
988.554
988.591
988.629
988.667
988.705
988.743
988.78
988.818
988.855
988.893
988.93
988.966
989.003
989.04
989.076
989.112
989.148
989.186
989.221
989.257
989.293
989.328
989.362
989.397
989.434
989.471
989.506
989.541
989.577
989.611
989.646
989.683
989.72
989.757
989.795
989.834
989.874
989.912
989.948
989.983
990.019
990.052
990.082
990.117
990.158
990.2
990.237
990.27
990.301
990.331
990.36
990.39
990.423
990.458
990.491
990.521
990.551
990.582
990.612
990.642
990.671
990.701
990.73
990.758
990.788
990.819
990.85
990.879
990.906
990.933
990.96
990.987
991.016
991.044
991.072
991.101
991.128
991.155
991.182
991.21
991.238
991.265
991.291
991.317
991.343
991.369
991.394
991.419
991.443
991.468
991.493
991.518
991.544
991.573
991.605
991.641
991.675
991.705
991.73
991.754
991.776
991.798
991.82
991.841
991.862
991.885
991.912
991.938
991.96
991.981
992.001
992.023
992.045
992.066
992.087
992.109
992.132
992.154
992.175
992.196
992.216
992.235
992.254
992.274
992.295
992.315
992.334
992.353
992.373
992.392
992.412
992.432
992.451
992.469
992.486
992.503
992.521
992.537
992.553
992.57
992.587
992.604
992.62
992.636
992.651
992.667
992.685
992.706
992.729
992.75
992.769
992.785
992.801
992.816
992.83
992.843
992.857
992.87
992.882
992.895
992.909
992.923
992.938
992.951
992.964
992.975
992.987
992.998
993.01
993.022
993.035
993.049
993.062
993.075
993.087
993.099
993.11
993.121
993.132
993.142
993.152
993.163
993.172
993.182
993.192
993.202
993.211
993.22
993.229
993.237
993.246
993.254
993.262
993.271
993.28
993.288
993.296
993.304
993.311
993.318
993.325
993.332
993.339
993.345
993.352
993.358
993.364
993.37
993.376
993.382
993.387
993.393
993.399
993.404
993.409
993.414
993.418
993.423
993.427
993.431
993.435
993.439
993.442
993.446
993.449
993.452
993.455
993.458
993.46
993.463
993.465
993.467
993.469
993.471
993.473
993.475
993.476
993.477
993.479
993.479
993.48
993.481
993.481
993.482
993.482
993.482
984.961
984.95
984.939
984.929
984.919
984.91
984.902
984.895
984.888
984.882
984.877
984.872
984.868
984.865
984.863
984.861
984.86
984.859
984.86
984.861
984.862
984.864
984.867
984.871
984.875
984.879
984.885
984.891
984.898
984.905
984.913
984.921
984.93
984.94
984.95
984.96
984.972
984.984
984.995
985.008
985.022
985.036
985.05
985.065
985.081
985.098
985.114
985.131
985.148
985.166
985.185
985.204
985.224
985.244
985.264
985.285
985.306
985.328
985.349
985.372
985.395
985.418
985.442
985.466
985.49
985.515
985.54
985.565
985.591
985.617
985.644
985.671
985.697
985.724
985.752
985.78
985.809
985.837
985.866
985.896
985.926
985.957
985.987
986.017
986.048
986.081
986.112
986.143
986.175
986.207
986.239
986.272
986.305
986.34
986.372
986.405
986.438
986.471
986.505
986.539
986.573
986.607
986.64
986.675
986.711
986.745
986.78
986.815
986.851
986.887
986.923
986.959
986.994
987.029
987.064
987.1
987.136
987.172
987.21
987.248
987.285
987.322
987.359
987.396
987.433
987.471
987.509
987.546
987.583
987.621
987.658
987.694
987.731
987.771
987.81
987.846
987.883
987.921
987.957
987.992
988.029
988.068
988.105
988.143
988.182
988.22
988.258
988.295
988.332
988.368
988.406
988.443
988.479
988.517
988.554
988.592
988.63
988.667
988.705
988.742
988.78
988.818
988.856
988.893
988.93
988.966
989.003
989.04
989.076
989.113
989.149
989.186
989.221
989.257
989.293
989.327
989.362
989.398
989.434
989.47
989.505
989.54
989.576
989.61
989.646
989.682
989.719
989.757
989.795
989.835
989.877
989.915
989.951
989.985
990.018
990.05
990.083
990.122
990.163
990.2
990.235
990.268
990.299
990.329
990.359
990.391
990.425
990.458
990.49
990.52
990.551
990.582
990.612
990.641
990.671
990.7
990.729
990.759
990.789
990.819
990.849
990.877
990.905
990.932
990.96
990.988
991.016
991.044
991.072
991.1
991.128
991.154
991.182
991.211
991.238
991.265
991.291
991.318
991.343
991.369
991.394
991.419
991.443
991.468
991.492
991.517
991.544
991.576
991.612
991.646
991.676
991.703
991.728
991.752
991.775
991.798
991.819
991.841
991.862
991.887
991.913
991.937
991.959
991.98
992.001
992.023
992.045
992.066
992.087
992.11
992.133
992.154
992.175
992.196
992.216
992.235
992.254
992.274
992.295
992.315
992.334
992.353
992.373
992.393
992.413
992.432
992.451
992.468
992.486
992.503
992.52
992.537
992.553
992.57
992.587
992.604
992.621
992.636
992.652
992.668
992.689
992.711
992.731
992.75
992.768
992.785
992.8
992.814
992.829
992.842
992.856
992.869
992.882
992.895
992.909
992.924
992.938
992.951
992.963
992.975
992.986
992.998
993.009
993.022
993.036
993.05
993.063
993.075
993.087
993.099
993.11
993.121
993.131
993.142
993.152
993.162
993.172
993.182
993.192
993.202
993.211
993.22
993.229
993.237
993.246
993.254
993.263
993.271
993.28
993.288
993.296
993.303
993.311
993.318
993.325
993.332
993.339
993.345
993.352
993.358
993.364
993.37
993.376
993.382
993.388
993.393
993.399
993.404
993.409
993.414
993.418
993.423
993.427
993.431
993.435
993.439
993.442
993.446
993.449
993.452
993.455
993.458
993.46
993.463
993.465
993.467
993.469
993.471
993.473
993.475
993.476
993.477
993.479
993.479
993.48
993.481
993.481
993.482
993.482
993.482
984.961
984.95
984.939
984.929
984.919
984.91
984.902
984.895
984.888
984.882
984.877
984.872
984.868
984.865
984.863
984.861
984.86
984.859
984.86
984.861
984.862
984.865
984.867
984.871
984.875
984.88
984.885
984.891
984.898
984.905
984.913
984.921
984.93
984.94
984.95
984.96
984.972
984.983
984.995
985.008
985.022
985.036
985.05
985.065
985.081
985.098
985.114
985.13
985.148
985.166
985.186
985.205
985.224
985.244
985.264
985.284
985.306
985.327
985.35
985.372
985.395
985.418
985.442
985.466
985.49
985.515
985.54
985.566
985.591
985.617
985.644
985.67
985.697
985.724
985.752
985.78
985.809
985.838
985.867
985.896
985.926
985.957
985.987
986.017
986.048
986.08
986.111
986.144
986.176
986.207
986.24
986.273
986.305
986.339
986.372
986.404
986.437
986.471
986.505
986.539
986.573
986.607
986.641
986.675
986.71
986.746
986.781
986.815
986.851
986.887
986.923
986.958
986.994
987.029
987.064
987.1
987.136
987.173
987.21
987.248
987.285
987.322
987.359
987.396
987.433
987.471
987.508
987.546
987.583
987.62
987.657
987.694
987.733
987.772
987.809
987.846
987.883
987.92
987.957
987.993
988.029
988.068
988.106
988.143
988.182
988.22
988.258
988.295
988.332
988.368
988.406
988.443
988.479
988.517
988.555
988.593
988.63
988.668
988.705
988.742
988.78
988.817
988.856
988.893
988.93
988.967
989.003
989.04
989.076
989.113
989.15
989.186
989.222
989.257
989.292
989.326
989.362
989.398
989.433
989.469
989.504
989.539
989.574
989.609
989.645
989.681
989.718
989.756
989.797
989.843
989.884
989.919
989.953
989.985
990.018
990.052
990.088
990.126
990.163
990.199
990.233
990.266
990.298
990.328
990.36
990.392
990.425
990.457
990.489
990.52
990.55
990.581
990.611
990.641
990.671
990.7
990.729
990.759
990.789
990.819
990.848
990.876
990.904
990.932
990.96
990.988
991.017
991.044
991.072
991.1
991.128
991.155
991.183
991.211
991.238
991.265
991.292
991.318
991.343
991.368
991.394
991.419
991.443
991.467
991.491
991.517
991.547
991.583
991.619
991.65
991.677
991.702
991.727
991.751
991.774
991.796
991.819
991.84
991.864
991.888
991.912
991.935
991.957
991.979
992.001
992.023
992.045
992.066
992.088
992.111
992.133
992.154
992.175
992.196
992.216
992.235
992.254
992.275
992.295
992.314
992.334
992.354
992.374
992.394
992.413
992.432
992.45
992.468
992.485
992.503
992.52
992.537
992.553
992.57
992.587
992.605
992.622
992.638
992.654
992.673
992.694
992.714
992.732
992.75
992.767
992.783
992.799
992.813
992.827
992.841
992.855
992.869
992.882
992.896
992.91
992.924
992.937
992.95
992.962
992.974
992.986
992.998
993.01
993.024
993.037
993.05
993.063
993.075
993.087
993.098
993.109
993.12
993.131
993.142
993.152
993.162
993.172
993.182
993.192
993.201
993.211
993.22
993.228
993.237
993.246
993.254
993.263
993.271
993.28
993.288
993.296
993.303
993.311
993.318
993.325
993.332
993.339
993.345
993.352
993.358
993.364
993.37
993.376
993.382
993.388
993.393
993.399
993.404
993.409
993.414
993.418
993.423
993.427
993.431
993.435
993.439
993.442
993.446
993.449
993.452
993.455
993.458
993.46
993.463
993.465
993.467
993.469
993.471
993.473
993.475
993.476
993.477
993.479
993.48
993.48
993.481
993.481
993.482
993.482
993.482
984.961
984.95
984.939
984.928
984.919
984.91
984.902
984.894
984.888
984.882
984.877
984.872
984.868
984.865
984.863
984.861
984.86
984.859
984.86
984.861
984.862
984.865
984.867
984.871
984.875
984.88
984.885
984.891
984.898
984.905
984.913
984.921
984.93
984.94
984.95
984.961
984.972
984.983
984.995
985.008
985.022
985.036
985.051
985.065
985.081
985.097
985.114
985.131
985.148
985.166
985.185
985.205
985.224
985.243
985.264
985.285
985.306
985.327
985.349
985.372
985.394
985.418
985.442
985.466
985.49
985.515
985.54
985.566
985.592
985.618
985.644
985.67
985.696
985.724
985.752
985.781
985.809
985.838
985.868
985.896
985.926
985.957
985.987
986.017
986.048
986.079
986.111
986.144
986.175
986.208
986.24
986.272
986.305
986.338
986.371
986.404
986.438
986.471
986.504
986.539
986.573
986.607
986.642
986.676
986.711
986.746
986.781
986.816
986.851
986.887
986.922
986.957
986.993
987.029
987.065
987.1
987.136
987.173
987.211
987.248
987.285
987.322
987.359
987.396
987.433
987.471
987.509
987.546
987.583
987.62
987.657
987.695
987.734
987.772
987.81
987.847
987.883
987.92
987.956
987.993
988.03
988.068
988.105
988.143
988.181
988.22
988.258
988.295
988.331
988.368
988.406
988.443
988.48
988.517
988.555
988.592
988.63
988.668
988.705
988.742
988.78
988.818
988.856
988.894
988.931
988.967
989.004
989.041
989.078
989.114
989.151
989.186
989.22
989.256
989.291
989.326
989.362
989.397
989.432
989.467
989.503
989.538
989.572
989.607
989.643
989.68
989.719
989.76
989.808
989.852
989.888
989.921
989.954
989.987
990.021
990.055
990.09
990.126
990.161
990.197
990.231
990.265
990.297
990.328
990.36
990.392
990.424
990.456
990.487
990.519
990.549
990.58
990.61
990.64
990.67
990.7
990.73
990.759
990.789
990.818
990.847
990.875
990.904
990.932
990.96
990.989
991.017
991.045
991.072
991.1
991.128
991.156
991.183
991.211
991.238
991.265
991.292
991.318
991.343
991.369
991.394
991.419
991.443
991.467
991.492
991.52
991.554
991.591
991.623
991.65
991.676
991.701
991.725
991.749
991.772
991.795
991.818
991.841
991.864
991.888
991.911
991.934
991.956
991.978
992
992.023
992.044
992.066
992.088
992.111
992.133
992.155
992.176
992.196
992.215
992.234
992.254
992.275
992.295
992.315
992.335
992.354
992.374
992.393
992.412
992.431
992.449
992.467
992.485
992.502
992.519
992.536
992.552
992.569
992.588
992.607
992.624
992.641
992.658
992.677
992.696
992.715
992.733
992.75
992.766
992.782
992.797
992.812
992.826
992.84
992.854
992.868
992.882
992.896
992.91
992.923
992.937
992.95
992.962
992.974
992.986
992.998
993.012
993.025
993.038
993.051
993.063
993.075
993.086
993.098
993.109
993.12
993.131
993.142
993.152
993.162
993.172
993.182
993.192
993.201
993.211
993.22
993.228
993.237
993.246
993.254
993.263
993.272
993.28
993.288
993.295
993.303
993.31
993.318
993.325
993.332
993.339
993.345
993.352
993.358
993.364
993.37
993.376
993.382
993.388
993.393
993.399
993.404
993.409
993.414
993.418
993.423
993.427
993.431
993.435
993.439
993.442
993.445
993.449
993.452
993.455
993.458
993.46
993.463
993.465
993.467
993.469
993.471
993.473
993.475
993.476
993.477
993.479
993.48
993.48
993.481
993.482
993.482
993.482
993.482
984.961
984.95
984.939
984.928
984.919
984.91
984.902
984.894
984.888
984.882
984.877
984.872
984.869
984.865
984.863
984.861
984.86
984.859
984.86
984.861
984.862
984.865
984.867
984.871
984.875
984.88
984.885
984.891
984.898
984.905
984.913
984.921
984.93
984.94
984.95
984.961
984.972
984.983
984.995
985.008
985.022
985.036
985.051
985.066
985.081
985.097
985.113
985.13
985.148
985.167
985.185
985.205
985.224
985.244
985.264
985.285
985.306
985.327
985.349
985.372
985.394
985.418
985.442
985.466
985.49
985.515
985.54
985.566
985.592
985.618
985.644
985.67
985.697
985.724
985.752
985.781
985.81
985.838
985.867
985.897
985.927
985.956
985.987
986.017
986.048
986.079
986.111
986.143
986.175
986.208
986.24
986.272
986.305
986.338
986.371
986.404
986.438
986.471
986.504
986.538
986.573
986.608
986.642
986.677
986.711
986.746
986.781
986.815
986.85
986.886
986.922
986.957
986.992
987.029
987.066
987.101
987.136
987.172
987.21
987.248
987.285
987.322
987.359
987.395
987.433
987.471
987.509
987.545
987.582
987.62
987.657
987.695
987.734
987.773
987.81
987.847
987.884
987.92
987.956
987.993
988.03
988.067
988.105
988.143
988.181
988.22
988.257
988.294
988.331
988.368
988.405
988.442
988.479
988.517
988.555
988.593
988.631
988.668
988.704
988.741
988.779
988.818
988.857
988.894
988.931
988.967
989.005
989.043
989.079
989.115
989.15
989.185
989.22
989.255
989.29
989.326
989.361
989.396
989.431
989.466
989.501
989.536
989.571
989.606
989.642
989.682
989.726
989.774
989.818
989.855
989.89
989.922
989.955
989.988
990.022
990.056
990.09
990.125
990.159
990.195
990.23
990.263
990.296
990.328
990.36
990.392
990.424
990.455
990.486
990.517
990.548
990.579
990.61
990.64
990.67
990.7
990.73
990.759
990.788
990.817
990.846
990.875
990.904
990.932
990.961
990.989
991.017
991.044
991.072
991.1
991.128
991.156
991.184
991.211
991.239
991.266
991.292
991.318
991.343
991.369
991.394
991.419
991.443
991.468
991.496
991.528
991.562
991.594
991.623
991.65
991.675
991.7
991.724
991.747
991.771
991.794
991.817
991.84
991.864
991.887
991.91
991.933
991.955
991.977
992
992.022
992.044
992.066
992.09
992.113
992.134
992.155
992.176
992.195
992.215
992.234
992.255
992.275
992.295
992.315
992.335
992.354
992.374
992.393
992.412
992.43
992.448
992.467
992.484
992.502
992.519
992.535
992.551
992.569
992.59
992.609
992.626
992.643
992.661
992.679
992.697
992.715
992.733
992.749
992.766
992.781
992.797
992.811
992.826
992.84
992.854
992.868
992.882
992.896
992.91
992.923
992.937
992.949
992.962
992.974
992.986
992.999
993.013
993.026
993.038
993.051
993.063
993.074
993.086
993.097
993.109
993.12
993.131
993.142
993.153
993.163
993.172
993.182
993.192
993.201
993.211
993.219
993.228
993.237
993.246
993.255
993.263
993.272
993.28
993.288
993.295
993.303
993.31
993.318
993.325
993.332
993.339
993.345
993.352
993.358
993.364
993.37
993.376
993.382
993.388
993.394
993.399
993.405
993.409
993.414
993.418
993.423
993.427
993.431
993.435
993.438
993.442
993.445
993.449
993.452
993.455
993.458
993.46
993.463
993.465
993.467
993.469
993.471
993.473
993.475
993.476
993.477
993.479
993.48
993.48
993.481
993.482
993.482
993.482
993.482
984.961
984.95
984.939
984.928
984.919
984.91
984.902
984.894
984.888
984.882
984.877
984.872
984.868
984.865
984.863
984.861
984.86
984.859
984.86
984.861
984.862
984.865
984.867
984.871
984.875
984.88
984.885
984.891
984.898
984.905
984.913
984.921
984.93
984.94
984.95
984.961
984.972
984.983
984.995
985.008
985.022
985.036
985.051
985.065
985.081
985.097
985.113
985.13
985.148
985.166
985.186
985.205
985.224
985.244
985.264
985.284
985.306
985.327
985.349
985.371
985.394
985.417
985.441
985.466
985.49
985.515
985.541
985.566
985.592
985.618
985.644
985.67
985.698
985.725
985.752
985.781
985.81
985.839
985.867
985.897
985.926
985.956
985.987
986.017
986.048
986.079
986.111
986.143
986.176
986.208
986.24
986.271
986.305
986.338
986.371
986.404
986.437
986.47
986.505
986.539
986.573
986.608
986.643
986.678
986.712
986.746
986.78
986.814
986.85
986.886
986.922
986.957
986.992
987.028
987.065
987.101
987.136
987.172
987.209
987.248
987.285
987.322
987.358
987.395
987.434
987.471
987.508
987.545
987.582
987.62
987.658
987.696
987.735
987.772
987.81
987.848
987.885
987.921
987.957
987.993
988.03
988.067
988.104
988.143
988.181
988.219
988.256
988.294
988.331
988.368
988.405
988.442
988.48
988.518
988.556
988.593
988.63
988.666
988.703
988.741
988.78
988.819
988.857
988.894
988.932
988.969
989.007
989.044
989.08
989.115
989.15
989.184
989.219
989.255
989.29
989.325
989.36
989.395
989.43
989.464
989.499
989.534
989.568
989.603
989.643
989.693
989.742
989.783
989.822
989.857
989.89
989.923
989.956
989.989
990.023
990.056
990.09
990.124
990.158
990.193
990.228
990.263
990.296
990.328
990.359
990.391
990.423
990.454
990.485
990.516
990.547
990.578
990.609
990.64
990.67
990.7
990.729
990.758
990.788
990.817
990.847
990.875
990.904
990.932
990.96
990.989
991.017
991.044
991.072
991.1
991.128
991.156
991.183
991.211
991.239
991.267
991.293
991.318
991.344
991.37
991.395
991.42
991.445
991.472
991.502
991.533
991.564
991.594
991.622
991.649
991.674
991.698
991.722
991.746
991.769
991.793
991.816
991.84
991.863
991.887
991.909
991.932
991.954
991.976
991.999
992.022
992.044
992.068
992.092
992.114
992.135
992.155
992.175
992.195
992.214
992.235
992.255
992.276
992.296
992.315
992.335
992.354
992.373
992.393
992.411
992.43
992.448
992.466
992.484
992.501
992.518
992.534
992.55
992.57
992.592
992.611
992.628
992.645
992.663
992.681
992.698
992.716
992.733
992.749
992.765
992.781
992.796
992.811
992.825
992.839
992.853
992.867
992.881
992.896
992.91
992.923
992.936
992.949
992.962
992.974
992.987
993
993.013
993.026
993.038
993.05
993.062
993.074
993.085
993.097
993.109
993.12
993.131
993.142
993.153
993.163
993.172
993.182
993.192
993.201
993.21
993.219
993.228
993.237
993.246
993.254
993.263
993.271
993.28
993.287
993.295
993.303
993.31
993.318
993.325
993.332
993.339
993.345
993.352
993.358
993.364
993.37
993.376
993.382
993.388
993.394
993.399
993.405
993.409
993.414
993.419
993.423
993.427
993.431
993.435
993.438
993.442
993.445
993.449
993.452
993.455
993.458
993.46
993.463
993.465
993.467
993.469
993.471
993.473
993.475
993.476
993.477
993.479
993.48
993.48
993.481
993.482
993.482
993.482
993.482
984.962
984.95
984.939
984.929
984.919
984.91
984.902
984.894
984.888
984.882
984.877
984.872
984.868
984.865
984.863
984.861
984.86
984.859
984.86
984.861
984.862
984.865
984.867
984.871
984.875
984.88
984.885
984.891
984.898
984.905
984.913
984.921
984.93
984.94
984.95
984.96
984.972
984.983
984.996
985.008
985.022
985.036
985.051
985.065
985.081
985.097
985.113
985.13
985.148
985.166
985.185
985.205
985.224
985.244
985.264
985.284
985.305
985.327
985.349
985.371
985.394
985.417
985.441
985.466
985.491
985.515
985.54
985.567
985.593
985.618
985.644
985.67
985.698
985.725
985.753
985.781
985.81
985.838
985.867
985.897
985.926
985.956
985.986
986.017
986.048
986.079
986.111
986.143
986.175
986.208
986.239
986.271
986.304
986.338
986.371
986.403
986.436
986.471
986.505
986.539
986.573
986.608
986.643
986.678
986.712
986.746
986.78
986.814
986.85
986.886
986.922
986.956
986.992
987.028
987.065
987.101
987.136
987.172
987.21
987.248
987.285
987.322
987.358
987.395
987.434
987.471
987.508
987.545
987.583
987.621
987.658
987.696
987.734
987.772
987.81
987.848
987.885
987.921
987.957
987.993
988.03
988.067
988.104
988.142
988.181
988.219
988.257
988.294
988.331
988.367
988.405
988.443
988.48
988.518
988.556
988.593
988.63
988.666
988.703
988.741
988.781
988.82
988.857
988.894
988.932
988.97
989.007
989.044
989.08
989.115
989.15
989.184
989.219
989.254
989.29
989.325
989.359
989.394
989.429
989.463
989.497
989.531
989.565
989.602
989.651
989.711
989.754
989.79
989.824
989.857
989.89
989.923
989.956
989.989
990.022
990.056
990.09
990.123
990.158
990.193
990.228
990.262
990.295
990.327
990.359
990.39
990.422
990.453
990.484
990.515
990.546
990.577
990.608
990.639
990.669
990.699
990.729
990.758
990.788
990.817
990.846
990.875
990.903
990.932
990.96
990.989
991.017
991.045
991.072
991.1
991.128
991.155
991.183
991.212
991.24
991.267
991.293
991.318
991.345
991.371
991.397
991.423
991.449
991.477
991.506
991.536
991.565
991.594
991.621
991.648
991.673
991.697
991.721
991.745
991.768
991.792
991.816
991.839
991.863
991.886
991.909
991.931
991.953
991.976
991.999
992.022
992.046
992.069
992.092
992.114
992.135
992.155
992.175
992.195
992.215
992.235
992.255
992.276
992.295
992.315
992.335
992.354
992.373
992.392
992.411
992.43
992.448
992.466
992.484
992.501
992.517
992.534
992.552
992.573
992.594
992.612
992.63
992.647
992.664
992.682
992.699
992.716
992.733
992.749
992.765
992.78
992.795
992.81
992.824
992.838
992.853
992.867
992.881
992.896
992.909
992.923
992.936
992.949
992.962
992.974
992.987
993
993.013
993.026
993.038
993.05
993.062
993.074
993.085
993.097
993.108
993.12
993.131
993.142
993.153
993.163
993.172
993.182
993.192
993.201
993.21
993.219
993.228
993.237
993.246
993.254
993.263
993.271
993.279
993.287
993.295
993.303
993.31
993.318
993.325
993.332
993.339
993.345
993.352
993.358
993.364
993.37
993.376
993.382
993.388
993.394
993.399
993.405
993.409
993.414
993.419
993.423
993.427
993.431
993.435
993.438
993.442
993.445
993.449
993.452
993.455
993.458
993.46
993.463
993.465
993.467
993.469
993.471
993.473
993.475
993.476
993.478
993.479
993.48
993.48
993.481
993.482
993.482
993.482
993.482
984.962
984.95
984.939
984.929
984.919
984.91
984.902
984.894
984.888
984.882
984.877
984.872
984.868
984.865
984.863
984.861
984.86
984.859
984.86
984.861
984.862
984.864
984.867
984.871
984.875
984.88
984.885
984.891
984.898
984.905
984.913
984.921
984.93
984.94
984.95
984.961
984.972
984.983
984.995
985.008
985.022
985.036
985.05
985.065
985.081
985.097
985.114
985.131
985.148
985.167
985.185
985.204
985.224
985.244
985.264
985.284
985.305
985.327
985.348
985.371
985.394
985.417
985.441
985.466
985.491
985.515
985.541
985.567
985.593
985.618
985.644
985.671
985.698
985.725
985.753
985.781
985.81
985.838
985.867
985.896
985.926
985.956
985.986
986.017
986.048
986.079
986.11
986.143
986.176
986.208
986.239
986.271
986.304
986.337
986.37
986.403
986.436
986.47
986.505
986.54
986.574
986.609
986.644
986.678
986.712
986.746
986.78
986.814
986.85
986.886
986.921
986.957
986.992
987.028
987.064
987.1
987.136
987.173
987.211
987.248
987.285
987.322
987.358
987.396
987.434
987.472
987.508
987.544
987.582
987.621
987.659
987.696
987.733
987.772
987.81
987.848
987.885
987.922
987.957
987.993
988.03
988.067
988.105
988.142
988.181
988.219
988.256
988.293
988.33
988.368
988.405
988.442
988.48
988.518
988.556
988.593
988.63
988.667
988.704
988.742
988.781
988.82
988.858
988.895
988.933
988.971
989.007
989.043
989.08
989.115
989.15
989.184
989.219
989.255
989.29
989.324
989.358
989.393
989.428
989.461
989.494
989.528
989.565
989.609
989.671
989.725
989.761
989.792
989.825
989.858
989.891
989.923
989.956
989.989
990.022
990.056
990.089
990.123
990.157
990.192
990.227
990.261
990.294
990.326
990.357
990.389
990.421
990.452
990.484
990.515
990.546
990.577
990.608
990.638
990.668
990.698
990.728
990.757
990.787
990.817
990.846
990.874
990.903
990.932
990.96
990.989
991.017
991.045
991.072
991.1
991.127
991.155
991.183
991.212
991.241
991.268
991.294
991.319
991.346
991.374
991.4
991.426
991.452
991.48
991.509
991.537
991.565
991.593
991.62
991.646
991.671
991.696
991.72
991.744
991.767
991.791
991.815
991.839
991.862
991.885
991.908
991.931
991.953
991.976
991.999
992.022
992.046
992.07
992.092
992.114
992.134
992.155
992.175
992.195
992.215
992.235
992.255
992.276
992.295
992.315
992.334
992.354
992.373
992.392
992.411
992.429
992.447
992.466
992.483
992.501
992.517
992.534
992.554
992.575
992.595
992.613
992.631
992.648
992.665
992.682
992.699
992.716
992.733
992.749
992.764
992.78
992.795
992.809
992.824
992.838
992.853
992.867
992.881
992.895
992.909
992.923
992.936
992.949
992.962
992.975
992.987
993
993.013
993.026
993.038
993.05
993.062
993.074
993.085
993.097
993.108
993.12
993.131
993.142
993.152
993.162
993.172
993.182
993.192
993.201
993.21
993.219
993.228
993.237
993.246
993.255
993.263
993.271
993.279
993.287
993.295
993.303
993.31
993.317
993.325
993.332
993.339
993.345
993.352
993.358
993.364
993.37
993.376
993.382
993.388
993.394
993.399
993.405
993.409
993.414
993.419
993.423
993.427
993.431
993.435
993.438
993.442
993.445
993.449
993.452
993.455
993.458
993.46
993.463
993.465
993.467
993.47
993.471
993.473
993.475
993.476
993.478
993.479
993.48
993.48
993.481
993.482
993.482
993.482
993.482
984.961
984.95
984.939
984.929
984.919
984.91
984.902
984.894
984.888
984.882
984.877
984.872
984.868
984.865
984.863
984.861
984.86
984.859
984.86
984.861
984.862
984.864
984.867
984.871
984.875
984.88
984.885
984.891
984.898
984.905
984.913
984.921
984.93
984.94
984.95
984.961
984.972
984.983
984.995
985.008
985.022
985.036
985.05
985.065
985.081
985.097
985.114
985.131
985.148
985.167
985.185
985.204
985.223
985.244
985.264
985.284
985.305
985.326
985.348
985.371
985.394
985.417
985.441
985.466
985.491
985.516
985.541
985.567
985.593
985.619
985.645
985.671
985.698
985.725
985.753
985.781
985.81
985.838
985.866
985.896
985.926
985.956
985.987
986.017
986.048
986.079
986.11
986.143
986.175
986.208
986.239
986.271
986.304
986.337
986.37
986.403
986.437
986.47
986.505
986.54
986.574
986.609
986.644
986.678
986.712
986.746
986.78
986.814
986.85
986.885
986.92
986.956
986.992
987.028
987.064
987.1
987.137
987.174
987.21
987.248
987.285
987.322
987.358
987.396
987.434
987.471
987.508
987.545
987.582
987.62
987.657
987.696
987.734
987.772
987.81
987.848
987.885
987.921
987.957
987.993
988.03
988.068
988.105
988.143
988.18
988.218
988.255
988.293
988.33
988.367
988.405
988.442
988.48
988.518
988.556
988.593
988.63
988.668
988.705
988.742
988.781
988.82
988.858
988.897
988.935
988.972
989.008
989.043
989.079
989.115
989.15
989.184
989.219
989.254
989.289
989.323
989.358
989.393
989.427
989.46
989.494
989.531
989.576
989.633
989.687
989.727
989.76
989.792
989.825
989.857
989.89
989.923
989.956
989.989
990.022
990.055
990.089
990.123
990.157
990.191
990.226
990.26
990.293
990.325
990.356
990.388
990.42
990.452
990.483
990.514
990.545
990.576
990.607
990.637
990.668
990.698
990.727
990.757
990.787
990.816
990.845
990.874
990.903
990.932
990.96
990.989
991.017
991.044
991.072
991.1
991.127
991.155
991.184
991.214
991.243
991.269
991.295
991.321
991.349
991.376
991.402
991.428
991.455
991.482
991.51
991.537
991.565
991.592
991.619
991.645
991.67
991.695
991.719
991.743
991.767
991.791
991.814
991.838
991.861
991.884
991.908
991.93
991.953
991.976
992
992.023
992.047
992.07
992.092
992.113
992.134
992.155
992.175
992.195
992.215
992.235
992.255
992.276
992.295
992.315
992.334
992.354
992.373
992.392
992.41
992.429
992.447
992.466
992.484
992.501
992.518
992.536
992.556
992.576
992.595
992.614
992.631
992.648
992.665
992.683
992.7
992.716
992.733
992.748
992.764
992.779
992.794
992.809
992.823
992.838
992.852
992.867
992.881
992.895
992.909
992.922
992.936
992.949
992.962
992.975
992.988
993
993.013
993.026
993.038
993.05
993.062
993.074
993.085
993.097
993.108
993.12
993.131
993.142
993.152
993.162
993.172
993.182
993.192
993.201
993.21
993.219
993.228
993.237
993.246
993.255
993.263
993.271
993.279
993.287
993.295
993.302
993.31
993.318
993.325
993.332
993.339
993.345
993.352
993.358
993.364
993.37
993.376
993.382
993.388
993.394
993.399
993.405
993.409
993.414
993.418
993.423
993.427
993.431
993.435
993.438
993.442
993.445
993.449
993.452
993.455
993.458
993.46
993.463
993.465
993.467
993.47
993.471
993.473
993.475
993.476
993.478
993.479
993.48
993.48
993.481
993.482
993.482
993.482
993.482
984.961
984.95
984.939
984.929
984.919
984.91
984.902
984.894
984.888
984.882
984.877
984.872
984.868
984.865
984.863
984.861
984.86
984.859
984.86
984.861
984.862
984.864
984.867
984.871
984.875
984.88
984.885
984.891
984.898
984.905
984.913
984.921
984.93
984.94
984.95
984.96
984.972
984.983
984.995
985.008
985.022
985.036
985.05
985.065
985.081
985.097
985.114
985.131
985.149
985.167
985.185
985.204
985.223
985.243
985.263
985.284
985.305
985.326
985.348
985.371
985.394
985.417
985.441
985.466
985.491
985.517
985.542
985.567
985.593
985.619
985.644
985.671
985.698
985.725
985.753
985.782
985.81
985.838
985.867
985.896
985.926
985.956
985.986
986.017
986.048
986.079
986.11
986.142
986.175
986.207
986.239
986.271
986.304
986.337
986.369
986.402
986.436
986.47
986.505
986.54
986.574
986.609
986.644
986.678
986.712
986.746
986.78
986.815
986.849
986.884
986.919
986.955
986.991
987.028
987.065
987.1
987.136
987.173
987.211
987.248
987.285
987.322
987.359
987.396
987.434
987.471