/*--------------------------------*- C++ -*----------------------------------*\
  =========                 |
  \\      /  F ield         | OpenFOAM: The Open Source CFD Toolbox
   \\    /   O peration     | Website:  https://openfoam.org
    \\  /    A nd           | Version:  7
     \\/     M anipulation  |
\*---------------------------------------------------------------------------*/
FoamFile
{
    version     2.0;
    format      ascii;
    class       volScalarField;
    location    "3500";
    object      rho2;
}
// * * * * * * * * * * * * * * * * * * * * * * * * * * * * * * * * * * * * * //

dimensions      [1 -3 0 0 0 0 0];

internalField   nonuniform List<scalar> 
160000
(
1.07519
1.07512
1.07505
1.07499
1.07494
1.07488
1.07483
1.07479
1.07475
1.07471
1.07468
1.07466
1.07463
1.07461
1.0746
1.07459
1.07458
1.07458
1.07458
1.07459
1.0746
1.07461
1.07463
1.07465
1.07467
1.0747
1.07473
1.07477
1.07481
1.07485
1.0749
1.07495
1.075
1.07506
1.07512
1.07518
1.07525
1.07532
1.0754
1.07547
1.07555
1.07564
1.07573
1.07582
1.07591
1.07601
1.07611
1.07621
1.07632
1.07642
1.07654
1.07665
1.07678
1.0769
1.07702
1.07715
1.07728
1.07741
1.07754
1.07767
1.07782
1.07797
1.07811
1.07826
1.0784
1.07856
1.07872
1.07888
1.07904
1.07919
1.07936
1.07953
1.0797
1.07987
1.08004
1.08022
1.0804
1.08057
1.08076
1.08094
1.08113
1.08133
1.08153
1.08172
1.08192
1.08212
1.08232
1.08252
1.08272
1.08293
1.08313
1.08334
1.08356
1.08379
1.084
1.08421
1.08443
1.08464
1.08487
1.08508
1.08531
1.08553
1.08575
1.08599
1.08621
1.08644
1.08668
1.08691
1.08715
1.08739
1.08764
1.08787
1.08811
1.08835
1.08859
1.08883
1.08907
1.08932
1.08957
1.08983
1.09009
1.09034
1.09059
1.09085
1.09111
1.09137
1.09164
1.0919
1.09215
1.09242
1.09268
1.09293
1.09319
1.09347
1.09375
1.09401
1.09427
1.09454
1.0948
1.09505
1.09531
1.09559
1.09586
1.09612
1.09641
1.09669
1.09697
1.09724
1.09751
1.09778
1.09805
1.09832
1.09859
1.09887
1.09914
1.09942
1.0997
1.09999
1.10027
1.10055
1.10084
1.10112
1.1014
1.10169
1.10197
1.10224
1.10253
1.10281
1.10308
1.10336
1.10364
1.10393
1.10421
1.10448
1.10477
1.10504
1.10531
1.10558
1.10587
1.10616
1.10643
1.10671
1.107
1.10727
1.10755
1.10784
1.10814
1.10844
1.10874
1.10906
1.10938
1.10969
1.10998
1.11027
1.11057
1.11083
1.11109
1.11137
1.11171
1.11206
1.11236
1.11264
1.1129
1.11315
1.11339
1.11365
1.11393
1.11422
1.1145
1.11475
1.11501
1.11527
1.11553
1.11578
1.11603
1.11629
1.11654
1.11678
1.11704
1.11731
1.11758
1.11783
1.11807
1.1183
1.11854
1.11878
1.11904
1.11928
1.11953
1.11978
1.12002
1.12026
1.12051
1.12075
1.121
1.12124
1.12148
1.12172
1.12195
1.12218
1.12242
1.12264
1.12286
1.12309
1.12331
1.12354
1.12378
1.12405
1.12434
1.12467
1.12499
1.12527
1.1255
1.12572
1.12593
1.12614
1.12634
1.12654
1.12673
1.12695
1.1272
1.12745
1.12766
1.12786
1.12805
1.12826
1.12847
1.12867
1.12887
1.12908
1.12931
1.12951
1.12972
1.12992
1.13012
1.1303
1.13048
1.13068
1.13088
1.13107
1.13126
1.13145
1.13164
1.13183
1.13203
1.13222
1.13241
1.13259
1.13276
1.13293
1.1331
1.13326
1.13343
1.13359
1.13376
1.13393
1.1341
1.13425
1.13441
1.13457
1.13474
1.13495
1.13519
1.1354
1.13559
1.13576
1.13592
1.13607
1.13621
1.13635
1.13649
1.13662
1.13675
1.13688
1.13702
1.13717
1.13732
1.13746
1.13758
1.1377
1.13782
1.13794
1.13806
1.13818
1.13832
1.13847
1.13861
1.13874
1.13886
1.13899
1.13911
1.13922
1.13933
1.13944
1.13955
1.13966
1.13976
1.13986
1.13996
1.14007
1.14017
1.14026
1.14035
1.14044
1.14053
1.14062
1.14071
1.1408
1.14089
1.14098
1.14107
1.14115
1.14122
1.1413
1.14137
1.14145
1.14152
1.14159
1.14166
1.14173
1.1418
1.14186
1.14192
1.14198
1.14204
1.1421
1.14216
1.14222
1.14227
1.14233
1.14237
1.14242
1.14246
1.14251
1.14255
1.14259
1.14263
1.14267
1.1427
1.14274
1.14277
1.1428
1.14283
1.14285
1.14288
1.1429
1.14293
1.14295
1.14296
1.14298
1.143
1.14301
1.14302
1.14303
1.14304
1.14305
1.14305
1.14306
1.14306
1.14306
1.07519
1.07512
1.07505
1.07499
1.07494
1.07488
1.07483
1.07479
1.07475
1.07471
1.07468
1.07466
1.07463
1.07461
1.0746
1.07459
1.07458
1.07458
1.07458
1.07459
1.0746
1.07461
1.07463
1.07465
1.07467
1.0747
1.07473
1.07477
1.07481
1.07485
1.0749
1.07495
1.075
1.07506
1.07512
1.07518
1.07525
1.07532
1.07539
1.07547
1.07555
1.07564
1.07573
1.07582
1.07591
1.07601
1.07611
1.07621
1.07631
1.07643
1.07654
1.07666
1.07678
1.0769
1.07702
1.07715
1.07728
1.07741
1.07754
1.07768
1.07782
1.07797
1.07811
1.07826
1.07841
1.07856
1.07872
1.07887
1.07904
1.0792
1.07936
1.07953
1.0797
1.07986
1.08004
1.08022
1.0804
1.08058
1.08076
1.08094
1.08114
1.08133
1.08152
1.08172
1.08191
1.08212
1.08232
1.08252
1.08272
1.08293
1.08314
1.08335
1.08356
1.08378
1.084
1.08421
1.08442
1.08464
1.08486
1.08508
1.08531
1.08553
1.08575
1.08598
1.08622
1.08645
1.08668
1.08691
1.08715
1.08739
1.08764
1.08787
1.08811
1.08835
1.08859
1.08883
1.08907
1.08932
1.08957
1.08983
1.09009
1.09034
1.0906
1.09085
1.09111
1.09137
1.09164
1.09189
1.09215
1.09242
1.09268
1.09293
1.09319
1.09347
1.09375
1.09401
1.09427
1.09454
1.09479
1.09505
1.09531
1.09559
1.09586
1.09613
1.09641
1.09669
1.09696
1.09724
1.09751
1.09777
1.09805
1.09832
1.09859
1.09887
1.09915
1.09943
1.09971
1.09999
1.10027
1.10055
1.10083
1.10112
1.10141
1.10169
1.10197
1.10224
1.10253
1.10281
1.10308
1.10337
1.10365
1.10393
1.1042
1.10448
1.10476
1.10503
1.10531
1.10559
1.10587
1.10615
1.10643
1.10671
1.10699
1.10726
1.10755
1.10784
1.10814
1.10844
1.10874
1.10907
1.10941
1.10972
1.11001
1.11029
1.11056
1.11082
1.11109
1.11142
1.11175
1.11206
1.11235
1.11262
1.11288
1.11314
1.11339
1.11366
1.11394
1.11422
1.11449
1.11475
1.11501
1.11527
1.11553
1.11578
1.11603
1.11629
1.11654
1.11679
1.11705
1.11732
1.11757
1.11782
1.11806
1.1183
1.11854
1.11879
1.11904
1.11929
1.11953
1.11978
1.12002
1.12026
1.12051
1.12076
1.12101
1.12124
1.12148
1.12172
1.12195
1.12218
1.12241
1.12264
1.12286
1.12309
1.12331
1.12353
1.12378
1.12407
1.1244
1.12472
1.125
1.12525
1.12548
1.12571
1.12592
1.12613
1.12633
1.12653
1.12674
1.12697
1.12722
1.12744
1.12765
1.12785
1.12805
1.12826
1.12847
1.12867
1.12887
1.12909
1.12931
1.12951
1.12972
1.12992
1.13011
1.13029
1.13048
1.13068
1.13088
1.13107
1.13126
1.13145
1.13164
1.13184
1.13204
1.13222
1.13241
1.13258
1.13275
1.13293
1.1331
1.13326
1.13342
1.13359
1.13376
1.13393
1.1341
1.13426
1.13441
1.13458
1.13479
1.13501
1.13521
1.1354
1.13558
1.13575
1.13591
1.13606
1.1362
1.13634
1.13648
1.13661
1.13675
1.13688
1.13702
1.13717
1.13732
1.13745
1.13758
1.1377
1.13782
1.13794
1.13806
1.13819
1.13834
1.13848
1.13861
1.13874
1.13886
1.13899
1.1391
1.13922
1.13933
1.13944
1.13955
1.13966
1.13976
1.13986
1.13996
1.14007
1.14016
1.14026
1.14035
1.14044
1.14053
1.14062
1.14071
1.1408
1.14089
1.14098
1.14107
1.14115
1.14122
1.1413
1.14138
1.14145
1.14152
1.14159
1.14166
1.14173
1.14179
1.14186
1.14192
1.14198
1.14204
1.1421
1.14216
1.14222
1.14228
1.14233
1.14237
1.14242
1.14247
1.14251
1.14255
1.14259
1.14263
1.14267
1.1427
1.14274
1.14277
1.1428
1.14283
1.14285
1.14288
1.1429
1.14293
1.14295
1.14296
1.14298
1.143
1.14301
1.14302
1.14303
1.14304
1.14305
1.14305
1.14306
1.14306
1.14306
1.07519
1.07512
1.07505
1.07499
1.07494
1.07488
1.07483
1.07479
1.07475
1.07471
1.07468
1.07465
1.07463
1.07461
1.0746
1.07459
1.07458
1.07458
1.07458
1.07459
1.0746
1.07461
1.07463
1.07465
1.07467
1.0747
1.07473
1.07477
1.07481
1.07485
1.0749
1.07495
1.075
1.07506
1.07512
1.07518
1.07525
1.07532
1.07539
1.07547
1.07555
1.07564
1.07573
1.07582
1.07591
1.07601
1.07611
1.07621
1.07631
1.07643
1.07654
1.07666
1.07678
1.0769
1.07702
1.07715
1.07728
1.07741
1.07754
1.07768
1.07782
1.07796
1.07811
1.07826
1.07841
1.07856
1.07872
1.07888
1.07904
1.0792
1.07936
1.07952
1.0797
1.07987
1.08004
1.08022
1.0804
1.08058
1.08076
1.08095
1.08114
1.08133
1.08152
1.08172
1.08191
1.08211
1.08231
1.08252
1.08273
1.08293
1.08314
1.08335
1.08356
1.08378
1.08399
1.08421
1.08442
1.08464
1.08486
1.08508
1.08531
1.08553
1.08576
1.08598
1.08622
1.08645
1.08668
1.08691
1.08715
1.08739
1.08763
1.08787
1.08811
1.08835
1.08859
1.08883
1.08907
1.08932
1.08958
1.08984
1.09009
1.09034
1.0906
1.09085
1.09111
1.09137
1.09163
1.09189
1.09215
1.09241
1.09267
1.09293
1.0932
1.09348
1.09374
1.09401
1.09427
1.09453
1.09479
1.09505
1.09531
1.09559
1.09586
1.09613
1.09641
1.09669
1.09696
1.09724
1.09751
1.09777
1.09805
1.09832
1.09859
1.09887
1.09915
1.09943
1.09971
1.09999
1.10027
1.10055
1.10083
1.10112
1.10141
1.10169
1.10197
1.10225
1.10253
1.10281
1.10309
1.10337
1.10365
1.10393
1.10421
1.10448
1.10475
1.10502
1.1053
1.10559
1.10586
1.10614
1.10642
1.1067
1.10697
1.10726
1.10754
1.10783
1.10813
1.10843
1.10876
1.10913
1.10946
1.10975
1.11002
1.11029
1.11056
1.11084
1.11113
1.11145
1.11175
1.11205
1.11233
1.11261
1.11287
1.11313
1.11339
1.11367
1.11394
1.11421
1.11448
1.11474
1.115
1.11526
1.11552
1.11577
1.11603
1.11628
1.11654
1.11679
1.11705
1.11731
1.11756
1.11781
1.11805
1.1183
1.11854
1.11879
1.11904
1.11929
1.11953
1.11978
1.12002
1.12026
1.12051
1.12076
1.12101
1.12125
1.12149
1.12172
1.12195
1.12218
1.12241
1.12264
1.12286
1.12308
1.1233
1.12353
1.12381
1.12414
1.12447
1.12475
1.125
1.12524
1.12547
1.12569
1.12591
1.12612
1.12633
1.12653
1.12675
1.12698
1.12721
1.12743
1.12763
1.12784
1.12805
1.12826
1.12846
1.12867
1.12888
1.1291
1.12931
1.12951
1.12972
1.12992
1.13011
1.13029
1.13048
1.13068
1.13088
1.13107
1.13126
1.13146
1.13165
1.13185
1.13204
1.13222
1.1324
1.13257
1.13275
1.13292
1.13309
1.13326
1.13342
1.13359
1.13376
1.13394
1.13411
1.13427
1.13443
1.13463
1.13484
1.13503
1.13522
1.1354
1.13558
1.13574
1.13589
1.13604
1.13619
1.13633
1.13647
1.13661
1.13675
1.13688
1.13703
1.13717
1.13731
1.13744
1.13757
1.1377
1.13782
1.13794
1.13807
1.13821
1.13835
1.13848
1.13861
1.13874
1.13886
1.13898
1.1391
1.13921
1.13933
1.13944
1.13955
1.13966
1.13976
1.13986
1.13996
1.14006
1.14016
1.14026
1.14035
1.14044
1.14053
1.14062
1.14071
1.1408
1.14089
1.14098
1.14106
1.14114
1.14122
1.1413
1.14138
1.14145
1.14152
1.14159
1.14166
1.14173
1.14179
1.14186
1.14192
1.14198
1.14204
1.14211
1.14216
1.14222
1.14228
1.14233
1.14237
1.14242
1.14247
1.14251
1.14255
1.14259
1.14263
1.14267
1.1427
1.14274
1.14277
1.1428
1.14283
1.14285
1.14288
1.1429
1.14292
1.14295
1.14296
1.14298
1.143
1.14301
1.14302
1.14303
1.14304
1.14305
1.14306
1.14306
1.14306
1.14306
1.07519
1.07512
1.07505
1.07499
1.07493
1.07488
1.07483
1.07479
1.07475
1.07471
1.07468
1.07466
1.07463
1.07461
1.0746
1.07459
1.07458
1.07458
1.07458
1.07459
1.0746
1.07461
1.07463
1.07465
1.07467
1.0747
1.07473
1.07477
1.07481
1.07485
1.0749
1.07495
1.075
1.07506
1.07512
1.07519
1.07525
1.07532
1.07539
1.07547
1.07555
1.07564
1.07573
1.07582
1.07591
1.07601
1.07611
1.07621
1.07632
1.07643
1.07654
1.07666
1.07678
1.0769
1.07702
1.07715
1.07727
1.07741
1.07754
1.07768
1.07782
1.07796
1.07811
1.07826
1.07841
1.07856
1.07872
1.07888
1.07904
1.0792
1.07936
1.07952
1.07969
1.07986
1.08004
1.08022
1.0804
1.08058
1.08077
1.08095
1.08113
1.08133
1.08152
1.08171
1.08191
1.08211
1.08231
1.08252
1.08273
1.08293
1.08314
1.08335
1.08356
1.08378
1.08399
1.0842
1.08442
1.08464
1.08486
1.08508
1.08531
1.08554
1.08576
1.08599
1.08622
1.08645
1.08668
1.08691
1.08715
1.08739
1.08763
1.08787
1.08811
1.08835
1.08859
1.08883
1.08907
1.08932
1.08958
1.08984
1.09009
1.09034
1.0906
1.09085
1.09111
1.09137
1.09163
1.09189
1.09215
1.09241
1.09267
1.09294
1.09321
1.09348
1.09375
1.09401
1.09427
1.09453
1.09479
1.09505
1.09532
1.09559
1.09586
1.09613
1.09641
1.09669
1.09697
1.09724
1.0975
1.09777
1.09805
1.09832
1.09859
1.09887
1.09915
1.09943
1.09971
1.09999
1.10027
1.10055
1.10083
1.10112
1.10141
1.1017
1.10197
1.10225
1.10253
1.10282
1.1031
1.10338
1.10366
1.10393
1.1042
1.10448
1.10475
1.10502
1.1053
1.10558
1.10585
1.10613
1.10641
1.10669
1.10696
1.10724
1.10753
1.10782
1.10813
1.10846
1.10885
1.1092
1.1095
1.10977
1.11003
1.1103
1.11058
1.11086
1.11115
1.11144
1.11174
1.11203
1.11232
1.1126
1.11286
1.11313
1.11339
1.11366
1.11394
1.1142
1.11447
1.11473
1.11499
1.11525
1.11551
1.11577
1.11603
1.11629
1.11654
1.11679
1.11705
1.1173
1.11755
1.1178
1.11805
1.1183
1.11855
1.11879
1.11904
1.11929
1.11953
1.11978
1.12002
1.12027
1.12052
1.12076
1.12101
1.12125
1.12149
1.12172
1.12195
1.12218
1.12241
1.12264
1.12286
1.12308
1.1233
1.12356
1.12387
1.12421
1.12451
1.12476
1.125
1.12523
1.12546
1.12568
1.12589
1.12611
1.12632
1.12653
1.12675
1.12698
1.1272
1.12741
1.12762
1.12783
1.12804
1.12826
1.12846
1.12867
1.12888
1.1291
1.12931
1.12952
1.12973
1.12992
1.13011
1.13029
1.13048
1.13068
1.13088
1.13107
1.13127
1.13146
1.13165
1.13184
1.13203
1.13221
1.13239
1.13257
1.13274
1.13292
1.13309
1.13325
1.13341
1.13358
1.13377
1.13396
1.13413
1.1343
1.13447
1.13466
1.13486
1.13504
1.13522
1.1354
1.13557
1.13573
1.13588
1.13603
1.13618
1.13632
1.13646
1.1366
1.13674
1.13689
1.13703
1.13717
1.13731
1.13744
1.13757
1.13769
1.13782
1.13794
1.13808
1.13822
1.13836
1.13849
1.13861
1.13873
1.13886
1.13898
1.13909
1.13921
1.13933
1.13944
1.13955
1.13965
1.13976
1.13986
1.13996
1.14007
1.14016
1.14026
1.14035
1.14044
1.14053
1.14062
1.14072
1.14081
1.14089
1.14098
1.14106
1.14114
1.14122
1.1413
1.14137
1.14145
1.14152
1.14159
1.14166
1.14173
1.14179
1.14186
1.14192
1.14198
1.14205
1.14211
1.14217
1.14222
1.14228
1.14233
1.14237
1.14242
1.14247
1.14251
1.14255
1.14259
1.14263
1.14267
1.1427
1.14273
1.14277
1.1428
1.14283
1.14285
1.14288
1.1429
1.14292
1.14295
1.14296
1.14298
1.143
1.14301
1.14302
1.14303
1.14304
1.14305
1.14306
1.14306
1.14306
1.14306
1.07519
1.07512
1.07505
1.07499
1.07493
1.07488
1.07483
1.07479
1.07475
1.07471
1.07468
1.07466
1.07463
1.07461
1.0746
1.07459
1.07458
1.07458
1.07458
1.07459
1.0746
1.07461
1.07463
1.07465
1.07467
1.0747
1.07473
1.07477
1.07481
1.07485
1.0749
1.07495
1.075
1.07506
1.07512
1.07519
1.07525
1.07532
1.07539
1.07547
1.07555
1.07564
1.07573
1.07582
1.07591
1.07601
1.07611
1.07621
1.07632
1.07643
1.07654
1.07666
1.07678
1.0769
1.07702
1.07715
1.07727
1.07741
1.07754
1.07768
1.07782
1.07796
1.07811
1.07826
1.07841
1.07856
1.07872
1.07888
1.07904
1.0792
1.07937
1.07953
1.07969
1.07986
1.08004
1.08022
1.0804
1.08058
1.08076
1.08095
1.08114
1.08133
1.08152
1.08171
1.08191
1.08211
1.08231
1.08252
1.08273
1.08293
1.08314
1.08335
1.08356
1.08377
1.08399
1.0842
1.08442
1.08464
1.08486
1.08508
1.08531
1.08554
1.08577
1.08599
1.08622
1.08645
1.08668
1.08691
1.08715
1.08739
1.08763
1.08786
1.0881
1.08835
1.08859
1.08883
1.08907
1.08932
1.08958
1.08983
1.09009
1.09034
1.09059
1.09085
1.09111
1.09138
1.09163
1.09189
1.09215
1.09241
1.09267
1.09294
1.09321
1.09348
1.09375
1.09401
1.09427
1.09453
1.09479
1.09505
1.09532
1.09559
1.09586
1.09613
1.09641
1.09669
1.09696
1.09723
1.0975
1.09777
1.09804
1.09832
1.09859
1.09887
1.09915
1.09943
1.09971
1.09999
1.10026
1.10054
1.10083
1.10112
1.10141
1.1017
1.10198
1.10225
1.10254
1.10283
1.10311
1.10339
1.10366
1.10393
1.1042
1.10447
1.10474
1.10502
1.1053
1.10557
1.10584
1.10612
1.1064
1.10667
1.10695
1.10723
1.10752
1.10784
1.10819
1.10858
1.10893
1.10923
1.10951
1.10978
1.11004
1.11031
1.11059
1.11087
1.11115
1.11143
1.11172
1.11201
1.1123
1.11259
1.11286
1.11313
1.11339
1.11366
1.11393
1.11419
1.11446
1.11472
1.11498
1.11524
1.11551
1.11577
1.11603
1.11628
1.11654
1.11679
1.11704
1.1173
1.11755
1.1178
1.11805
1.1183
1.11855
1.1188
1.11904
1.11929
1.11953
1.11978
1.12002
1.12027
1.12052
1.12077
1.12101
1.12126
1.12149
1.12173
1.12195
1.12218
1.12241
1.12264
1.12286
1.12309
1.12334
1.12364
1.12394
1.12424
1.12451
1.12475
1.12499
1.12522
1.12544
1.12566
1.12588
1.12609
1.12631
1.12653
1.12675
1.12697
1.12719
1.1274
1.12761
1.12782
1.12804
1.12825
1.12846
1.12867
1.1289
1.12912
1.12933
1.12953
1.12972
1.12991
1.1301
1.13029
1.13049
1.13069
1.13088
1.13108
1.13127
1.13146
1.13165
1.13184
1.13202
1.13221
1.13239
1.13256
1.13274
1.13291
1.13308
1.13324
1.1334
1.13358
1.13379
1.13399
1.13415
1.13432
1.1345
1.13468
1.13487
1.13505
1.13522
1.13539
1.13556
1.13572
1.13587
1.13602
1.13617
1.13631
1.13645
1.1366
1.13674
1.13689
1.13703
1.13717
1.13731
1.13744
1.13756
1.13769
1.13782
1.13795
1.13809
1.13823
1.13836
1.13849
1.13861
1.13873
1.13885
1.13897
1.13909
1.13921
1.13932
1.13944
1.13955
1.13966
1.13976
1.13986
1.13996
1.14006
1.14016
1.14025
1.14035
1.14044
1.14053
1.14063
1.14072
1.14081
1.14089
1.14098
1.14106
1.14114
1.14122
1.1413
1.14137
1.14145
1.14152
1.14159
1.14166
1.14173
1.14179
1.14186
1.14192
1.14198
1.14204
1.14211
1.14217
1.14223
1.14228
1.14233
1.14238
1.14242
1.14247
1.14251
1.14255
1.14259
1.14263
1.14267
1.1427
1.14273
1.14277
1.1428
1.14283
1.14285
1.14288
1.1429
1.14292
1.14295
1.14296
1.14298
1.143
1.14301
1.14302
1.14303
1.14304
1.14305
1.14306
1.14306
1.14306
1.14306
1.07519
1.07512
1.07506
1.07499
1.07493
1.07488
1.07483
1.07479
1.07475
1.07471
1.07468
1.07466
1.07463
1.07461
1.0746
1.07459
1.07458
1.07458
1.07458
1.07459
1.0746
1.07461
1.07463
1.07465
1.07467
1.0747
1.07473
1.07477
1.07481
1.07485
1.0749
1.07495
1.075
1.07506
1.07512
1.07519
1.07525
1.07532
1.07539
1.07547
1.07555
1.07564
1.07573
1.07581
1.07591
1.07601
1.07611
1.07621
1.07631
1.07643
1.07654
1.07666
1.07678
1.0769
1.07702
1.07715
1.07727
1.07741
1.07754
1.07768
1.07782
1.07796
1.07811
1.07826
1.07841
1.07856
1.07872
1.07888
1.07904
1.0792
1.07937
1.07953
1.0797
1.07987
1.08004
1.08022
1.0804
1.08058
1.08076
1.08095
1.08114
1.08133
1.08152
1.08171
1.08191
1.08211
1.08231
1.08252
1.08273
1.08293
1.08314
1.08334
1.08356
1.08378
1.08399
1.0842
1.08442
1.08464
1.08486
1.08509
1.08531
1.08554
1.08577
1.086
1.08623
1.08645
1.08668
1.08691
1.08714
1.08739
1.08763
1.08786
1.0881
1.08834
1.08859
1.08883
1.08907
1.08932
1.08957
1.08983
1.09009
1.09034
1.09059
1.09085
1.09111
1.09137
1.09163
1.09189
1.09215
1.09241
1.09267
1.09295
1.09322
1.09348
1.09375
1.09401
1.09428
1.09453
1.09479
1.09505
1.09532
1.09558
1.09585
1.09613
1.09641
1.09668
1.09696
1.09723
1.0975
1.09777
1.09804
1.09832
1.09859
1.09887
1.09916
1.09943
1.09971
1.09998
1.10026
1.10054
1.10083
1.10113
1.10141
1.1017
1.10198
1.10227
1.10255
1.10284
1.10312
1.10339
1.10366
1.10392
1.10419
1.10447
1.10474
1.10502
1.10529
1.10556
1.10583
1.10611
1.10638
1.10666
1.10692
1.10721
1.10753
1.10793
1.10832
1.10865
1.10896
1.10925
1.10951
1.10978
1.11005
1.11032
1.1106
1.11087
1.11115
1.11143
1.11171
1.112
1.11229
1.11258
1.11286
1.11312
1.11339
1.11366
1.11392
1.11419
1.11445
1.11471
1.11497
1.11524
1.1155
1.11576
1.11602
1.11628
1.11653
1.11679
1.11704
1.1173
1.11755
1.1178
1.11805
1.1183
1.11855
1.11879
1.11904
1.11928
1.11953
1.11978
1.12003
1.12027
1.12052
1.12077
1.12102
1.12126
1.1215
1.12173
1.12196
1.12219
1.12243
1.12265
1.12288
1.12312
1.1234
1.12368
1.12397
1.12424
1.1245
1.12475
1.12498
1.12521
1.12543
1.12565
1.12587
1.12609
1.12631
1.12653
1.12675
1.12697
1.12718
1.12739
1.1276
1.12782
1.12803
1.12824
1.12846
1.12869
1.12891
1.12913
1.12933
1.12953
1.12972
1.12991
1.1301
1.13029
1.13049
1.13069
1.13089
1.13108
1.13127
1.13146
1.13165
1.13183
1.13202
1.1322
1.13238
1.13256
1.13274
1.13291
1.13307
1.13323
1.1334
1.1336
1.13381
1.134
1.13417
1.13435
1.13452
1.1347
1.13488
1.13506
1.13522
1.13539
1.13555
1.13571
1.13587
1.13602
1.13616
1.1363
1.13645
1.13659
1.13674
1.13689
1.13703
1.13717
1.1373
1.13743
1.13756
1.13769
1.13782
1.13796
1.13809
1.13823
1.13836
1.13848
1.13861
1.13873
1.13885
1.13897
1.13909
1.13921
1.13932
1.13944
1.13955
1.13966
1.13976
1.13986
1.13997
1.14006
1.14016
1.14026
1.14035
1.14044
1.14053
1.14063
1.14072
1.14081
1.14089
1.14097
1.14106
1.14114
1.14122
1.1413
1.14137
1.14145
1.14152
1.14159
1.14166
1.14173
1.14179
1.14186
1.14192
1.14198
1.14205
1.14211
1.14217
1.14223
1.14228
1.14233
1.14238
1.14242
1.14247
1.14251
1.14255
1.14259
1.14263
1.14266
1.1427
1.14273
1.14277
1.1428
1.14283
1.14285
1.14288
1.1429
1.14292
1.14295
1.14296
1.14298
1.143
1.14301
1.14302
1.14303
1.14304
1.14305
1.14306
1.14306
1.14306
1.14306
1.07519
1.07512
1.07506
1.07499
1.07494
1.07488
1.07483
1.07479
1.07475
1.07471
1.07468
1.07466
1.07463
1.07461
1.0746
1.07459
1.07458
1.07458
1.07458
1.07459
1.0746
1.07461
1.07463
1.07465
1.07467
1.0747
1.07473
1.07477
1.07481
1.07485
1.0749
1.07495
1.075
1.07506
1.07512
1.07518
1.07525
1.07532
1.07539
1.07547
1.07555
1.07564
1.07573
1.07581
1.07591
1.07601
1.07611
1.07621
1.07631
1.07643
1.07654
1.07666
1.07677
1.0769
1.07702
1.07714
1.07727
1.07741
1.07754
1.07768
1.07782
1.07796
1.07811
1.07826
1.07841
1.07856
1.07872
1.07888
1.07904
1.0792
1.07936
1.07953
1.0797
1.07987
1.08004
1.08022
1.0804
1.08058
1.08076
1.08095
1.08114
1.08133
1.08152
1.08171
1.08191
1.08211
1.08231
1.08252
1.08272
1.08293
1.08314
1.08334
1.08356
1.08377
1.08399
1.0842
1.08441
1.08464
1.08487
1.08509
1.08531
1.08554
1.08577
1.086
1.08623
1.08645
1.08668
1.08691
1.08714
1.08739
1.08763
1.08786
1.0881
1.08834
1.08859
1.08883
1.08907
1.08932
1.08958
1.08983
1.09009
1.09034
1.09059
1.09085
1.09111
1.09137
1.09163
1.09189
1.09215
1.09241
1.09268
1.09294
1.09321
1.09348
1.09375
1.09402
1.09428
1.09454
1.0948
1.09505
1.09532
1.09558
1.09585
1.09613
1.09641
1.09668
1.09696
1.09723
1.0975
1.09777
1.09804
1.09832
1.0986
1.09888
1.09916
1.09944
1.09971
1.09998
1.10026
1.10054
1.10084
1.10113
1.10142
1.1017
1.10199
1.10227
1.10256
1.10284
1.10312
1.10339
1.10365
1.10392
1.10419
1.10446
1.10474
1.10501
1.10528
1.10555
1.10583
1.1061
1.10637
1.10663
1.1069
1.1072
1.10759
1.10807
1.10841
1.1087
1.10898
1.10925
1.10952
1.10978
1.11005
1.11032
1.11059
1.11087
1.11115
1.11142
1.11171
1.112
1.11229
1.11257
1.11285
1.11312
1.11338
1.11365
1.11391
1.11418
1.11444
1.1147
1.11497
1.11523
1.1155
1.11576
1.11602
1.11627
1.11653
1.11678
1.11704
1.11729
1.11755
1.1178
1.11805
1.1183
1.11854
1.11879
1.11904
1.11929
1.11953
1.11978
1.12002
1.12027
1.12052
1.12077
1.12103
1.12127
1.1215
1.12173
1.12197
1.12221
1.12244
1.12267
1.12291
1.12317
1.12343
1.12371
1.12397
1.12424
1.12449
1.12473
1.12497
1.12519
1.12541
1.12564
1.12586
1.12608
1.1263
1.12652
1.12674
1.12696
1.12717
1.12739
1.1276
1.12781
1.12803
1.12825
1.12847
1.1287
1.12892
1.12913
1.12933
1.12952
1.12972
1.12991
1.1301
1.13029
1.13049
1.13069
1.13088
1.13107
1.13127
1.13146
1.13165
1.13183
1.13202
1.1322
1.13238
1.13256
1.13273
1.1329
1.13307
1.13323
1.13341
1.13362
1.13383
1.13401
1.13419
1.13436
1.13453
1.13471
1.13488
1.13506
1.13523
1.13539
1.13555
1.13571
1.13586
1.13601
1.13616
1.1363
1.13645
1.13659
1.13674
1.13688
1.13703
1.13717
1.1373
1.13743
1.13756
1.1377
1.13783
1.13796
1.13809
1.13823
1.13836
1.13848
1.13861
1.13873
1.13885
1.13897
1.13909
1.13921
1.13932
1.13944
1.13955
1.13966
1.13976
1.13986
1.13996
1.14006
1.14016
1.14026
1.14035
1.14044
1.14053
1.14063
1.14072
1.1408
1.14089
1.14097
1.14106
1.14114
1.14122
1.1413
1.14137
1.14145
1.14152
1.14159
1.14166
1.14173
1.14179
1.14186
1.14192
1.14198
1.14205
1.14211
1.14217
1.14223
1.14228
1.14233
1.14238
1.14242
1.14247
1.14251
1.14255
1.14259
1.14263
1.14266
1.1427
1.14273
1.14277
1.1428
1.14283
1.14285
1.14288
1.1429
1.14293
1.14295
1.14297
1.14298
1.143
1.14301
1.14302
1.14303
1.14304
1.14305
1.14306
1.14306
1.14306
1.14306
1.07519
1.07512
1.07506
1.07499
1.07493
1.07488
1.07483
1.07479
1.07475
1.07471
1.07468
1.07466
1.07463
1.07461
1.0746
1.07459
1.07458
1.07458
1.07458
1.07459
1.0746
1.07461
1.07463
1.07465
1.07467
1.0747
1.07473
1.07477
1.07481
1.07485
1.0749
1.07495
1.075
1.07506
1.07512
1.07518
1.07525
1.07532
1.07539
1.07547
1.07555
1.07564
1.07572
1.07581
1.07591
1.07601
1.07611
1.07621
1.07632
1.07643
1.07654
1.07666
1.07678
1.0769
1.07702
1.07714
1.07727
1.0774
1.07754
1.07767
1.07782
1.07796
1.07811
1.07826
1.07841
1.07856
1.07872
1.07888
1.07905
1.0792
1.07936
1.07953
1.0797
1.07987
1.08004
1.08022
1.0804
1.08058
1.08076
1.08095
1.08113
1.08133
1.08152
1.08171
1.08191
1.08211
1.08231
1.08252
1.08273
1.08293
1.08314
1.08334
1.08355
1.08377
1.08398
1.0842
1.08442
1.08464
1.08486
1.08509
1.08532
1.08554
1.08578
1.086
1.08622
1.08645
1.08668
1.08691
1.08714
1.08738
1.08762
1.08786
1.0881
1.08834
1.08858
1.08883
1.08907
1.08933
1.08958
1.08983
1.09009
1.09034
1.09059
1.09085
1.09112
1.09138
1.09163
1.09188
1.09215
1.09242
1.09268
1.09294
1.09321
1.09348
1.09375
1.09402
1.09428
1.09454
1.09479
1.09505
1.09531
1.09559
1.09586
1.09613
1.09641
1.09668
1.09695
1.09722
1.09749
1.09777
1.09804
1.09832
1.09859
1.09888
1.09916
1.09944
1.09971
1.09998
1.10026
1.10055
1.10084
1.10114
1.10142
1.1017
1.10199
1.10228
1.10256
1.10283
1.10311
1.10339
1.10365
1.10392
1.10419
1.10447
1.10474
1.10501
1.10528
1.10555
1.10582
1.10608
1.10634
1.10661
1.1069
1.10726
1.10775
1.10818
1.10847
1.10872
1.10898
1.10925
1.10952
1.10978
1.11005
1.11032
1.11059
1.11087
1.11114
1.11142
1.11171
1.11199
1.11228
1.11256
1.11284
1.11311
1.11337
1.11364
1.1139
1.11417
1.11444
1.1147
1.11497
1.11523
1.11549
1.11575
1.11601
1.11627
1.11652
1.11678
1.11704
1.11729
1.11754
1.11779
1.11804
1.11829
1.11854
1.1188
1.11904
1.11929
1.11953
1.11977
1.12002
1.12027
1.12052
1.12078
1.12104
1.12128
1.12151
1.12174
1.12198
1.12223
1.12247
1.1227
1.12294
1.1232
1.12346
1.12372
1.12398
1.12423
1.12448
1.12472
1.12495
1.12518
1.1254
1.12563
1.12585
1.12607
1.12629
1.12651
1.12673
1.12695
1.12717
1.12738
1.1276
1.12781
1.12803
1.12825
1.12848
1.12871
1.12892
1.12913
1.12932
1.12952
1.12972
1.12991
1.1301
1.1303
1.13049
1.13069
1.13088
1.13107
1.13126
1.13145
1.13164
1.13183
1.13201
1.13219
1.13237
1.13255
1.13273
1.1329
1.13307
1.13324
1.13343
1.13364
1.13384
1.13402
1.1342
1.13437
1.13454
1.13471
1.13489
1.13506
1.13523
1.13539
1.13555
1.1357
1.13585
1.136
1.13615
1.1363
1.13644
1.13659
1.13674
1.13688
1.13702
1.13716
1.1373
1.13743
1.13757
1.1377
1.13783
1.13796
1.1381
1.13823
1.13836
1.13848
1.1386
1.13873
1.13885
1.13897
1.13909
1.13921
1.13932
1.13944
1.13955
1.13965
1.13976
1.13986
1.13996
1.14006
1.14016
1.14025
1.14035
1.14044
1.14053
1.14063
1.14072
1.1408
1.14089
1.14097
1.14105
1.14114
1.14122
1.14129
1.14137
1.14145
1.14152
1.14159
1.14166
1.14173
1.14179
1.14186
1.14192
1.14198
1.14205
1.14211
1.14217
1.14223
1.14228
1.14233
1.14238
1.14242
1.14247
1.14251
1.14255
1.14259
1.14263
1.14266
1.1427
1.14273
1.14277
1.1428
1.14283
1.14285
1.14288
1.1429
1.14293
1.14295
1.14297
1.14298
1.143
1.14301
1.14302
1.14303
1.14304
1.14305
1.14306
1.14306
1.14306
1.14307
1.07519
1.07512
1.07505
1.07499
1.07494
1.07488
1.07483
1.07479
1.07475
1.07471
1.07468
1.07465
1.07463
1.07461
1.0746
1.07459
1.07458
1.07458
1.07458
1.07459
1.0746
1.07461
1.07463
1.07465
1.07467
1.0747
1.07473
1.07477
1.07481
1.07485
1.0749
1.07495
1.075
1.07506
1.07512
1.07518
1.07525
1.07532
1.07539
1.07547
1.07555
1.07564
1.07572
1.07581
1.07591
1.07601
1.07611
1.07621
1.07632
1.07643
1.07654
1.07665
1.07677
1.0769
1.07702
1.07714
1.07727
1.0774
1.07753
1.07767
1.07782
1.07796
1.07811
1.07826
1.07841
1.07857
1.07872
1.07888
1.07905
1.07921
1.07937
1.07953
1.0797
1.07987
1.08004
1.08022
1.0804
1.08058
1.08076
1.08094
1.08114
1.08133
1.08152
1.08171
1.08191
1.08211
1.08231
1.08252
1.08273
1.08293
1.08314
1.08334
1.08355
1.08377
1.08398
1.0842
1.08442
1.08464
1.08486
1.08509
1.08532
1.08554
1.08578
1.086
1.08623
1.08645
1.08668
1.08691
1.08714
1.08738
1.08761
1.08785
1.0881
1.08834
1.08858
1.08883
1.08908
1.08933
1.08958
1.08983
1.09009
1.09034
1.09059
1.09085
1.09111
1.09137
1.09163
1.09189
1.09215
1.09241
1.09267
1.09294
1.09321
1.09348
1.09375
1.09402
1.09428
1.09454
1.09479
1.09505
1.09532
1.09559
1.09586
1.09613
1.0964
1.09667
1.09695
1.09722
1.09749
1.09777
1.09804
1.09832
1.09859
1.09887
1.09916
1.09943
1.09971
1.09999
1.10027
1.10055
1.10084
1.10113
1.10143
1.10172
1.10201
1.10229
1.10256
1.10283
1.10311
1.10338
1.10365
1.10392
1.10419
1.10446
1.10473
1.105
1.10528
1.10555
1.10581
1.10607
1.10634
1.10664
1.10699
1.10744
1.10788
1.1082
1.10846
1.10872
1.10898
1.10925
1.10952
1.10978
1.11005
1.11032
1.11059
1.11086
1.11114
1.11142
1.1117
1.11199
1.11227
1.11256
1.11283
1.1131
1.11336
1.11363
1.1139
1.11417
1.11443
1.1147
1.11496
1.11522
1.11548
1.11575
1.11601
1.11626
1.11652
1.11677
1.11703
1.11729
1.11754
1.11779
1.11804
1.11829
1.11855
1.11879
1.11904
1.11928
1.11953
1.11977
1.12002
1.12027
1.12052
1.12079
1.12105
1.12129
1.12152
1.12175
1.122
1.12225
1.12249
1.12272
1.12297
1.12321
1.12347
1.12372
1.12397
1.12422
1.12447
1.12471
1.12494
1.12517
1.1254
1.12562
1.12584
1.12606
1.12629
1.12651
1.12673
1.12695
1.12716
1.12738
1.1276
1.12782
1.12804
1.12826
1.12849
1.1287
1.12891
1.12912
1.12932
1.12952
1.12971
1.12991
1.1301
1.1303
1.1305
1.13069
1.13088
1.13107
1.13126
1.13145
1.13164
1.13183
1.13201
1.13219
1.13237
1.13255
1.13273
1.1329
1.13307
1.13325
1.13345
1.13365
1.13384
1.13403
1.1342
1.13438
1.13455
1.13472
1.13489
1.13506
1.13522
1.13538
1.13554
1.1357
1.13585
1.136
1.13615
1.13629
1.13644
1.13659
1.13673
1.13688
1.13702
1.13716
1.1373
1.13743
1.13757
1.1377
1.13783
1.13797
1.1381
1.13823
1.13836
1.13848
1.1386
1.13873
1.13885
1.13896
1.13909
1.1392
1.13932
1.13944
1.13955
1.13965
1.13976
1.13986
1.13996
1.14006
1.14016
1.14025
1.14035
1.14044
1.14053
1.14063
1.14072
1.1408
1.14089
1.14097
1.14105
1.14113
1.14122
1.1413
1.14137
1.14145
1.14152
1.14159
1.14166
1.14173
1.1418
1.14186
1.14192
1.14199
1.14205
1.14211
1.14217
1.14223
1.14228
1.14233
1.14238
1.14242
1.14247
1.14251
1.14255
1.14259
1.14263
1.14266
1.1427
1.14273
1.14277
1.1428
1.14283
1.14285
1.14288
1.1429
1.14293
1.14295
1.14297
1.14298
1.143
1.14301
1.14302
1.14304
1.14304
1.14305
1.14306
1.14306
1.14306
1.14307
1.07519
1.07512
1.07505
1.07499
1.07493
1.07488
1.07483
1.07479
1.07475
1.07471
1.07468
1.07465
1.07463
1.07461
1.0746
1.07459
1.07458
1.07458
1.07458
1.07459
1.0746
1.07461
1.07463
1.07465
1.07467
1.0747
1.07473
1.07477
1.07481
1.07485
1.0749
1.07495
1.075
1.07506
1.07512
1.07518
1.07525
1.07532
1.07539
1.07547
1.07555
1.07564
1.07572
1.07581
1.07591
1.07601
1.07611
1.07621
1.07632
1.07643
1.07654
1.07665
1.07677
1.07689
1.07702
1.07714
1.07727
1.0774
1.07753
1.07767
1.07781
1.07796
1.07811
1.07826
1.07841
1.07857
1.07873
1.07889
1.07905
1.07921
1.07937
1.07953
1.0797
1.07987
1.08005
1.08022
1.0804
1.08058
1.08076
1.08095
1.08113
1.08132
1.08152
1.08171
1.08191
1.08211
1.08231
1.08251
1.08272
1.08293
1.08314
1.08334
1.08356
1.08377
1.08398
1.08419
1.08441
1.08464
1.08487
1.08509
1.08532
1.08555
1.08578
1.086
1.08622
1.08645
1.08668
1.08691