/*--------------------------------*- C++ -*----------------------------------*\
  =========                 |
  \\      /  F ield         | OpenFOAM: The Open Source CFD Toolbox
   \\    /   O peration     | Website:  https://openfoam.org
    \\  /    A nd           | Version:  7
     \\/     M anipulation  |
\*---------------------------------------------------------------------------*/
FoamFile
{
    version     2.0;
    format      ascii;
    class       volScalarField;
    location    "3500";
    object      T;
}
// * * * * * * * * * * * * * * * * * * * * * * * * * * * * * * * * * * * * * //

dimensions      [0 0 0 1 0 0 0];

internalField   nonuniform List<scalar> 
160000
(
330.013
330.037
330.06
330.081
330.102
330.121
330.138
330.153
330.166
330.179
330.19
330.2
330.208
330.215
330.22
330.224
330.226
330.227
330.226
330.224
330.221
330.217
330.211
330.204
330.195
330.186
330.174
330.161
330.148
330.133
330.117
330.1
330.081
330.06
330.04
330.018
329.994
329.969
329.944
329.918
329.89
329.861
329.83
329.799
329.766
329.731
329.697
329.662
329.626
329.588
329.55
329.509
329.466
329.424
329.381
329.338
329.294
329.248
329.203
329.157
329.107
329.056
329.006
328.957
328.907
328.854
328.799
328.744
328.689
328.637
328.581
328.522
328.465
328.406
328.348
328.287
328.226
328.165
328.103
328.04
327.975
327.908
327.842
327.777
327.71
327.642
327.573
327.506
327.439
327.368
327.299
327.228
327.154
327.079
327.007
326.936
326.864
326.791
326.717
326.644
326.569
326.495
326.42
326.343
326.267
326.19
326.113
326.036
325.955
325.875
325.794
325.715
325.637
325.557
325.479
325.399
325.319
325.238
325.154
325.068
324.984
324.902
324.82
324.736
324.651
324.564
324.477
324.392
324.309
324.223
324.138
324.056
323.972
323.882
323.791
323.705
323.621
323.535
323.451
323.369
323.285
323.194
323.108
323.023
322.931
322.84
322.752
322.664
322.577
322.491
322.406
322.319
322.233
322.144
322.056
321.969
321.879
321.788
321.698
321.609
321.519
321.43
321.34
321.249
321.161
321.075
320.985
320.897
320.81
320.724
320.636
320.545
320.458
320.372
320.283
320.199
320.114
320.029
319.94
319.849
319.763
319.677
319.588
319.503
319.416
319.326
319.234
319.141
319.048
318.951
318.851
318.756
318.666
318.577
318.486
318.405
318.328
318.239
318.136
318.03
317.937
317.853
317.774
317.698
317.624
317.546
317.461
317.372
317.289
317.21
317.132
317.054
316.976
316.899
316.823
316.746
316.671
316.597
316.52
316.439
316.359
316.282
316.21
316.141
316.07
315.997
315.922
315.848
315.774
315.698
315.627
315.556
315.483
315.409
315.335
315.263
315.193
315.122
315.053
314.985
314.916
314.85
314.784
314.718
314.651
314.583
314.512
314.434
314.347
314.25
314.157
314.075
314.006
313.943
313.881
313.821
313.76
313.702
313.646
313.582
313.508
313.436
313.374
313.317
313.26
313.2
313.138
313.08
313.024
312.96
312.896
312.836
312.777
312.717
312.661
312.608
312.556
312.499
312.44
312.384
312.33
312.276
312.221
312.165
312.108
312.053
311.999
311.948
311.899
311.849
311.8
311.753
311.707
311.659
311.611
311.563
311.515
311.469
311.425
311.38
311.329
311.269
311.203
311.141
311.088
311.039
310.994
310.951
310.91
310.87
310.832
310.794
310.757
310.72
310.68
310.638
310.595
310.555
310.52
310.486
310.452
310.418
310.385
310.35
310.31
310.269
310.229
310.192
310.157
310.122
310.089
310.057
310.025
309.994
309.963
309.933
309.904
309.876
309.847
309.817
309.789
309.763
309.737
309.711
309.685
309.661
309.636
309.611
309.585
309.56
309.536
309.513
309.491
309.47
309.449
309.428
309.408
309.388
309.368
309.349
309.331
309.313
309.296
309.279
309.262
309.245
309.228
309.212
309.197
309.182
309.169
309.156
309.143
309.131
309.119
309.107
309.097
309.086
309.077
309.067
309.059
309.05
309.042
309.035
309.027
309.021
309.014
309.009
309.003
308.999
308.994
308.99
308.987
308.984
308.982
308.98
308.978
308.977
308.976
308.976
330.014
330.038
330.06
330.082
330.102
330.12
330.137
330.153
330.167
330.179
330.19
330.2
330.208
330.215
330.22
330.224
330.226
330.227
330.226
330.224
330.221
330.217
330.211
330.204
330.195
330.186
330.174
330.161
330.148
330.133
330.117
330.1
330.081
330.06
330.04
330.018
329.994
329.97
329.945
329.918
329.889
329.86
329.83
329.799
329.766
329.731
329.697
329.662
329.626
329.588
329.548
329.508
329.467
329.425
329.382
329.339
329.294
329.249
329.203
329.156
329.107
329.057
329.007
328.957
328.906
328.853
328.8
328.746
328.69
328.635
328.579
328.521
328.464
328.407
328.348
328.287
328.226
328.165
328.103
328.04
327.974
327.908
327.843
327.778
327.711
327.641
327.573
327.506
327.438
327.369
327.298
327.227
327.154
327.08
327.008
326.937
326.865
326.792
326.717
326.644
326.57
326.494
326.42
326.344
326.266
326.19
326.113
326.034
325.954
325.874
325.794
325.715
325.637
325.558
325.48
325.4
325.319
325.238
325.154
325.069
324.984
324.901
324.818
324.734
324.65
324.564
324.478
324.394
324.309
324.223
324.139
324.057
323.971
323.88
323.791
323.707
323.622
323.535
323.452
323.37
323.284
323.195
323.108
323.02
322.929
322.84
322.753
322.665
322.578
322.494
322.406
322.318
322.233
322.145
322.056
321.967
321.878
321.788
321.699
321.61
321.52
321.43
321.339
321.249
321.162
321.075
320.985
320.897
320.81
320.722
320.633
320.544
320.459
320.372
320.285
320.2
320.114
320.027
319.94
319.852
319.765
319.678
319.591
319.505
319.418
319.327
319.235
319.143
319.049
318.948
318.844
318.747
318.658
318.573
318.489
318.409
318.325
318.226
318.124
318.029
317.941
317.857
317.778
317.702
317.625
317.543
317.457
317.372
317.291
317.212
317.133
317.054
316.977
316.901
316.824
316.747
316.672
316.596
316.517
316.437
316.36
316.286
316.214
316.143
316.071
315.996
315.921
315.847
315.774
315.699
315.628
315.556
315.483
315.407
315.334
315.263
315.193
315.122
315.053
314.985
314.917
314.85
314.784
314.718
314.653
314.586
314.512
314.426
314.329
314.235
314.153
314.08
314.011
313.946
313.884
313.822
313.762
313.704
313.644
313.577
313.505
313.438
313.378
313.32
313.261
313.199
313.139
313.082
313.023
312.958
312.895
312.836
312.776
312.717
312.662
312.609
312.555
312.498
312.44
312.385
312.33
312.276
312.22
312.163
312.107
312.052
312
311.949
311.9
311.85
311.801
311.754
311.707
311.659
311.61
311.562
311.514
311.469
311.425
311.377
311.316
311.253
311.196
311.141
311.089
311.041
310.997
310.955
310.914
310.873
310.834
310.796
310.758
310.719
310.679
310.636
310.595
310.557
310.522
310.487
310.453
310.419
310.385
310.347
310.306
310.266
310.229
310.193
310.157
310.123
310.089
310.057
310.025
309.994
309.964
309.933
309.904
309.875
309.846
309.818
309.79
309.764
309.737
309.711
309.686
309.661
309.636
309.61
309.585
309.56
309.536
309.514
309.492
309.47
309.449
309.428
309.408
309.388
309.368
309.349
309.331
309.314
309.296
309.279
309.262
309.244
309.228
309.212
309.196
309.182
309.169
309.156
309.143
309.131
309.119
309.108
309.097
309.086
309.077
309.068
309.058
309.05
309.042
309.034
309.027
309.021
309.014
309.009
309.003
308.999
308.994
308.99
308.987
308.984
308.982
308.98
308.978
308.977
308.976
308.976
330.013
330.037
330.06
330.082
330.102
330.121
330.137
330.153
330.167
330.179
330.19
330.2
330.208
330.214
330.22
330.224
330.226
330.227
330.226
330.224
330.221
330.217
330.211
330.204
330.195
330.186
330.174
330.162
330.148
330.133
330.117
330.1
330.081
330.06
330.039
330.018
329.994
329.97
329.945
329.918
329.89
329.86
329.83
329.799
329.766
329.731
329.697
329.663
329.627
329.587
329.547
329.507
329.467
329.426
329.383
329.339
329.295
329.249
329.202
329.155
329.107
329.058
329.007
328.956
328.906
328.853
328.798
328.745
328.69
328.635
328.579
328.523
328.465
328.407
328.349
328.288
328.226
328.165
328.102
328.038
327.975
327.909
327.843
327.778
327.712
327.643
327.575
327.505
327.436
327.368
327.297
327.225
327.154
327.081
327.009
326.938
326.866
326.793
326.718
326.644
326.569
326.494
326.419
326.344
326.266
326.188
326.111
326.034
325.956
325.875
325.795
325.716
325.637
325.559
325.48
325.4
325.319
325.237
325.152
325.068
324.984
324.902
324.818
324.734
324.65
324.564
324.479
324.394
324.309
324.224
324.141
324.055
323.967
323.878
323.791
323.707
323.622
323.537
323.453
323.37
323.284
323.195
323.107
323.02
322.93
322.841
322.753
322.666
322.579
322.494
322.406
322.319
322.233
322.145
322.054
321.965
321.877
321.787
321.698
321.61
321.521
321.431
321.339
321.249
321.161
321.073
320.985
320.897
320.809
320.72
320.631
320.544
320.457
320.371
320.287
320.203
320.115
320.027
319.941
319.854
319.767
319.681
319.595
319.508
319.42
319.33
319.239
319.144
319.042
318.929
318.826
318.737
318.654
318.572
318.489
318.405
318.314
318.218
318.124
318.033
317.946
317.863
317.782
317.704
317.624
317.54
317.456
317.374
317.294
317.214
317.135
317.056
316.979
316.902
316.824
316.748
316.672
316.594
316.516
316.439
316.364
316.29
316.217
316.143
316.069
315.995
315.92
315.847
315.773
315.699
315.627
315.555
315.48
315.406
315.334
315.262
315.191
315.122
315.054
314.986
314.917
314.85
314.784
314.719
314.655
314.585
314.505
314.407
314.309
314.226
314.152
314.083
314.016
313.95
313.887
313.826
313.765
313.704
313.641
313.573
313.506
313.443
313.383
313.323
313.262
313.2
313.14
313.082
313.02
312.956
312.895
312.835
312.776
312.718
312.663
312.61
312.555
312.498
312.441
312.385
312.33
312.274
312.217
312.161
312.106
312.054
312.002
311.951
311.901
311.852
311.803
311.755
311.708
311.66
311.611
311.56
311.511
311.465
311.419
311.362
311.303
311.247
311.193
311.14
311.091
311.044
311
310.958
310.917
310.876
310.837
310.797
310.758
310.718
310.677
310.636
310.597
310.559
310.523
310.488
310.454
310.419
310.383
310.343
310.303
310.265
310.228
310.193
310.158
310.124
310.091
310.058
310.026
309.994
309.964
309.933
309.904
309.875
309.846
309.818
309.791
309.764
309.738
309.712
309.686
309.661
309.635
309.609
309.584
309.56
309.537
309.515
309.493
309.471
309.449
309.428
309.408
309.388
309.368
309.35
309.331
309.314
309.296
309.279
309.261
309.244
309.227
309.212
309.196
309.182
309.169
309.156
309.143
309.131
309.119
309.108
309.097
309.087
309.077
309.068
309.059
309.05
309.042
309.034
309.027
309.021
309.014
309.009
309.003
308.998
308.994
308.99
308.987
308.984
308.982
308.98
308.978
308.977
308.976
308.976
330.013
330.038
330.061
330.082
330.102
330.121
330.138
330.153
330.167
330.18
330.191
330.2
330.208
330.214
330.22
330.224
330.226
330.227
330.226
330.224
330.221
330.217
330.211
330.204
330.195
330.185
330.174
330.162
330.148
330.133
330.117
330.1
330.081
330.061
330.039
330.017
329.994
329.97
329.945
329.918
329.889
329.86
329.83
329.799
329.766
329.732
329.698
329.663
329.626
329.588
329.548
329.507
329.467
329.426
329.382
329.339
329.295
329.25
329.203
329.156
329.108
329.058
329.007
328.957
328.906
328.853
328.799
328.745
328.69
328.633
328.578
328.523
328.466
328.408
328.348
328.286
328.225
328.164
328.1
328.039
327.975
327.909
327.843
327.779
327.713
327.644
327.575
327.505
327.436
327.366
327.296
327.226
327.154
327.082
327.011
326.939
326.865
326.793
326.72
326.644
326.569
326.493
326.417
326.342
326.265
326.188
326.11
326.033
325.956
325.876
325.797
325.718
325.638
325.559
325.479
325.4
325.319
325.237
325.152
325.068
324.985
324.902
324.818
324.734
324.65
324.564
324.478
324.394
324.31
324.225
324.14
324.054
323.965
323.878
323.791
323.706
323.622
323.537
323.453
323.369
323.282
323.195
323.109
323.021
322.931
322.841
322.753
322.666
322.581
322.494
322.406
322.319
322.232
322.144
322.055
321.966
321.877
321.787
321.699
321.611
321.521
321.43
321.338
321.248
321.16
321.073
320.985
320.895
320.806
320.717
320.629
320.545
320.46
320.374
320.288
320.202
320.115
320.029
319.944
319.858
319.77
319.684
319.599
319.513
319.423
319.332
319.237
319.135
319.016
318.906
318.815
318.732
318.651
318.568
318.483
318.397
318.308
318.218
318.128
318.039
317.951
317.866
317.785
317.704
317.623
317.541
317.458
317.377
317.297
317.217
317.137
317.059
316.981
316.903
316.825
316.748
316.671
316.594
316.517
316.441
316.366
316.292
316.217
316.143
316.068
315.994
315.92
315.847
315.773
315.7
315.627
315.553
315.479
315.406
315.333
315.262
315.191
315.121
315.053
314.985
314.917
314.85
314.785
314.72
314.653
314.577
314.485
314.385
314.299
314.224
314.154
314.086
314.02
313.955
313.892
313.829
313.767
313.704
313.639
313.573
313.509
313.447
313.386
313.325
313.263
313.201
313.141
313.081
313.018
312.955
312.894
312.833
312.774
312.718
312.664
312.611
312.555
312.497
312.44
312.384
312.328
312.272
312.217
312.162
312.108
312.055
312.004
311.953
311.903
311.853
311.804
311.757
311.711
311.663
311.608
311.554
311.504
311.457
311.407
311.353
311.297
311.243
311.192
311.142
311.094
311.048
311.004
310.961
310.92
310.879
310.839
310.798
310.758
310.718
310.677
310.637
310.598
310.561
310.524
310.489
310.454
310.417
310.379
310.34
310.301
310.264
310.228
310.194
310.159
310.125
310.092
310.059
310.026
309.994
309.964
309.934
309.904
309.875
309.846
309.818
309.791
309.764
309.738
309.712
309.686
309.66
309.634
309.609
309.584
309.561
309.538
309.515
309.493
309.471
309.449
309.428
309.408
309.388
309.369
309.35
309.332
309.314
309.296
309.278
309.261
309.244
309.227
309.211
309.196
309.182
309.168
309.155
309.143
309.131
309.119
309.108
309.097
309.087
309.077
309.068
309.059
309.05
309.042
309.034
309.027
309.02
309.014
309.009
309.003
308.999
308.994
308.99
308.987
308.984
308.982
308.98
308.978
308.977
308.976
308.976
330.013
330.037
330.061
330.082
330.102
330.121
330.138
330.153
330.167
330.18
330.191
330.2
330.208
330.215
330.22
330.224
330.226
330.227
330.226
330.224
330.221
330.216
330.211
330.204
330.195
330.185
330.175
330.162
330.148
330.133
330.116
330.099
330.081
330.061
330.039
330.017
329.994
329.97
329.945
329.918
329.89
329.86
329.83
329.799
329.766
329.733
329.698
329.663
329.626
329.587
329.548
329.507
329.466
329.425
329.383
329.339
329.295
329.25
329.203
329.156
329.108
329.059
329.007
328.957
328.906
328.853
328.799
328.744
328.689
328.633
328.577
328.523
328.466
328.408
328.348
328.286
328.224
328.163
328.101
328.037
327.973
327.909
327.844
327.779
327.713
327.644
327.575
327.506
327.436
327.366
327.296
327.227
327.155
327.083
327.012
326.94
326.866
326.793
326.72
326.645
326.568
326.491
326.416
326.34
326.264
326.187
326.111
326.034
325.956
325.877
325.798
325.72
325.641
325.559
325.477
325.398
325.32
325.238
325.152
325.068
324.985
324.902
324.819
324.735
324.65
324.563
324.479
324.395
324.311
324.226
324.14
324.053
323.964
323.876
323.79
323.704
323.621
323.538
323.454
323.368
323.282
323.196
323.109
323.02
322.931
322.842
322.754
322.668
322.581
322.494
322.407
322.32
322.233
322.144
322.054
321.965
321.876
321.788
321.701
321.613
321.522
321.429
321.337
321.247
321.159
321.072
320.981
320.89
320.802
320.715
320.63
320.546
320.461
320.376
320.29
320.204
320.118
320.032
319.947
319.861
319.775
319.688
319.603
319.516
319.426
319.328
319.219
319.1
318.99
318.897
318.811
318.73
318.648
318.564
318.479
318.393
318.308
318.221
318.133
318.044
317.955
317.869
317.786
317.705
317.624
317.542
317.46
317.38
317.3
317.22
317.141
317.062
316.982
316.903
316.825
316.748
316.671
316.595
316.519
316.443
316.367
316.292
316.217
316.143
316.068
315.994
315.92
315.847
315.774
315.701
315.627
315.553
315.479
315.406
315.332
315.259
315.189
315.121
315.053
314.985
314.916
314.849
314.784
314.717
314.643
314.555
314.464
314.378
314.299
314.226
314.156
314.09
314.024
313.96
313.896
313.833
313.769
313.705
313.64
313.575
313.512
313.45
313.389
313.328
313.265
313.203
313.142
313.08
313.015
312.951
312.89
312.832
312.775
312.72
312.666
312.611
312.553
312.495
312.439
312.383
312.328
312.272
312.218
312.163
312.11
312.057
312.006
311.954
311.903
311.854
311.806
311.76
311.714
311.663
311.603
311.546
311.498
311.45
311.399
311.346
311.293
311.241
311.192
311.144
311.096
311.051
311.006
310.963
310.922
310.881
310.841
310.8
310.759
310.718
310.677
310.637
310.599
310.562
310.525
310.49
310.453
310.415
310.376
310.338
310.3
310.264
310.229
310.195
310.161
310.127
310.092
310.059
310.027
309.995
309.963
309.933
309.904
309.875
309.846
309.818
309.791
309.764
309.738
309.712
309.686
309.66
309.634
309.609
309.585
309.561
309.538
309.516
309.493
309.471
309.449
309.429
309.408
309.388
309.369
309.35
309.332
309.314
309.296
309.279
309.261
309.243
309.226
309.21
309.196
309.182
309.168
309.155
309.143
309.131
309.119
309.108
309.097
309.087
309.077
309.068
309.059
309.05
309.042
309.034
309.027
309.021
309.014
309.009
309.003
308.998
308.994
308.99
308.987
308.984
308.981
308.979
308.978
308.977
308.976
308.975
330.013
330.037
330.06
330.082
330.102
330.121
330.138
330.154
330.167
330.179
330.19
330.2
330.208
330.215
330.22
330.224
330.226
330.227
330.226
330.225
330.221
330.216
330.211
330.204
330.195
330.185
330.174
330.162
330.148
330.133
330.116
330.099
330.081
330.061
330.039
330.017
329.994
329.97
329.945
329.918
329.889
329.86
329.83
329.799
329.767
329.733
329.698
329.663
329.626
329.587
329.547
329.507
329.467
329.425
329.383
329.34
329.295
329.249
329.203
329.156
329.108
329.059
329.008
328.957
328.906
328.853
328.798
328.744
328.689
328.633
328.577
328.522
328.464
328.406
328.348
328.286
328.224
328.162
328.101
328.038
327.974
327.909
327.845
327.78
327.713
327.644
327.576
327.507
327.436
327.366
327.297
327.228
327.156
327.083
327.012
326.939
326.866
326.794
326.718
326.643
326.569
326.492
326.415
326.338
326.262
326.187
326.112
326.036
325.957
325.876
325.797
325.719
325.641
325.56
325.478
325.398
325.319
325.238
325.154
325.069
324.985
324.902
324.819
324.735
324.649
324.564
324.48
324.396
324.311
324.225
324.139
324.051
323.963
323.877
323.791
323.704
323.619
323.536
323.452
323.368
323.283
323.197
323.11
323.02
322.931
322.843
322.756
322.668
322.58
322.494
322.408
322.32
322.232
322.142
322.053
321.964
321.877
321.79
321.703
321.613
321.52
321.427
321.337
321.247
321.157
321.067
320.977
320.888
320.8
320.715
320.631
320.547
320.463
320.377
320.29
320.205
320.12
320.035
319.95
319.865
319.779
319.694
319.611
319.523
319.423
319.3
319.18
319.077
318.98
318.893
318.811
318.729
318.646
318.562
318.478
318.393
318.309
318.223
318.136
318.047
317.958
317.871
317.787
317.705
317.625
317.543
317.463
317.383
317.303
317.223
317.144
317.064
316.984
316.905
316.827
316.749
316.673
316.596
316.52
316.443
316.367
316.292
316.218
316.143
316.068
315.994
315.921
315.847
315.774
315.701
315.626
315.553
315.48
315.406
315.33
315.257
315.188
315.12
315.052
314.982
314.913
314.846
314.78
314.706
314.625
314.541
314.458
314.378
314.301
314.229
314.16
314.093
314.029
313.964
313.9
313.835
313.77
313.706
313.641
313.577
313.515
313.453
313.392
313.33
313.267
313.205
313.141
313.076
313.01
312.948
312.889
312.832
312.776
312.721
312.666
312.61
312.552
312.494
312.438
312.383
312.328
312.273
312.218
312.164
312.111
312.058
312.006
311.955
311.905
311.856
311.808
311.763
311.715
311.658
311.595
311.541
311.492
311.443
311.393
311.341
311.29
311.24
311.192
311.144
311.098
311.052
311.008
310.966
310.924
310.883
310.843
310.801
310.76
310.718
310.677
310.637
310.599
310.562
310.526
310.489
310.452
310.414
310.375
310.337
310.301
310.265
310.23
310.195
310.161
310.127
310.093
310.059
310.027
309.995
309.963
309.933
309.904
309.875
309.846
309.818
309.791
309.764
309.738
309.712
309.686
309.66
309.634
309.609
309.585
309.562
309.539
309.516
309.494
309.471
309.45
309.429
309.408
309.388
309.369
309.35
309.332
309.314
309.296
309.279
309.261
309.243
309.226
309.21
309.196
309.182
309.168
309.155
309.143
309.131
309.119
309.108
309.097
309.087
309.077
309.068
309.059
309.05
309.042
309.034
309.027
309.021
309.014
309.009
309.003
308.998
308.994
308.99
308.987
308.984
308.981
308.979
308.978
308.977
308.976
308.975
330.013
330.037
330.06
330.082
330.102
330.121
330.138
330.154
330.167
330.18
330.19
330.2
330.208
330.215
330.22
330.224
330.226
330.227
330.226
330.225
330.221
330.217
330.211
330.204
330.195
330.185
330.174
330.162
330.148
330.133
330.116
330.099
330.08
330.061
330.04
330.018
329.994
329.97
329.945
329.918
329.89
329.86
329.83
329.799
329.766
329.733
329.699
329.663
329.626
329.588
329.547
329.508
329.467
329.425
329.383
329.34
329.295
329.25
329.204
329.157
329.109
329.06
329.009
328.956
328.904
328.853
328.799
328.743
328.687
328.633
328.578
328.522
328.463
328.405
328.346
328.286
328.225
328.163
328.101
328.038
327.974
327.91
327.846
327.78
327.712
327.644
327.576
327.507
327.437
327.367
327.298
327.229
327.156
327.083
327.012
326.941
326.869
326.793
326.717
326.643
326.568
326.492
326.414
326.337
326.262
326.187
326.112
326.037
325.958
325.876
325.797
325.72
325.642
325.56
325.479
325.399
325.32
325.238
325.153
325.068
324.984
324.901
324.819
324.736
324.649
324.564
324.481
324.396
324.31
324.224
324.138
324.052
323.965
323.878
323.791
323.703
323.618
323.534
323.451
323.368
323.284
323.198
323.11
323.022
322.932
322.843
322.755
322.668
322.582
322.496
322.408
322.319
322.231
322.142
322.051
321.964
321.878
321.791
321.703
321.612
321.518
321.425
321.335
321.247
321.156
321.065
320.976
320.887
320.8
320.715
320.631
320.547
320.463
320.378
320.291
320.207
320.122
320.037
319.952
319.868
319.784
319.702
319.618
319.526
319.405
319.257
319.149
319.06
318.975
318.892
318.81
318.728
318.646
318.563
318.479
318.394
318.309
318.224
318.137
318.049
317.96
317.873
317.789
317.707
317.627
317.546
317.465
317.385
317.305
317.225
317.146
317.065
316.986
316.907
316.829
316.751
316.674
316.597
316.52
316.444
316.368
316.293
316.218
316.143
316.069
315.994
315.92
315.847
315.774
315.701
315.627
315.554
315.48
315.404
315.328
315.256
315.188
315.12
315.049
314.977
314.908
314.84
314.77
314.694
314.615
314.535
314.456
314.378
314.303
314.232
314.164
314.097
314.032
313.967
313.902
313.838
313.773
313.708
313.643
313.58
313.517
313.455
313.393
313.331
313.268
313.204
313.138
313.071
313.007
312.947
312.889
312.833
312.777
312.721
312.666
312.609
312.552
312.494
312.439
312.384
312.328
312.273
312.219
312.165
312.112
312.059
312.007
311.956
311.906
311.857
311.81
311.763
311.712
311.651
311.591
311.538
311.488
311.438
311.389
311.339
311.289
311.239
311.191
311.145
311.099
311.054
311.01
310.968
310.926
310.885
310.843
310.802
310.76
310.719
310.678
310.639
310.6
310.563
310.525
310.488
310.451
310.413
310.375
310.338
310.301
310.265
310.23
310.196
310.162
310.128
310.093
310.06
310.027
309.995
309.963
309.933
309.904
309.875
309.846
309.818
309.791
309.764
309.737
309.711
309.686
309.66
309.635
309.61
309.586
309.562
309.539
309.516
309.494
309.471
309.45
309.429
309.408
309.388
309.369
309.35
309.331
309.314
309.296
309.279
309.261
309.243
309.226
309.21
309.195
309.182
309.168
309.155
309.143
309.131
309.119
309.108
309.098
309.087
309.078
309.068
309.059
309.05
309.042
309.034
309.027
309.021
309.014
309.009
309.003
308.998
308.994
308.99
308.987
308.984
308.981
308.979
308.978
308.976
308.976
308.975
330.013
330.037
330.06
330.081
330.102
330.121
330.138
330.154
330.168
330.18
330.191
330.2
330.208
330.215
330.22
330.224
330.226
330.227
330.226
330.225
330.221
330.217
330.211
330.204
330.195
330.186
330.174
330.162
330.148
330.133
330.116
330.099
330.081
330.061
330.039
330.017
329.994
329.97
329.945
329.918
329.89
329.861
329.83
329.799
329.767
329.733
329.698
329.663
329.625
329.587
329.548
329.508
329.467
329.425
329.383
329.34
329.296
329.251
329.205
329.157
329.109
329.06
329.008
328.956
328.904
328.852
328.798
328.742
328.687
328.633
328.578
328.52
328.462
328.405
328.346
328.286
328.224
328.163
328.102
328.039
327.975
327.91
327.845
327.778
327.711
327.645
327.577
327.507
327.436
327.366
327.298
327.229
327.157
327.085
327.013
326.941
326.868
326.794
326.718
326.641
326.566
326.49
326.413
326.337
326.263
326.188
326.113
326.037
325.958
325.878
325.799
325.72
325.641
325.561
325.481
325.4
325.319
325.236
325.152
325.069
324.985
324.902
324.82
324.735
324.647
324.563
324.481
324.398
324.312
324.223
324.137
324.052
323.966
323.878
323.789
323.702
323.617
323.534
323.451
323.369
323.284
323.196
323.109
323.022
322.932
322.843
322.757
322.671
322.583
322.496
322.408
322.32
322.232
322.141
322.051
321.964
321.877
321.79
321.701
321.611
321.517
321.425
321.335
321.245
321.153
321.063
320.976
320.889
320.801
320.715
320.631
320.549
320.464
320.377
320.292
320.208
320.124
320.038
319.954
319.872
319.791
319.708
319.618
319.508
319.355
319.222
319.133
319.054
318.973
318.891
318.809
318.727
318.645
318.563
318.48
318.395
318.31
318.224
318.138
318.05
317.962
317.876
317.791
317.71
317.63
317.549
317.468
317.387
317.306
317.226
317.146
317.067
316.988
316.909
316.831
316.753
316.676
316.599
316.522
316.445
316.369
316.294
316.219
316.144
316.069
315.994
315.92
315.847
315.774
315.701
315.628
315.554
315.479
315.402
315.326
315.254
315.186
315.117
315.044
314.972
314.901
314.831
314.76
314.685
314.608
314.531
314.455
314.38
314.307
314.236
314.167
314.101
314.035
313.97
313.905
313.84
313.775
313.71
313.645
313.582
313.518
313.456
313.393
313.331
313.267
313.202
313.135
313.07
313.008
312.948
312.891
312.833
312.777
312.721
312.666
312.609
312.552
312.495
312.439
312.384
312.329
312.274
312.22
312.166
312.113
312.06
312.009
311.957
311.906
311.857
311.81
311.761
311.706
311.646
311.588
311.535
311.484
311.435
311.387
311.337
311.288
311.239
311.191
311.145
311.1
311.056
311.012
310.97
310.927
310.885
310.844
310.802
310.76
310.719
310.679
310.64
310.601
310.563
310.525
310.488
310.45
310.412
310.375
310.337
310.301
310.265
310.231
310.196
310.162
310.128
310.094
310.06
310.027
309.995
309.964
309.934
309.904
309.875
309.846
309.819
309.791
309.764
309.737
309.711
309.685
309.66
309.635
309.61
309.586
309.562
309.539
309.516
309.494
309.472
309.45
309.429
309.408
309.388
309.369
309.35
309.331
309.313
309.296
309.278
309.26
309.243
309.226
309.21
309.196
309.182
309.168
309.155
309.143
309.131
309.119
309.108
309.098
309.087
309.078
309.068
309.059
309.05
309.042
309.034
309.027
309.02
309.014
309.008
309.003
308.998
308.994
308.99
308.987
308.984
308.981
308.979
308.978
308.976
308.976
308.975
330.013
330.037
330.06
330.082
330.102
330.121
330.138
330.154
330.167
330.18
330.191
330.2
330.208
330.215
330.22
330.224
330.226
330.227
330.226
330.225
330.221
330.217
330.211
330.204
330.195
330.185
330.174
330.162
330.148
330.133
330.116
330.099
330.081
330.061
330.039
330.018
329.995
329.971
329.946
329.918
329.889
329.861
329.831
329.799
329.766
329.733
329.698
329.662
329.625
329.587
329.548
329.509
329.468
329.425
329.383
329.34
329.296
329.251
329.205
329.158
329.109
329.06
329.009
328.956
328.903
328.851
328.797
328.742
328.687
328.632
328.577
328.52
328.463
328.405
328.346
328.285
328.224
328.163
328.103
328.04
327.975
327.91
327.845
327.778
327.712
327.645
327.577
327.507
327.436
327.366
327.298
327.228
327.157
327.086
327.014
326.941
326.868
326.794
326.718
326.641
326.566
326.49
326.413
326.337
326.263
326.188
326.113
326.036
325.958
325.88
325.802
325.722
325.641
325.561
325.48
325.4
325.318
325.235
325.152
325.069
324.984
324.901
324.819
324.734
324.649
324.563
324.48
324.396
324.312
324.226
324.14
324.052
323.964
323.877
323.79
323.702
323.617
323.534
323.453
323.369
323.283
323.195
323.108
323.021
322.934
322.846
322.759
322.671
322.584
322.497
322.408
322.32
322.232
322.142
322.053
321.964
321.876
321.788
321.7
321.61
321.518
321.425
321.333
321.24
321.15
321.061
320.975
320.889
320.802
320.716
320.632
320.548
320.463
320.378
320.293
320.209
320.124
320.039
319.957
319.876
319.792
319.7
319.59
319.45
319.315
319.215
319.134
319.055
318.974
318.892
318.81
318.728
318.645
318.563
318.48
318.396
318.311
318.225
318.139
318.052
317.965
317.878
317.794
317.712
317.632
317.552
317.47
317.389
317.308
317.228
317.148
317.069
316.989
316.91
316.832
316.754
316.677
316.6
316.523
316.446
316.37
316.295
316.22
316.144
316.068
315.994
315.921
315.848
315.775
315.701
315.629
315.555
315.478
315.398
315.321
315.251
315.183
315.112
315.039
314.966
314.895
314.825
314.753
314.68
314.606
314.531
314.456
314.382
314.309
314.239
314.17
314.103
314.037
313.972
313.907
313.841
313.776
313.711
313.647
313.583
313.52
313.456
313.393
313.329
313.265
313.2
313.135
313.071
313.01
312.95
312.891
312.834
312.778
312.722
312.666
312.608
312.551
312.495
312.439
312.384
312.329
312.274
312.22
312.167
312.114
312.061
312.009
311.957
311.906
311.857
311.809
311.757
311.7
311.642
311.586
311.534
311.483
311.434
311.385
311.336
311.286
311.238
311.192
311.146
311.101
311.057
311.013
310.971
310.928
310.886
310.844
310.803
310.761
310.72
310.68
310.64
310.601
310.563
310.525
310.487
310.449
310.411
310.374
310.337
310.301
310.265
310.231
310.196
310.162
310.129
310.094
310.061
310.028
309.995
309.964
309.934
309.904
309.875
309.847
309.819
309.792
309.765
309.738
309.711
309.686
309.66
309.635
309.61
309.586
309.563
309.539
309.517
309.494
309.472
309.45
309.429
309.408
309.388
309.369
309.35
309.331
309.313
309.295
309.278
309.26
309.243
309.226
309.21
309.196
309.182
309.168
309.155
309.142
309.13
309.119
309.108
309.098
309.087
309.078
309.068
309.059
309.05
309.042
309.034
309.027
309.02
309.014
309.008
309.003
308.998
308.994
308.99
308.987
308.984
308.981
308.979
308.977
308.976
308.976
308.975
330.013
330.038
330.06
330.081
330.102
330.121
330.138
330.153
330.167
330.18
330.19
330.2
330.208
330.215
330.22
330.224
330.226
330.227
330.226
330.225
330.221
330.217
330.211
330.204
330.195
330.185
330.174
330.162
330.148
330.133
330.117
330.099
330.08
330.061
330.04
330.018
329.995
329.971
329.946
329.918
329.89
329.861
329.831
329.799
329.766
329.733
329.698
329.662
329.625
329.586
329.548
329.509
329.468
329.426
329.384
329.341
329.296
329.252
329.206
329.158
329.109
329.06
329.009
328.956
328.903
328.849
328.796
328.742
328.687
328.632
328.578
328.521
328.463
328.405
328.345
328.285
328.224
328.164
328.102
328.039
327.975
327.911
327.845
327.778
327.711
327.645
327.578
327.508
327.437
327.367
327.298
327.228
327.157
327.086
327.015
326.943
326.869
326.793
326.717
326.641
326.566
326.489
326.412
326.338
326.263
326.188
326.112
326.035
325.958
325.881
325.803
325.723
325.643
325.56
325.479
325.399
325.318
325.236
325.151
325.068
324.985
324.902