/*--------------------------------*- C++ -*----------------------------------*\
  =========                 |
  \\      /  F ield         | OpenFOAM: The Open Source CFD Toolbox
   \\    /   O peration     | Website:  https://openfoam.org
    \\  /    A nd           | Version:  7
     \\/     M anipulation  |
\*---------------------------------------------------------------------------*/
FoamFile
{
    version     2.0;
    format      ascii;
    class       volScalarField;
    location    "1000";
    object      alpha.wetting;
}
// * * * * * * * * * * * * * * * * * * * * * * * * * * * * * * * * * * * * * //

dimensions      [0 0 0 0 0 0 0];

internalField   nonuniform List<scalar> 
160000
(
0.551029
0.551029
0.415163
0.477403
0.435175
0.42716
0.514921
0.623857
0.494723
0.508962
0.487944
0.465705
0.452668
0.504665
0.508389
0.475248
0.475248
0.523376
0.617297
0.552945
0.453604
0.456779
0.530512
0.494341
0.416143
0.416143
0.538401
0.546141
0.546132
0.546141
0.521211
0.454785
0.454791
0.454798
0.454806
0.454814
0.571432
0.571414
0.571441
0.571421
0.411383
0.405825
0.483465
0.559983
0.559983
0.559989
0.559989
0.446873
0.446871
0.446872
0.472025
0.560922
0.560899
0.560922
0.479829
0.465176
0.465174
0.465176
0.481205
0.520628
0.520643
0.520628
0.520653
0.512779
0.512778
0.485273
0.460818
0.460817
0.460818
0.514539
0.514603
0.514588
0.514619
0.514602
0.514622
0.51462
0.514624
0.520072
0.520074
0.510019
0.515547
0.515545
0.477543
0.477547
0.4804
0.493246
0.492886
0.492879
0.498196
0.466472
0.466493
0.518791
0.514894
0.479588
0.479587
0.485832
0.528446
0.528445
0.528446
0.528445
0.523062
0.495172
0.504951
0.50495
0.512437
0.482696
0.482699
0.534175
0.534205
0.534176
0.53422
0.524144
0.506106
0.499396
0.499399
0.490547
0.490545
0.547241
0.547237
0.530619
0.516459
0.547173
0.558421
0.558418
0.558421
0.518142
0.476383
0.476389
0.484504
0.465556
0.465556
0.482301
0.534031
0.485785
0.480907
0.480907
0.490257
0.4802
0.4802
0.4802
0.480102
0.480069
0.480068
0.538759
0.538759
0.538759
0.537487
0.480941
0.480938
0.480941
0.498035
0.498038
0.498039
0.484017
0.484018
0.517748
0.517764
0.517748
0.517763
0.49458
0.473937
0.477278
0.490663
0.490641
0.490689
0.521475
0.521476
0.521475
0.513949
0.497771
0.497768
0.490499
0.490509
0.491618
0.491611
0.500454
0.518011
0.518013
0.518014
0.510333
0.510333
0.548173
0.498895
0.498901
0.500851
0.511762
0.513802
0.513812
0.498356
0.498369
0.464166
0.46416
0.464155
0.46416
0.464165
0.464169
0.533743
0.533765
0.533743
0.47931
0.477183
0.477191
0.506564
0.515031
0.531994
0.522131
0.500557
0.554991
0.55499
0.554985
0.523691
0.523703
0.523706
0.526511
0.52204
0.522042
0.522208
0.522242
0.522211
0.522244
0.522213
0.52227
0.522259
0.532754
0.532742
0.533277
0.514267
0.487917
0.482531
0.482528
0.482531
0.523217
0.518001
0.519929
0.519957
0.519931
0.519957
0.519931
0.517662
0.526406
0.526432
0.528152
0.502004
0.502005
0.512211
0.48286
0.482817
0.482857
0.482832
0.482857
0.490252
0.49027
0.448859
0.475312
0.517175
0.51717
0.486627
0.480699
0.505489
0.50549
0.505488
0.501913
0.498832
0.498832
0.528155
0.528156
0.528155
0.496256
0.470023
0.470019
0.470019
0.51718
0.517182
0.517185
0.517187
0.519188
0.520454
0.520453
0.479417
0.517633
0.517624
0.531925
0.53192
0.516593
0.488673
0.516554
0.51655
0.514031
0.534314
0.465266
0.463048
0.463046
0.538472
0.538474
0.538475
0.538475
0.499238
0.499239
0.49924
0.499239
0.516742
0.519202
0.523544
0.523542
0.498525
0.471693
0.47387
0.473876
0.513151
0.520388
0.520363
0.519149
0.519146
0.501232
0.469715
0.493399
0.493401
0.490483
0.486207
0.475912
0.475916
0.493117
0.493119
0.493118
0.493124
0.510445
0.510443
0.510442
0.50433
0.490746
0.478572
0.478576
0.472146
0.469832
0.469831
0.476191
0.443471
0.419239
0.419282
0.419195
0.419272
0.419219
0.419249
0.458026
0.613926
0.613923
0.613975
0.613923
0.614046
0.613874
0.541375
0.497609
0.493509
0.493508
0.532179
0.532178
0.510638
0.492759
0.492771
0.492759
0.514074
0.514067
0.509924
0.49642
0.496318
0.491973
0.526733
0.526714
0.526857
0.526223
0.529922
0.529967
0.529924
0.529967
0.524447
0.514886
0.514899
0.518516
0.518512
0.526162
0.522811
0.501613
0.49466
0.499114
0.499076
0.499165
0.499079
0.499173
0.499098
0.500146
0.500148
0.492761
0.480382
0.478795
0.50602
0.520259
0.375766
0.323278
0.32324
0.323238
0.475289
0.445466
0.60776
0.420604
0.420604
0.445587
0.465991
0.465987
0.497529
0.497526
0.475122
0.513898
0.531748
0.535389
0.53539
0.50462
0.475248
0.495062
0.478519
0.453604
0.453602
0.518003
0.530513
0.530512
0.468411
0.544384
0.544405
0.544402
0.491121
0.486517
0.473846
0.47384
0.473846
0.461624
0.454814
0.537817
0.537819
0.527127
0.571416
0.4575
0.405825
0.405825
0.411601
0.542114
0.559983
0.559983
0.523539
0.470831
0.446874
0.446872
0.446874
0.553443
0.560922
0.560138
0.479799
0.560871
0.533193
0.48189
0.501936
0.501942
0.514418
0.508557
0.471824
0.508928
0.507924
0.46999
0.514069
0.514514
0.514521
0.514526
0.491339
0.466013
0.466002
0.511977
0.488041
0.488042
0.488027
0.488043
0.5107
0.508605
0.502574
0.502572
0.517861
0.51788
0.517882
0.500059
0.492879
0.518799
0.518791
0.518838
0.518791
0.518838
0.51082
0.479587
0.479589
0.502286
0.488514
0.473726
0.473144
0.473144
0.477587
0.47759
0.538843
0.54246
0.532982
0.538924
0.538924
0.49847
0.498443
0.498479
0.498444
0.498481
0.531541
0.531542
0.531541
0.524394
0.515999
0.52837
0.547241
0.547237
0.503172
0.503189
0.50318
0.50319
0.503189
0.517711
0.503
0.522776
0.522775
0.507598
0.465556
0.504053
0.548383
0.548375
0.548383
0.548375
0.544516
0.480201
0.512705
0.534945
0.534956
0.53496
0.534976
0.534965
0.472832
0.472833
0.533542
0.514044
0.497848
0.49777
0.473466
0.473469
0.51774
0.517753
0.517747
0.517761
0.517753
0.515801
0.476776
0.494675
0.474051
0.452785
0.452788
0.453126
0.490755
0.521476
0.521475
0.501408
0.487984
0.466031
0.466088
0.466069
0.526669
0.538368
0.538438
0.538701
0.518005
0.518009
0.543494
0.531329
0.565424
0.565419
0.518503
0.53745
0.537435
0.510826
0.470235
0.47022
0.557422
0.557423
0.557422
0.517836
0.536781
0.536786
0.531282
0.533739
0.533758
0.533741
0.505508
0.477162
0.477178
0.477183
0.520892
0.531994
0.531994
0.484089
0.483194
0.483232
0.483208
0.483231
0.483209
0.526316
0.526787
0.526774
0.526335
0.534157
0.487611
0.472549
0.472567
0.472549
0.495686
0.525725
0.544062
0.544034
0.544122
0.544035
0.544122
0.49787
0.530715
0.530718
0.530715
0.52322
0.460298
0.460317
0.460298
0.519941
0.506151
0.506176
0.506162
0.506189
0.50617
0.539857
0.539846
0.539437
0.521318
0.528904
0.528925
0.528903
0.518089
0.495405
0.469168
0.460747
0.445744
0.445747
0.51717
0.491222
0.479186
0.480691
0.480699
0.480705
0.480713
0.515556
0.515565
0.515577
0.4589
0.4589
0.458899
0.534669
0.534668
0.534669
0.475774
0.450865
0.450866
0.450865
0.515383
0.5198
0.464274
0.464273
0.464274
0.495898
0.484433
0.484406
0.484347
0.484406
0.484347
0.484406
0.484391
0.488931
0.534324
0.534368
0.529813
0.491765
0.4518
0.451847
0.4518
0.544334
0.544338
0.544346
0.553195
0.553194
0.506109
0.46997
0.469973
0.469971
0.46997
0.469968
0.483737
0.483736
0.483741
0.520363
0.504982
0.519146
0.483385
0.469684
0.469729
0.469685
0.48172
0.536704
0.536687
0.53672
0.522143
0.50101
0.513225
0.513234
0.496222
0.509664
0.506595
0.482313
0.482331
0.550059
0.523022
0.448783
0.481433
0.481431
0.481428
0.497312
0.536988
0.494409
0.459708
0.488786
0.463945
0.419276
0.419246
0.49646
0.613873
0.59962
0.502644
0.508009
0.477199
0.477235
0.477212
0.526256
0.53843
0.499102
0.498708
0.532188
0.534007
0.534032
0.534007
0.534036
0.530465
0.506855
0.506859
0.530978
0.530961
0.491965
0.491975
0.491997
0.491981
0.492011
0.492012
0.492025
0.513357
0.522074
0.525201
0.525183
0.526184
0.526151
0.526185
0.526151
0.526293
0.489954
0.474253
0.474342
0.492252
0.47112
0.471122
0.483196
0.499763
0.499792
0.49781
0.497818
0.478795
0.478796
0.524326
0.520277
0.391283
0.34794
0.323238
0.323197
0.475289
0.499722
0.60776
0.603284
0.560615
0.461861
0.530121
0.518744
0.494815
0.511105
0.511109
0.511112
0.509761
0.53539
0.535389
0.527254
0.484015
0.440346
0.473218
0.506741
0.506743
0.506744
0.489503
0.510527
0.542557
0.543466
0.541153
0.544397
0.544384
0.491788
0.497852
0.501081
0.469577
0.454814
0.454814
0.533857
0.535868
0.527117
0.522447
0.502317
0.506831
0.50468
0.498085
0.499154
0.454023
0.454026
0.486448
0.509365
0.509366
0.509365
0.466364
0.46636
0.510279
0.560873
0.560871
0.560888
0.560871
0.487066
0.457523
0.457522
0.481725
0.508554
0.460172
0.460176
0.469986
0.469995
0.469986
0.469997
0.477422
0.514521
0.514395
0.488674
0.466013
0.466002
0.507821
0.507825
0.507842
0.507832
0.507847
0.501305
0.513512
0.498605
0.468402
0.468406
0.51789
0.510202
0.522919
0.481527
0.464237
0.503652
0.498501
0.489217
0.500441
0.488967
0.479587
0.502288
0.502304
0.502291
0.502307
0.502293
0.526204
0.526193
0.526228
0.542464
0.542472
0.482769
0.482776
0.491185
0.532796
0.532784
0.532796
0.532784
0.505177
0.528188
0.521855
0.521855
0.521866
0.509506
0.47829
0.471183
0.475934
0.517617
0.517617
0.517616
0.507594
0.507402
0.524103
0.524101
0.521517
0.505829
0.51444
0.514451
0.514445
0.514451
0.537704
0.537705
0.542435
0.524721
0.469921
0.486907
0.525891
0.468586
0.468557
0.523372
0.481985
0.472832
0.531551
0.531543
0.530909
0.530916
0.52718
0.473974
0.503873
0.47246
0.472479
0.47246
0.537
0.474996
0.456848
0.45685
0.486231
0.54194
0.541939
0.54194
0.524536
0.484231
0.482114
0.482116
0.521222
0.466088
0.465997
0.466087
0.466
0.466087
0.502675
0.543485
0.54349
0.543494
0.543498
0.532346
0.476744
0.50079
0.538489
0.538496
0.537429
0.549935
0.549946
0.549957
0.549968
0.458081
0.458112
0.488975
0.52434
0.521278
0.531282
0.482641
0.482653
0.525827
0.510157
0.477145
0.488355
0.488375
0.482065
0.482074
0.482068
0.490888
0.490885
0.500393
0.500432
0.488245
0.522417
0.49301
0.492053
0.492057
0.534149
0.534141
0.501642
0.472571
0.484123
0.53195
0.535501
0.535511
0.53976
0.544052
0.544035
0.54408
0.544035
0.536891
0.499794
0.4998
0.517926
0.523217
0.498336
0.460725
0.460317
0.460309
0.460317
0.514739
0.539841
0.539828
0.539872
0.539846
0.539865
0.489244
0.460421
0.460429
0.46729
0.467301
0.467312
0.501852
0.489584
0.447016
0.445747
0.458914
0.486454
0.479186
0.479186
0.511292
0.505339
0.507207
0.530901
0.495425
0.495425
0.522178
0.522178
0.522178
0.460109
0.459722
0.459724
0.486212
0.534507
0.53457
0.53451
0.53461
0.534511
0.534591
0.522695
0.464274
0.486063
0.486039
0.484406
0.484345
0.484406
0.493567
0.530953
0.536185
0.536199
0.536196
0.536208
0.538457
0.538463
0.492242
0.497523
0.524864
0.524964
0.524873
0.525015
0.550893
0.553195
0.500521
0.472828
0.469982
0.540965
0.570727
0.482298
0.456927
0.456927
0.456927
0.488212
0.477717
0.471943
0.494288
0.480337
0.469729
0.469713
0.536686
0.536711
0.536687
0.536711
0.536687
0.536721
0.536684
0.513258
0.45923
0.459251
0.45923
0.459251
0.482314
0.518409
0.550638
0.550651
0.448724
0.444198
0.444196
0.444203
0.531405
0.574469
0.560415
0.557553
0.52752
0.478806
0.533979
0.544724
0.494073
0.494058
0.482948
0.477223
0.477199
0.477222
0.538412
0.538421
0.53843
0.538435
0.498708
0.498702
0.521088
0.459779
0.459778
0.459778
0.484738
0.530959
0.530969
0.530978
0.530986
0.466728
0.467262
0.5839
0.576555
0.544689
0.569688
0.552076
0.51404
0.477456
0.455404
0.455468
0.455412
0.455469
0.458993
0.505833
0.471836
0.471883
0.51851
0.518581
0.504814
0.492238
0.515534
0.515596
0.515534
0.497018
0.469438
0.507373
0.524324
0.524367
0.524326
0.5244
0.451386
0.385644
0.323233
0.323197
0.323195
0.494777
0.495826
0.507419
0.514429
0.514425
0.535839
0.535838
0.499379
0.478119
0.47834
0.478342
0.478831
0.47883
0.496865
0.521317
0.458618
0.446165
0.440348
0.477718
0.482657
0.50674
0.498523
0.484934
0.510527
0.505264
0.505265
0.535706
0.499627
0.435797
0.452432
0.505194
0.506347
0.520379
0.527079
0.527085
0.527089
0.497014
0.497017
0.52411
0.524112
0.52411
0.470822
0.467294
0.483187
0.47466
0.454022
0.454024
0.454022
0.465406
0.509366
0.509361
0.481658
0.470768
0.481545
0.449163
0.449163
0.452292
0.477104
0.49672
0.496715
0.496726
0.476333
0.444737
0.474224
0.502131
0.512683
0.515379
0.566142
0.566171
0.460703
0.460722
0.478036
0.515165
0.515157
0.499024
0.44412
0.444127
0.444127
0.444127
0.501316
0.513523
0.51357
0.474072
0.512656
0.522919
0.522918
0.522919
0.51694
0.464216
0.454302
0.454302
0.489201
0.489228
0.488973
0.497992
0.454097
0.421331
0.49801
0.50229
0.502305
0.453332
0.528344
0.528319
0.528366
0.542931
0.499376
0.482769
0.495763
0.530803
0.520456
0.527515
0.523536
0.471618
0.471617
0.527205
0.527215
0.527205
0.488448
0.471183
0.471184
0.475938
0.473421
0.442236
0.442239
0.507598
0.483969
0.482368
0.482368
0.512323
0.50583
0.483157
0.501865
0.50041
0.577609
0.577757
0.577747
0.531903
0.468515
0.468586
0.468518
0.468586
0.468542
0.534884
0.534854
0.534919
0.534854
0.513604
0.513578
0.530916
0.485907
0.467757
0.467776
0.467757
0.516322
0.54238
0.542422
0.542382
0.542434
0.542382
0.542433
0.507303
0.513283
0.534153
0.495207
0.46202
0.508871
0.539956
0.586811
0.586816
0.512416
0.466088
0.466071
0.513171
0.513169
0.492188
0.491866
0.491866
0.491866
0.53712
0.518984
0.447114
0.447115
0.536586
0.549902
0.549912
0.549921
0.526418
0.510461
0.46573
0.455181
0.527475
0.532749
0.532749
0.466001
0.466028
0.466032
0.500685
0.50069
0.477146
0.47714
0.456264
0.560667
0.560713
0.54894
0.497793
0.469681
0.46965
0.469683
0.469649
0.500071
0.529418
0.529449
0.529418
0.52947
0.508467
0.508513
0.520243
0.510956
0.498954
0.528769
0.477331
0.466671
0.46663
0.466624
0.495436
0.512032
0.512042
0.524508
0.520504
0.521099
0.490254
0.431276
0.486896
0.542975
0.592573
0.592597
0.570502
0.454831
0.454846
0.454846
0.454846
0.511289
0.543196
0.543231
0.550664
0.551155
0.551153
0.496319
0.490053
0.501849
0.504843
0.504834
0.445744
0.49907
0.499083
0.51129
0.511292
0.51129
0.509006
0.492936
0.53091
0.533047
0.533047
0.494303
0.475273
0.490137
0.539263
0.578178
0.578224
0.488552
0.488599
0.488594
0.488612
0.519932
0.53453
0.534511
0.534561
0.533839
0.478363
0.478363
0.495617
0.504647
0.504643
0.475435
0.459097
0.459099
0.524109
0.536199
0.536196
0.535073
0.538229
0.548569
0.54861
0.497873
0.442845
0.442832
0.534796
0.550889
0.466504
0.428278
0.485378
0.59557
0.595572
0.595585
0.539064
0.539016
0.50736
0.469147
0.488194
0.471943
0.471948
0.524978
0.469738
0.469646
0.46973
0.469646
0.46973
0.524982
0.529848
0.470633
0.497968
0.491468
0.500256
0.487357
0.50675
0.520166
0.512491
0.520183
0.520155
0.497306
0.550666
0.550687
0.559212
0.587647
0.587593
0.587694
0.587593
0.534224
0.478622
0.478627
0.478633
0.461916
0.555825
0.555826
0.555826
0.502157
0.477975
0.477223
0.477199
0.479246
0.479249
0.50111
0.540846
0.540875
0.540847
0.540898
0.530114
0.530129
0.479037
0.462247
0.462248
0.481637
0.460146
0.507676
0.464091
0.418842
0.583968
0.616368
0.616314
0.616406
0.495762
0.486834
0.483895
0.455468
0.455412
0.455468
0.455412
0.501646
0.506492
0.471883
0.471835
0.485555
0.518524
0.518677
0.518296
0.492223
0.491828
0.469467
0.469396
0.469467
0.469413
0.469467
0.517577
0.524389
0.524326
0.480855
0.465404
0.460923
0.325261
0.323155
0.510538
0.596241
0.52692
0.521681
0.521682
0.501417
0.486168
0.487069
0.466173
0.466173
0.484591
0.482553
0.489063
0.457939
0.457947
0.503719
0.503735
0.503719
0.503737
0.480883
0.480907
0.482816
0.484937
0.484955
0.484951
0.50656
0.535701
0.445121
0.435174
0.435159
0.431923
0.431924
0.507454
0.431929
0.518319
0.550992
0.550976
0.531687
0.501429
0.501427
0.517593
0.513761
0.467292
0.476983
0.521786
0.521785
0.497532
0.497534
0.466471
0.466472
0.496196
0.470766
0.470768
0.473277
0.516327
0.516329
0.488351
0.489534
0.489534
0.489536
0.496715
0.479283
0.444708
0.444716
0.444706
0.444732
0.44473
0.556984
0.567735
0.567774
0.556526
0.548146
0.522056
0.477481
0.506638
0.444127
0.444126
0.468652
0.444127
0.444132
0.444133
0.54663
0.546627
0.546627
0.519647
0.499827
0.499828
0.506618
0.492457
0.482516
0.455641
0.484569
0.516881
0.514262
0.508034
0.494778
0.419192
0.395288
0.395288
0.458485
0.395281
0.516935
0.57921
0.579155
0.579235
0.579149
0.520931
0.490739
0.49075
0.479523
0.479224
0.519792
0.475932
0.468531
0.468509
0.468531
0.527215
0.476096
0.471186
0.506492
0.473421
0.473421
0.503036
0.503033
0.472914
0.472917
0.485995
0.521798
0.521793
0.496925
0.425958
0.425995
0.425964
0.425983
0.57702
0.577935
0.562886
0.571252
0.520942
0.468586
0.468526
0.468586
0.468534
0.468589
0.501947
0.488316
0.488286
0.522189
0.522195
0.482453
0.504885
0.512008
0.47539
0.466967
0.467039
0.466971
0.467039
0.467013
0.519998
0.542381
0.440941
0.405858
0.405811
0.405869
0.405836
0.40589
0.405848
0.571247
0.586822
0.586827
0.561728
0.472644
0.472657
0.51318
0.519621
0.519623
0.519626
0.495852
0.495853
0.513394
0.473943
0.447109
0.447109
0.447109
0.492051
0.549912
0.549886
0.494486
0.440942
0.440942
0.440942
0.492326
0.472144
0.46529
0.487895
0.500671
0.500677
0.500686
0.485195
0.440104
0.404409
0.551529
0.560687
0.560714
0.48336
0.469668
0.487841
0.525238
0.525239
0.525238
0.498022
0.485478
0.485483
0.485474
0.485467
0.525988
0.525988
0.525996
0.525997
0.52602
0.501291
0.515805
0.492786
0.466629
0.473973
0.522122
0.532386
0.534116
0.53039
0.527789
0.501365
0.402669
0.472047
0.4355
0.586449
0.592592
0.592598
0.568704
0.548257
0.544988
0.471866
0.471894
0.473502
0.499861
0.511394
0.481484
0.444541
0.444543
0.48796
0.492635
0.492637
0.517018
0.501884
0.483824
0.504043
0.504049
0.505672
0.460892
0.443677
0.443676
0.450655
0.504071
0.485569
0.414958
0.414954
0.414959
0.414967
0.533294
0.582703
0.582776
0.582694
0.582343
0.582313
0.582333
0.501967
0.534516
0.528756
0.487417
0.478363
0.478363
0.490393
0.490391
0.490392
0.490415
0.490414
0.460912
0.453838
0.453839
0.500457
0.5337
0.548565
0.54861
0.548569
0.54861
0.534311
0.442789
0.404984
0.404973
0.404985
0.404991
0.404989
0.581954
0.595583
0.595586
0.572254
0.499313
0.515242
0.525389
0.525367
0.525392
0.52537
0.525472
0.525371
0.525472
0.525371
0.525477
0.484922
0.485029
0.495811
0.468166
0.468258
0.468177
0.468258
0.468233
0.520159
0.520161
0.520179
0.520169
0.406573
0.406548
0.406562
0.406548
0.406565
0.406574
0.575144
0.587602
0.58773
0.587594
0.572659
0.563849
0.534317
0.461873
0.461916
0.461927
0.461938
0.508361
0.508363
0.508364
0.508362
0.508361
0.499506
0.499505
0.536014
0.535902
0.533228
0.540847
0.523217
0.491184
0.462266
0.462248
0.462247
0.473447
0.438758
0.372349
0.372401
0.37246
0.37246
0.615385
0.61642
0.616316
0.616409
0.505319
0.455483
0.455402
0.458921
0.516754
0.516756
0.516762
0.518617
0.518526
0.518617
0.518526
0.51869
0.511744
0.502816
0.540511
0.540568
0.540511
0.476508
0.475314
0.480766
0.469442
0.469476
0.469451
0.48797
0.5243
0.523273
0.439743
0.323155
0.323153
0.47184
0.572265
0.512701
0.468408
0.470484
0.502331
0.485984
0.485984
0.529028
0.529028
0.519566
0.492442
0.529308
0.529304
0.529311
0.478851
0.478858
0.49033
0.4899
0.487622
0.519398
0.444599
0.439025
0.439024
0.503439
0.475112
0.475114
0.47612
0.506314
0.506309
0.431908
0.431922
0.431924
0.431924
0.547603
0.55098
0.551014
0.550976
0.551019
0.550971
0.551
0.537175
0.484925
0.521786
0.521785
0.521785
0.471614
0.471617
0.494624
0.482164
0.46126
0.461262
0.490536
0.486362
0.486359
0.518701
0.518701
0.503996
0.508811
0.508811
0.487223
0.500568
0.469472
0.444707
0.444732
0.444721
0.444732
0.518566
0.567774
0.567728
0.567766
0.567719
0.471857
0.441483
0.507775
0.507775
0.507775
0.473316
0.448431
0.491488
0.492356
0.492331
0.49237
0.515558
0.528457
0.52846
0.528464
0.528467
0.449274
0.448338
0.448338
0.5169
0.516883
0.44851
0.430677
0.426136
0.421466
0.433782
0.395281
0.395281
0.395281
0.578949
0.579174
0.579221
0.510381
0.498803
0.498723
0.520889
0.520887
0.51986
0.476049
0.476068
0.50332
0.526858
0.472963
0.468509
0.468532
0.529166
0.555412
0.545495
0.545494
0.54548
0.492413
0.472391
0.472388
0.501821
0.501821
0.501765
0.504137
0.45162
0.425986
0.425946
0.425978
0.425964
0.577931
0.577954
0.577766
0.577763
0.528959
0.511445
0.498747
0.524863
0.525951
0.468556
0.468604
0.510523
0.510521
0.510518
0.482453
0.482456
0.502821
0.51203
0.51201
0.512056
0.512009
0.489573
0.534083
0.544987
0.54187
0.539094
0.500973
0.480831
0.427281
0.405815
0.405869
0.405847
0.405848
0.526326
0.586833
0.586829
0.551784
0.532424
0.491184
0.472987
0.47299
0.513481
0.545333
0.522917
0.531697
0.531682
0.456984
0.447116
0.466973
0.488619
0.492039
0.486793
0.486807
0.48682
0.501372
0.53816
0.465541
0.465299
0.465289
0.465299
0.46529
0.485028
0.427164
0.404355
0.404379
0.404374
0.404406
0.545674
0.560735
0.507876
0.483336
0.496238
0.485083
0.484696
0.484697
0.512001
0.511994
0.500622
0.497839
0.496009
0.485456
0.468785
0.449086
0.449085
0.449086
0.465316
0.496579
0.536489
0.536641
0.536641
0.497748
0.516278
0.53843
0.539727
0.539729
0.474945
0.4028
0.401949
0.416148
0.385069
0.505372
0.592644
0.59027
0.524406
0.472187
0.464229
0.464227
0.530587
0.537597
0.537593
0.524664
0.508753
0.46285
0.444541
0.449909
0.530284
0.554139
0.554135
0.492662
0.483822
0.483823
0.485649
0.484809
0.483162
0.503736
0.507136
0.507129
0.507136
0.497837
0.424563
0.414941
0.41495
0.414959
0.550889
0.582776
0.582703
0.582783
0.582699
0.529468
0.45866
0.458673
0.47441
0.475296
0.524798
0.555757
0.555758
0.555757
0.555107
0.513432
0.458065
0.458065
0.462903
0.517211
0.519862
0.46142
0.453135
0.448916
0.439505
0.43831
0.438311
0.454127
0.447027
0.439374
0.404985
0.404991
0.432912
0.432889
0.594997
0.595586
0.595598
0.541208
0.49931
0.499313
0.523301
0.461983
0.462063
0.461966
0.462063
0.461967
0.462063
0.471853
0.523718
0.531886
0.531871
0.508613
0.487569
0.468246
0.499948
0.506934
0.510592
0.46936
0.46936
0.46936
0.531399
0.530825
0.456158
0.443322
0.422227
0.406568
0.406559
0.577683
0.587673
0.587593
0.58766
0.584319
0.487498
0.459449
0.459455
0.510533
0.510514
0.510533
0.498933
0.508365
0.508366
0.504392
0.475607
0.495121
0.500952
0.50095
0.478034
0.483243
0.48325
0.520765
0.486886
0.46228
0.48676
0.526153
0.496436
0.39778
0.372361
0.372418
0.372415
0.372469
0.60953
0.616335
0.616455
0.616321
0.616549
0.616335
0.616503
0.490841
0.461554
0.461553
0.461554
0.518527
0.5186
0.489196
0.4734
0.473418
0.502817
0.502812
0.502819
0.540511
0.540568
0.54051
0.540568
0.540503
0.540569
0.540501
0.52165
0.5243
0.524287
0.471109
0.323138
0.323152
0.323118
0.528835
0.470313
0.453101
0.463386
0.502871
0.502335
0.488308
0.524421
0.529028
0.525953
0.502406
0.502407
0.455509
0.455509
0.493038
0.502786
0.506979
0.504569
0.522734
0.532581
0.532575
0.485701
0.511833
0.521434
0.521435
0.509975
0.477341
0.491328
0.491333
0.506314
0.433965
0.431924
0.431924
0.43193
0.550989
0.551009
0.550976
0.495778
0.495723
0.550978
0.550965
0.550986
0.490482
0.495561
0.476803
0.476804
0.48848
0.498274
0.494624
0.494624
0.494623
0.466381
0.490541
0.490542
0.490543
0.5187
0.518701
0.477874
0.472344
0.472345
0.480743
0.500569
0.456368
0.444732
0.444711
0.54792
0.450339
0.567741
0.567739
0.567783
0.567729
0.567786
0.551142
0.441473
0.43491
0.43491
0.477655
0.453209
0.448436
0.452273
0.452277
0.452284
0.515549
0.515552
0.511597
0.505296
0.485345
0.480126
0.480127
0.478053
0.448338
0.516917
0.463379
0.429919
0.429915
0.472472
0.489384
0.449826
0.395285
0.496769
0.409342
0.579155
0.579217
0.579155
0.579228
0.531986
0.474
0.514817
0.520889
0.470528
0.476042
0.533774
0.533774
0.533774
0.532237
0.480797
0.555407
0.555412
0.555407
0.528019
0.480396
0.4804
0.480396
0.50182
0.501842
0.501821
0.501872
0.475107
0.473424
0.473426
0.464956
0.425996
0.425964
0.425983
0.576442
0.577975
0.577994
0.577787
0.516755
0.476971
0.476972
0.527953
0.527948
0.527953
0.521877
0.455162
0.455186
0.45519
0.49406
0.50297
0.456976
0.456982
0.512018
0.51201
0.507365
0.493116
0.53541
0.544978
0.545005
0.544978
0.508991
0.464906
0.464878
0.522064
0.428753
0.42441
0.405848
0.574144
0.586839
0.586833
0.522504
0.522501
0.561197
0.561186
0.561219
0.561186
0.553465
0.519607
0.511221
0.450162
0.447901
0.447897
0.500806
0.507448
0.462408
0.462385
0.508656
0.499929
0.499934
0.538164
0.547359
0.559869
0.55987
0.559869
0.519179
0.510756
0.427394
0.404367
0.404362
0.404398
0.404392
0.543698
0.5607
0.560744
0.560691
0.518702
0.455283
0.500256
0.502419
0.502425
0.488669
0.523881
0.483092
0.482459
0.48246
0.528849
0.528867
0.492451
0.449085
0.503791
0.50976
0.509762
0.52384
0.536641
0.53664
0.517835
0.517835
0.524405
0.521168
0.457105
0.38502
0.385055
0.38506
0.385064
0.566803
0.592648
0.592735
0.592624
0.592753
0.559559
0.512383
0.503656
0.497292
0.455215
0.455267
0.455231
0.455267
0.493457
0.493451
0.479855
0.479842
0.505262
0.503446
0.527483
0.533632
0.533653
0.533632
0.53367
0.520196
0.491606
0.477965
0.475394
0.429242
0.414921
0.414933
0.414942
0.41495
0.562091
0.582719
0.582776
0.582702
0.518668
0.53134
0.532217
0.532233
0.529408
0.483595
0.483615
0.483616
0.483618
0.531225
0.52965
0.483532
0.458065
0.458065
0.458065
0.462585
0.520608
0.520627
0.520658
0.533818
0.533817
0.484931
0.485491
0.527289
0.527282
0.463525
0.40498
0.404985
0.405025
0.405039
0.571803
0.595598
0.595601
0.595601
0.538887
0.520768
0.480223
0.462064
0.462008
0.485418
0.519202
0.523408
0.523408
0.515026
0.501773
0.501774
0.545198
0.54518
0.518539
0.475808
0.475819
0.484822
0.513951
0.533689
0.546603
0.546602
0.546603
0.427338
0.406568
0.406511
0.406568
0.406531
0.406559
0.580503
0.587592
0.587676
0.587564
0.58758
0.587526
0.514556
0.470987
0.496229
0.510525
0.505666
0.482652
0.482656
0.508365
0.503597
0.475601
0.475607
0.476432
0.478043
0.478038
0.548583
0.549516
0.525426
0.552862
0.552911
0.552889
0.552911
0.54456
0.475042
0.444261
0.372414
0.372471
0.372469
0.560599
0.616377
0.616314
0.616453
0.616321
0.616424
0.557753
0.452284
0.468586
0.518522
0.5185
0.518524
0.511042
0.489264
0.496049
0.510403
0.502812
0.502816
0.540492
0.540545
0.52387
0.476886
0.477006
0.476897
0.477006
0.476897
0.477006
0.477001
0.524293
0.450071
0.323141
0.323118
0.323116
0.484243
0.525926
0.479622
0.542084
0.542083
0.482452
0.482453
0.489656
0.496975
0.500904
0.502379
0.48599
0.512011
0.512013
0.512014
0.514523
0.514523
0.478013
0.478012
0.484616
0.52539
0.523597
0.518428
0.466743
0.466744
0.533482
0.533482
0.475829
0.494689
0.494692
0.449296
0.456711
0.514431
0.516456
0.550991
0.512296
0.500754
0.498846
0.544469
0.502574
0.548927
0.550961
0.550972
0.550955
0.550963
0.506245
0.520153
0.520151
0.488241
0.47182
0.471823
0.461028
0.461029
0.471254
0.487114
0.487111
0.518701
0.513318
0.513317
0.513316
0.455983
0.480554
0.480553
0.478886
0.509355
0.556326
0.567737
0.567729
0.567771
0.567729
0.530794
0.469953
0.469957
0.485207
0.538047
0.538674
0.538673
0.503015
0.514535
0.50246
0.482237
0.466317
0.465803
0.465803
0.479861
0.479861
0.518143
0.471651
0.471646
0.471651
0.51816
0.518749
0.518753
0.518758
0.520061
0.520058
0.489373
0.531129
0.531124
0.505903
0.415731
0.555826
0.533498
0.533502
0.569876
0.538184
0.473993
0.469587
0.457964
0.457971
0.45797
0.457973
0.476624
0.513588
0.532238
0.532236
0.500166
0.466554
0.466569
0.538549
0.538549
0.499261
0.508629
0.477819
0.477816
0.477819
0.501821
0.501837
0.501813
0.442383
0.438543
0.506183
0.529818
0.529843
0.571529
0.577705
0.578014
0.506055
0.506087
0.529958
0.500205
0.500223
0.527949
0.473398
0.45393
0.453933
0.494454
0.517929
0.517925
0.517101
0.476441
0.501641
0.511989
0.479194
0.479198
0.506003
0.517307
0.514057
0.542955
0.545
0.513937
0.46699
0.529646
0.535651
0.535659
0.535646
0.585109
0.586839
0.586843
0.558382
0.555408
0.555411
0.505317
0.495655
0.495654
0.534409
0.515147
0.479496
0.4795
0.481271
0.524064
0.524058
0.524103
0.524054
0.468293
0.462406
0.516923
0.548972
0.520985
0.47068
0.47069
0.533223
0.559869
0.55987
0.551449
0.51778
0.497289
0.49733
0.497345
0.472185
0.498207
0.560691
0.560743
0.560691
0.560731
0.528788
0.455257
0.455257
0.455257
0.463786
0.488667
0.528865
0.528892
0.528866
0.528912
0.528867
0.528925
0.51687
0.477175
0.477185
0.493998
0.541581
0.541563
0.502312
0.494634
0.518153
0.524403
0.524403
0.524126
0.486975
0.438265
0.471174
0.47117
0.471168
0.558508
0.534509
0.50227
0.502285
0.528679
0.556503
0.497317
0.476182
0.476185
0.482003
0.489639
0.513368
0.51337
0.50739
0.472541
0.472547
0.524412
0.531132
0.531131
0.531132
0.514035
0.4988
0.533641
0.533632
0.496791
0.496652
0.493951
0.481719
0.481732
0.476833
0.414942
0.41495
0.509464
0.578726
0.578781
0.502978
0.502986
0.502978
0.532216
0.532232
0.532218
0.532234
0.523983
0.500524
0.513086
0.513088
0.51309
0.461219
0.458076
0.458075
0.512703
0.512703
0.512703
0.462585
0.462608
0.496682
0.533817
0.531077
0.456107
0.456107
0.456107
0.524305
0.535674
0.535671
0.535674
0.45356
0.411686
0.530709
0.594773
0.595613
0.595602
0.531474
0.520762
0.529507
0.531517
0.531518
0.519803
0.510186
0.496311
0.49631
0.496311
0.526842
0.545208
0.54518
0.545258
0.54518
0.545277
0.510126
0.480194
0.513952
0.507097
0.460842
0.454014
0.450349
0.450322
0.521917
0.522075
0.522028
0.554049
0.569033
0.587586
0.587664
0.587586
0.587705
0.587563
0.479742
0.45841
0.458411
0.487843
0.487836
0.487842
0.522902
0.486605
0.467027
0.467052
0.487089
0.525831
0.507747
0.536296
0.549542
0.549515
0.549543
0.511059
0.51115
0.511136
0.536136
0.538458
0.474881
0.473189
0.473181
0.491253
0.547041
0.61627
0.616369
0.616289
0.583489
0.583458
0.584339
0.472024
0.450987
0.450988
0.450987
0.479362
0.479358
0.479358
0.479364
0.538137
0.53813
0.538153
0.538144
0.540473
0.5405
0.496295
0.476953
0.477034
0.519925
0.519924
0.519928
0.508376
0.512148
0.512145
0.501491
0.361257
0.323121
0.323116
0.323083
0.468676
0.501766
0.467492
0.471889
0.5435
0.541226
0.48245
0.486825
0.501872
0.501873
0.470253
0.460013
0.499036
0.455251
0.446843
0.492273
0.496789
0.478012
0.525721
0.55058
0.550579
0.540441
0.540438
0.531444
0.502131
0.533481
0.53348
0.474578
0.470308
0.449307
0.449303
0.449307
0.478349
0.478342
0.550993
0.551024
0.550993
0.55103
0.550984
0.490566
0.461414
0.461425
0.491235
0.490331
0.480184
0.481579
0.487824
0.497297
0.525595
0.525608
0.49513
0.501332
0.487156
0.454223
0.454226
0.502189
0.502193
0.499747
0.494875
0.453453
0.453457
0.459717
0.410226
0.399634
0.399646
0.399655
0.399664
0.567732
0.567729
0.567765
0.56772
0.567754
0.53571
0.538484
0.538484
0.495485
0.481869
0.485462
0.538836
0.529885
0.466318
0.466319
0.475881
0.514797
0.520647
0.529907
0.545128
0.496834
0.492607
0.471647
0.471655
0.518748