/*--------------------------------*- C++ -*----------------------------------*\
  =========                 |
  \\      /  F ield         | OpenFOAM: The Open Source CFD Toolbox
   \\    /   O peration     | Website:  https://openfoam.org
    \\  /    A nd           | Version:  7
     \\/     M anipulation  |
\*---------------------------------------------------------------------------*/
FoamFile
{
    version     2.0;
    format      ascii;
    class       surfaceScalarField;
    location    "1000";
    object      alphaPhi;
}
// * * * * * * * * * * * * * * * * * * * * * * * * * * * * * * * * * * * * * //

dimensions      [0 3 -1 0 0 0 0];

internalField   nonuniform List<scalar> 
319200
(
5.38596e-17
6.38691e-17
1.39325e-16
4.1145e-17
9.64916e-17
-2.61416e-17
2.78489e-16
4.67249e-17
3.09598e-16
6.98522e-17
3.47179e-16
6.60153e-17
4.49787e-16
9.82535e-17
6.07475e-16
5.0662e-17
5.74517e-16
-9.72464e-18
7.29463e-16
3.46096e-17
7.5973e-16
4.951e-17
8.43122e-16
-2.13532e-18
8.33704e-16
1.14326e-16
5.54091e-16
1.5383e-16
5.98003e-16
6.3818e-17
6.62123e-16
3.24524e-17
6.47773e-16
1.0416e-16
8.15249e-16
4.36796e-18
1.20862e-15
-5.97838e-17
1.15014e-15
-5.49226e-17
1.16353e-15
-4.01612e-17
1.38776e-15
-2.9432e-17
1.62935e-15
-1.02889e-16
1.70669e-15
-1.25938e-16
1.84573e-15
-2.88345e-17
1.74236e-15
2.20502e-16
1.2978e-15
2.13118e-16
8.25625e-16
1.42192e-16
1.25582e-15
1.49211e-16
9.34784e-16
1.61912e-17
6.62357e-16
-1.01956e-16
9.35758e-16
-1.55633e-16
1.49733e-15
-4.51581e-17
1.90337e-15
4.71104e-17
2.28988e-15
9.60204e-17
2.29129e-15
1.10494e-16
1.52239e-15
-2.71227e-17
2.4681e-15
2.52722e-16
1.13775e-15
3.26128e-16
2.0501e-15
1.22524e-16
1.8611e-15
-7.20296e-17
1.935e-15
-4.62561e-18
2.36283e-15
1.2448e-16
2.07791e-15
1.4276e-16
2.10096e-15
7.11939e-17
1.95362e-15
-1.33211e-17
2.08403e-15
-4.14697e-17
2.12562e-15
4.03679e-17
2.14268e-15
1.58165e-16
2.30244e-15
-7.02885e-17
3.11168e-15
-4.2586e-16
2.6419e-15
-1.1477e-16
3.5909e-15
3.17959e-16
2.56369e-15
3.43589e-17
5.10984e-16
3.17381e-17
4.77019e-16
4.93059e-17
6.6301e-16
6.706e-18
5.0064e-16
1.7705e-16
6.45457e-16
-3.76856e-17
1.55989e-15
-1.78189e-16
8.19342e-16
-5.6981e-18
1.30535e-15
2.81922e-16
1.36359e-16
9.76034e-17
7.05294e-16
5.08561e-17
6.39242e-16
-1.17062e-16
1.43067e-15
-1.23669e-16
1.33053e-15
1.43226e-16
1.14209e-15
3.32354e-16
8.04801e-16
3.7127e-16
8.47539e-16
-1.56627e-16
7.12298e-17
-2.72149e-16
9.96402e-16
-2.01418e-16
-3.35537e-16
-1.1028e-16
6.0375e-16
1.45152e-17
4.68798e-17
6.42581e-17
1.74024e-16
2.83692e-17
1.1647e-16
-4.09864e-17
3.2753e-16
-1.62469e-17
5.44887e-16
6.71619e-18
8.04195e-16
5.41443e-18
1.13271e-15
-1.43494e-16
1.22421e-15
8.46333e-17
8.92343e-16
2.38185e-16
4.65615e-16
3.21364e-16
2.24534e-16
8.25252e-17
5.11236e-16
-2.20194e-16
3.23822e-16
-8.09749e-17
7.48808e-16
-5.63938e-17
7.21645e-16
-1.36846e-16
1.50267e-15
6.78683e-17
8.63511e-16
-1.8427e-16
2.50874e-15
-1.29829e-16
4.72794e-16
-9.84506e-19
4.99202e-16
-1.16165e-17
5.04785e-16
1.29772e-16
5.09218e-16
1.00509e-16
4.12977e-16
1.26672e-16
4.5907e-16
8.93457e-17
4.60211e-16
2.76645e-17
6.30471e-16
2.93241e-17
5.3232e-16
-1.51882e-17
7.38643e-16
-1.37049e-16
7.19487e-16
1.14629e-16
7.36679e-16
6.6556e-17
9.34745e-16
-1.93263e-16
9.16584e-16
-2.42559e-17
7.87173e-16
9.52381e-17
1.5291e-15
-1.18233e-17
2.70566e-16
-1.2928e-16
2.64317e-15
-9.92495e-17
4.80761e-16
-8.92751e-17
1.07724e-15
-1.26095e-16
1.25641e-15
-1.78705e-17
9.74866e-16
1.67019e-16
7.99713e-16
9.55091e-17
6.48734e-16
2.82677e-17
7.92818e-16
7.72983e-18
9.79312e-16
-7.59791e-17
1.10205e-15
1.5442e-16
4.97503e-16
2.56206e-16
6.51359e-16
-8.43926e-17
1.17783e-15
-2.65053e-16
1.41166e-15
-2.46402e-16
1.9096e-15
-2.24581e-16
2.12427e-15
-2.28121e-16
2.12238e-15
-6.35636e-18
1.79751e-15
1.71184e-16
1.35648e-15
2.03274e-16
1.2775e-15
-4.67371e-17
1.1917e-15
-6.61371e-17
1.15278e-15
8.14656e-17
1.23243e-15
9.53584e-17
1.05239e-15
-1.46252e-16
7.80442e-16
-1.5907e-16
7.38329e-16
6.61318e-17
3.32434e-16
4.3454e-16
8.43093e-16
-1.29414e-16
1.11704e-15
-2.4116e-16
1.17279e-15
-2.57434e-17
1.30479e-15
-1.04164e-16
1.41903e-15
-8.07888e-17
1.34945e-15
1.10744e-16
1.36461e-15
3.16911e-17
1.67082e-15
-2.41619e-16
1.80837e-15
-5.1588e-17
1.81468e-15
5.68145e-17
1.17498e-15
5.39809e-17
1.08169e-15
2.83917e-17
1.09874e-15
1.38668e-16
6.46167e-16
3.95544e-16
5.97863e-16
2.41369e-17
8.66021e-16
-3.09397e-16
9.5924e-16
-1.17115e-16
9.05882e-16
1.53895e-17
9.29435e-16
-1.83119e-17
1.61357e-15
-1.21991e-16
1.25609e-15
-3.68152e-16
1.96474e-15
-6.96399e-17
9.19318e-16
6.63448e-17
5.40695e-15
1.34885e-16
7.91901e-16
1.56016e-16
5.84476e-16
-1.2605e-17
3.42394e-16
-1.59756e-16
2.83675e-15
2.79784e-18
1.51603e-15
9.98512e-17
1.46462e-15
1.26035e-16
1.37936e-15
9.49207e-17
1.45764e-15
-1.43376e-17
6.33482e-16
-1.52815e-16
6.67909e-16
-2.15012e-16
5.82993e-16
-1.40155e-16
9.74636e-16
1.37871e-16
1.32888e-15
8.37112e-17
9.43391e-16
7.88795e-17
1.27144e-15
-8.66602e-18
1.27595e-15
4.84425e-17
1.46055e-15
-2.29771e-16
1.79317e-15
-3.94205e-16
1.89493e-15
-1.55483e-16
1.67605e-15
1.71007e-16
1.62845e-15
6.46618e-17
1.77169e-15
-1.09858e-16
1.37964e-15
1.48868e-16
9.02739e-16
2.4718e-16
5.54183e-16
2.96677e-18
4.35464e-16
-1.09383e-16
1.81031e-15
-5.36936e-17
1.37854e-15
3.03228e-17
8.37541e-16
6.15145e-17
3.32086e-16
-4.72682e-17
6.27273e-16
-7.57151e-17
9.391e-16
-1.10266e-16
1.28464e-15
-1.23098e-16
1.51942e-15
-1.61612e-18
1.59186e-15
1.78006e-16
1.65941e-15
9.96443e-17
3.03021e-15
-3.46655e-16
2.09848e-15
-2.17137e-16
2.4136e-15
1.951e-16
1.40104e-15
1.01463e-16
1.7045e-15
1.06324e-16
1.93041e-15
8.30444e-17
2.29536e-15
2.30443e-16
2.04292e-15
4.99511e-16
2.07472e-15
1.80751e-16
1.56008e-15
-1.8467e-16
2.00585e-15
-1.57506e-16
2.6477e-15
-1.72054e-16
2.74386e-15
7.93221e-18
3.12847e-15
-1.05696e-16
3.38982e-15
-7.43509e-17
3.39812e-15
1.84992e-16
3.48704e-15
8.40605e-17
3.65973e-15
-1.70737e-16
3.62741e-15
7.72595e-17
3.40309e-15
1.71248e-16
3.59951e-15
-2.03636e-16
2.19325e-15
-3.03759e-16
4.03621e-15
-1.04843e-16
2.46093e-15
-5.91904e-17
5.90739e-15
5.58969e-16
2.49862e-15
6.02012e-16
2.45008e-15
4.47962e-16
1.78472e-15
2.39903e-16
1.26111e-15
9.52497e-17
5.41074e-16
1.30759e-17
4.71796e-16
-5.13164e-17
1.57864e-15
-3.60919e-17
1.4144e-15
3.67517e-17
1.31274e-15
2.50568e-16
1.11075e-15
1.12727e-16
2.76654e-15
1.98881e-16
7.85646e-16
2.09633e-17
1.7854e-15
-2.66795e-16
8.77485e-16
-2.55159e-16
2.19897e-15
-1.84033e-17
1.01858e-15
1.19526e-16
2.24713e-15
-4.90124e-18
1.20291e-15
-7.38673e-17
2.43608e-15
-2.37909e-17
1.2639e-15
1.83062e-17
1.06489e-15
9.65877e-17
9.14223e-16
-2.11101e-17
9.25594e-16
-1.63853e-16
1.83169e-15
-2.07961e-16
3.50411e-16
-1.66559e-16
2.46443e-15
-1.62002e-16
1.40279e-15
-1.11332e-16
2.51934e-15
2.53233e-16
1.12142e-15
2.41185e-16
2.11836e-15
3.4709e-16
8.20928e-16
4.47628e-16
7.40678e-16
1.45612e-16
1.11022e-15
-2.22315e-16
1.51494e-15
-2.4415e-16
1.81042e-15
-1.75114e-17
1.52799e-15
8.45796e-17
1.85355e-15
-7.81595e-17
2.16352e-15
-2.18694e-16
2.27837e-15
-1.04338e-16
2.08577e-15
3.00008e-16
2.12016e-15
3.77749e-16
1.83219e-15
2.5166e-16
1.60086e-15
1.99324e-16
1.8309e-15
-1.71313e-16
1.94699e-15
-5.801e-17
2.1192e-15
-1.09274e-16
1.88404e-15
-7.10291e-17
1.9731e-15
-7.43513e-17
1.86571e-15
1.17706e-16
1.45475e-15
4.23376e-16
1.35432e-15
9.20115e-18
1.4768e-15
-1.83237e-16
1.51953e-15
-1.34105e-16
1.58652e-15
-1.3014e-16
1.32102e-15
-2.48813e-17
1.36288e-15
-2.64122e-17
1.18638e-15
2.15101e-16
9.65975e-16
1.99184e-16
9.60143e-16
6.51772e-17
1.30982e-15
4.0822e-17
1.19908e-15
1.13177e-17
1.28873e-15
1.78227e-16
9.41467e-16
1.13272e-16
1.10947e-15
-1.03449e-16
1.61735e-15
-3.33097e-16
2.26495e-15
-3.56644e-16
3.22087e-15
-4.18747e-16
3.66343e-15
-2.82044e-16
1.9724e-15
9.34496e-17
1.3938e-15
5.00106e-16
1.11915e-15
3.24446e-16
1.24302e-15
-1.03707e-16
1.41144e-15
-1.55513e-16
1.70502e-15
-2.71367e-16
1.72748e-15
-7.06524e-18
1.49502e-15
2.11776e-16
1.37344e-15
1.06096e-16
1.26278e-15
9.0357e-17
1.026e-15
2.19643e-16
8.30884e-16
4.3616e-17
6.07951e-16
2.84815e-16
7.14152e-16
-6.26153e-17
7.37587e-16
1.1779e-16
1.30002e-15
2.49257e-16
1.67799e-15
1.67115e-16
1.86182e-15
1.25304e-16
2.0848e-15
6.86024e-17
2.71581e-15
-1.74464e-16
1.69865e-15
-1.45293e-16
2.73061e-15
1.72613e-16
2.3974e-15
1.9137e-16
1.86852e-15
2.20164e-16
1.19869e-15
3.04025e-16
1.98701e-15
-8.97711e-17
2.77615e-15
-3.09427e-16
2.75827e-15
-6.35637e-17
2.83021e-15
3.93142e-17
2.13275e-15
-9.09055e-18
2.09627e-15
8.82309e-17
1.84859e-15
7.57177e-17
2.03953e-15
2.18459e-17
1.84511e-15
9.03345e-17
2.082e-15
7.78884e-17
2.16849e-15
-2.04305e-16
2.17761e-15
4.80239e-17
1.9233e-15
3.15203e-16
1.92309e-15
5.67625e-17
1.48088e-15
-1.2102e-16
9.9717e-16
2.22861e-17
1.05394e-15
-7.02224e-17
1.03325e-15
-9.90451e-17
1.42661e-15
3.53077e-17
1.58348e-15
-2.48291e-16
1.90955e-15
-4.18558e-16
2.34248e-15
-3.99926e-16
1.7823e-15
-4.86241e-16
5.7445e-15
-3.35152e-16
2.03814e-15
1.94537e-16
5.36572e-15
6.25518e-16
3.01357e-15
3.25299e-16
5.55155e-15
-5.68289e-18
5.50935e-15
-6.33791e-17
6.97235e-15
-2.97645e-16
5.90307e-15
3.71941e-16
7.22693e-15
7.34787e-16
5.31646e-15
-1.44744e-16
7.74391e-15
6.75537e-17
2.00402e-15
5.01953e-17
2.49502e-15
-1.62594e-16
2.4099e-15
-1.32726e-16
1.80482e-15
-6.60962e-17
1.45114e-15
2.24775e-16
1.40014e-15
1.05639e-16
1.74655e-15
-2.76751e-16
1.97098e-15
-1.5868e-16
8.58459e-16
-4.95484e-17
1.37289e-15
3.61342e-17
7.4371e-16
4.22784e-17
1.07586e-15
1.59324e-16
1.06946e-15
4.76617e-17
1.22191e-15
-1.10526e-16
8.29585e-16
-1.09107e-16
1.2759e-15
-1.29914e-16
1.01997e-15
4.74144e-17
1.96441e-15
5.17165e-17
1.53226e-15
-1.86439e-16
1.05513e-14
-3.86063e-16
2.65915e-15
5.99165e-16
1.98278e-15
5.68335e-16
2.81569e-15
-1.7005e-16
1.43662e-15
-6.25874e-16
4.27545e-15
-7.49267e-16
1.92329e-15
-1.5328e-16
3.35706e-15
3.20815e-16
3.49361e-15
3.73222e-16
1.92555e-15
9.6017e-16
1.67894e-15
1.42216e-16
1.48753e-15
9.54541e-17
8.84057e-16
1.32217e-16
1.24443e-15
1.00732e-16
1.11191e-15
5.67068e-17
1.12437e-15
-8.68239e-17
3.3204e-16
-1.0114e-15
4.9322e-15
-5.64226e-16
4.85031e-16
-2.61501e-17
4.93827e-15
1.14165e-17
-2.41983e-16
4.00112e-16
1.40916e-15
6.4042e-16
1.36906e-15
1.54444e-16
1.36829e-15
-8.82241e-17
1.34443e-15
1.68192e-16
1.58983e-15
-1.13694e-16
1.79284e-15
-2.24535e-16
2.10782e-15
-4.14161e-16
2.83782e-15
-3.03347e-16
7.29187e-15
-1.0844e-16
7.93983e-15
-5.84627e-16
1.06708e-14
-6.10555e-16
1.22689e-16
7.33958e-17
9.86423e-17
-9.30328e-18
3.42345e-17
8.79282e-17
5.00545e-17
1.56976e-16
2.25564e-17
2.43155e-16
2.71282e-17
3.6617e-16
6.10636e-17
3.24705e-16
6.91007e-17
3.01092e-16
7.98881e-18
4.74612e-16
4.43964e-17
6.94452e-16
4.89279e-17
4.08144e-16
3.77323e-17
5.56699e-16
2.45459e-18
5.41858e-16
1.08046e-16
6.26672e-16
2.23204e-16
5.97059e-16
2.05389e-16
5.91514e-16
7.79592e-17
8.41159e-16
-5.05941e-17
6.24376e-16
-1.10461e-16
7.88305e-16
3.22653e-17
6.77168e-16
2.76809e-17
7.86335e-16
2.43913e-17
7.5834e-16
-5.77315e-17
8.12472e-16
-6.79736e-18
7.75253e-16
5.88305e-17
1.02314e-15
3.92385e-17
9.28446e-16
2.47995e-17
5.33315e-17
2.92785e-17
3.60229e-16
1.27134e-16
1.7742e-16
1.51549e-17
-3.11328e-17
-4.61267e-17
1.88719e-16
9.76009e-17
3.40772e-16
7.69391e-17
6.10698e-16
9.1698e-17
1.12452e-15
4.31691e-17
1.36263e-15
-4.89063e-17
8.50885e-16
2.80739e-18
8.24345e-16
3.45779e-17
1.18917e-15
1.23828e-16
2.50964e-15
2.27941e-16
1.41233e-15
1.83082e-17
1.2984e-15
1.11959e-16
1.31548e-15
6.97494e-17
1.25882e-15
1.44214e-16
1.0487e-15
1.87601e-16
1.04876e-15
-9.06589e-17
1.22088e-15
-8.12029e-17
7.13084e-16
1.02552e-16
7.70014e-16
1.08394e-16
9.48284e-16
7.13822e-17
1.05157e-15
9.55754e-18
8.85321e-16
-1.67516e-16
7.57595e-16
-4.7672e-17
1.85011e-16
-4.56491e-17
3.43699e-15
1.01027e-16
8.61896e-16
2.69927e-16
1.06087e-15
2.94137e-16
5.32493e-16
1.93109e-16
5.07457e-16
1.87908e-16
4.79308e-16
-9.80624e-17
3.20453e-16
-1.27101e-16
1.8442e-16
8.12558e-18
2.63788e-16
1.06366e-16
4.13853e-16
3.07052e-17
5.40897e-16
-5.90875e-17
8.49729e-17
7.50089e-17
3.90036e-16
-3.45012e-17
7.38863e-16
-1.98615e-16
1.07683e-15
-1.84428e-16
1.40292e-15
-1.34352e-16
9.17606e-16
1.34664e-16
1.38738e-15
3.3058e-16
3.50716e-16
1.39641e-16
5.84843e-16
1.59509e-16
4.80851e-16
6.30385e-17
1.07007e-15
2.96695e-17
3.86411e-16
5.76344e-17
9.04303e-16
1.88823e-16
8.03587e-16
5.00234e-17
9.12798e-16
-1.03304e-16
6.79635e-16
-8.92311e-17
5.76869e-16
1.13002e-16
7.24941e-16
8.22655e-17
1.05379e-15
-2.07468e-17
1.54535e-15
-1.01718e-16
1.47867e-15
2.23453e-16
9.25333e-16
2.65122e-16
9.02944e-16
3.26919e-16
5.90511e-16
-5.17413e-17
2.03828e-15
-1.61095e-16
1.02924e-16
-2.28088e-16
2.42115e-15
4.37735e-17
3.22984e-16
-2.11987e-16
4.63732e-16
2.08783e-17
5.09999e-16
8.56177e-17
4.19736e-16
2.33433e-16
3.39148e-16
7.86224e-17
3.81176e-16
1.3921e-16
2.01299e-16
-1.88621e-19
3.31894e-16
-3.79157e-17
4.02962e-16
-9.78628e-18
5.98772e-16
5.92804e-17
5.74527e-16
7.15478e-17
1.00726e-15
-2.45389e-16
6.70244e-16
3.21379e-17
9.05982e-16
1.80196e-16
1.13816e-15
-1.24674e-16
1.49935e-15
-1.11886e-16
3.66473e-16
2.45741e-17
1.89563e-15
1.7004e-16
-3.71936e-17
1.36408e-16
1.57402e-15
1.15322e-16
1.01061e-15
6.57962e-17
1.17562e-15
-7.02359e-17
1.39441e-15
3.37439e-18
1.59852e-15
8.10129e-18
7.13987e-16
-9.7728e-18
5.04628e-16
-1.23343e-16
6.08191e-16
-1.46359e-16
1.08514e-15
-2.04688e-16
1.77227e-15
-1.397e-16
1.98422e-15
1.35689e-16
1.16219e-15
2.00772e-16
1.47523e-15
-6.77205e-17
1.03462e-15
-1.38845e-16
1.01615e-15
-1.04502e-16
9.50744e-16
-5.40809e-18
1.23226e-15
1.03564e-16
1.59222e-15
6.71278e-17
1.74186e-15
5.59508e-17
1.86475e-15
2.0081e-16
1.80609e-15
2.20372e-18
2.68208e-15
-5.18495e-16
2.5591e-15
-3.44103e-16
2.74637e-15
1.55572e-16
2.34555e-15
1.836e-16
3.74825e-15
5.98562e-17
1.98844e-15
5.64455e-17
1.42357e-15
3.54227e-16
1.67413e-15
8.39546e-17
1.87122e-15
-4.85393e-17
1.22634e-15
1.06875e-16
1.21366e-15
2.15465e-17
7.68315e-16
-2.1545e-16
8.13921e-16
-2.51563e-17
7.16389e-16
1.67355e-17
7.8059e-16
6.10424e-18
7.56935e-16
5.95162e-17
1.0676e-15
8.01168e-17
1.48796e-15
-7.62407e-17
2.35109e-15
-1.35479e-16
2.34437e-15
-4.12157e-17
1.66752e-15
2.95175e-16
1.2864e-15
2.22334e-16
7.86924e-16
-5.24443e-17
1.51789e-15
-3.23692e-16
8.9666e-16
-1.53547e-16
1.11182e-15
-1.68702e-16
1.11457e-15
-8.1432e-17
1.34097e-15
-1.83819e-16
5.59529e-15
9.59737e-17
1.12997e-15
-6.85037e-17
1.05092e-15
-3.34811e-17
6.13852e-16
1.98027e-16
7.92861e-16
1.12549e-16
1.40764e-15
-1.45166e-16
1.77092e-15
-2.2754e-16
1.85042e-15
9.60773e-17
1.07015e-15
2.31946e-16
2.21217e-16
1.49815e-16
2.41778e-15
2.57683e-16
7.4598e-16
-1.80995e-16
1.76718e-15
2.07125e-17
2.49677e-15
-3.01607e-16
5.79985e-15
-2.12201e-16
2.37374e-15
3.07181e-16
2.10546e-15
1.64252e-16
1.82309e-15
-1.10336e-17
1.64091e-15
-2.55563e-16
1.40573e-15
-9.48792e-17
1.69551e-15
5.74033e-17
2.05409e-15
-7.35316e-17
2.10915e-15
1.06286e-16
2.22905e-15
1.16539e-16
2.26805e-15
-7.23491e-17
2.02995e-15
-1.2688e-16
1.70296e-15
1.59947e-18
4.32068e-16
7.82974e-17
9.98562e-16
7.74986e-17
1.2112e-15
-3.71657e-17
9.53851e-16
3.41552e-16
8.56414e-16
1.53709e-16
8.93122e-16
5.31155e-17
1.34896e-15
-1.09696e-16
1.83583e-15
7.12716e-17
1.80854e-15
2.67084e-16
2.93479e-15
-1.08378e-16
1.78138e-15
-1.01171e-16
2.60914e-15
-9.47343e-17
2.38344e-15
2.8254e-16
2.77844e-15
6.90494e-17
3.0705e-15
1.41576e-16
3.38254e-15
1.26224e-16
4.20805e-15
-1.65616e-16
5.26113e-15
-3.2803e-16
5.29272e-15
2.051e-16
3.66862e-15
4.55871e-16
4.90773e-15
3.96759e-16
3.10787e-15
-1.48553e-16
4.41509e-15
-2.38625e-16
3.11593e-15
1.06447e-16
3.87487e-15
1.56299e-16
4.16151e-15
8.70194e-18
3.6606e-15
3.80893e-18
4.00417e-15
1.05132e-16
4.26179e-15
-5.276e-17
3.95576e-15
-1.27838e-16
3.3757e-15
-4.75989e-17
4.0296e-15
-1.0897e-16
3.05194e-15
4.12103e-17
3.54758e-15
1.93824e-16
4.05765e-15
1.47869e-16
4.67946e-15
1.77099e-16
3.78344e-15
5.09357e-17
6.59975e-15
3.49425e-16
2.2531e-15
1.62699e-17
6.12518e-15
4.25508e-16
1.19431e-15
3.1801e-16
8.71272e-16
2.59989e-16
1.08829e-15
1.50961e-17
1.23373e-15
4.74712e-17
1.60795e-15
-6.80597e-17
2.04697e-15
-4.39175e-16
3.13495e-15
1.04573e-17
1.38859e-15
5.09175e-16
1.76301e-15
1.4478e-16
1.47533e-15
-1.98698e-16
2.76075e-15
-1.03472e-16
1.99161e-15
1.12326e-16
2.74142e-15
2.6014e-16
1.54208e-15
1.2942e-16
2.72453e-15
-1.63636e-16
2.11747e-15
-4.80258e-16
2.4899e-15
-2.6801e-16
2.12182e-15
-3.64945e-17
2.45235e-15
-2.30575e-16
3.78431e-15
-1.71116e-16
2.15977e-15
4.44726e-16
2.60575e-15
6.48872e-16
7.33241e-16
2.05642e-16
1.49622e-15
1.58889e-16
2.03783e-15
1.10162e-16
2.44017e-15
3.75756e-17
2.29744e-15
2.15767e-16
1.6282e-15
3.28367e-16
1.74331e-15
-9.98092e-17
2.1232e-15
-6.83356e-17
2.34288e-15
-2.02086e-16
2.93496e-15
-2.90438e-16
3.22756e-15
-2.02097e-16
3.54028e-15
-2.93617e-17
3.92403e-15
1.57431e-16
3.80283e-15
8.9522e-17
3.57676e-15
9.87108e-17
3.53394e-15
-1.59513e-16
3.46372e-15
-6.996e-17
3.20956e-15
1.9048e-16
3.3849e-15
-2.63088e-16
3.50183e-15
-1.48189e-16
3.30858e-15
1.86848e-16
2.90535e-15
5.61622e-16
2.9753e-15
2.05488e-16
2.90039e-15
2.11437e-16
2.54173e-15
1.16816e-16
2.57549e-15
-9.89595e-17
2.8467e-15
-4.38096e-16
2.82757e-15
-3.2982e-16
2.64726e-15
7.32309e-17
2.54494e-15
4.02292e-16
2.31934e-15
3.62298e-16
2.33687e-15
8.46032e-17
3.18636e-15
-8.56999e-17
2.00742e-15
-3.20557e-16
5.43916e-15
-3.78144e-16
2.50331e-15
1.23894e-17
4.95874e-15
3.35898e-16
2.09939e-15
-6.4341e-17
2.70986e-15
-2.89318e-16
2.85663e-15
-4.16879e-16
3.12051e-15
-4.08405e-16
3.27852e-15
5.96113e-17
3.43475e-15
2.86992e-16
1.67748e-15
-3.09929e-16
3.90653e-15
9.30743e-18
1.09702e-15
2.91254e-16
2.43015e-15
7.3176e-17
2.16721e-15
-9.09992e-17
1.94916e-15
2.94667e-16
1.76675e-15
1.58059e-16
2.2451e-15
-2.76772e-16
2.55788e-15
6.39709e-17
2.90465e-15
2.87191e-16
3.16262e-15
1.06358e-16
3.22496e-15
-5.31298e-17
3.0616e-15
3.50617e-16
3.07621e-15
3.03149e-16
3.25319e-15
5.44406e-17
3.42512e-15
-9.68295e-17
3.5046e-15
5.35353e-17
3.2354e-15
-6.94493e-17
3.76567e-15
-1.91466e-16
3.36118e-15
-8.01585e-17
3.43151e-15
-1.76017e-16
2.3388e-15
-9.1091e-17
4.7653e-15
1.75554e-16
2.01982e-15
4.05357e-16
3.33066e-15
2.97069e-16
3.89921e-15
-6.44303e-17
3.52892e-15
-3.65272e-16
5.15778e-15
-8.6073e-17
3.48264e-15
1.5691e-16
3.46093e-15
1.30112e-16
3.48994e-15
-5.82226e-16
4.76406e-15
-4.83285e-16
2.43521e-15
-1.48501e-17
2.69027e-15
2.20104e-16
3.28481e-15
-2.13893e-16
3.15213e-15
-1.90865e-16
3.40171e-15
2.488e-16
3.09337e-15
5.30112e-16
2.7288e-15
3.93613e-16
2.006e-15
1.66844e-16
1.85221e-15
9.01765e-17
2.26997e-15
-2.14032e-16
2.26465e-15
-4.04721e-17
2.20665e-15
-1.74703e-16
2.48702e-15
-4.23114e-16
2.30319e-15
-4.51972e-16
1.5246e-15
-4.84087e-17
1.57031e-15
2.59307e-16
2.57817e-15
3.11925e-18
4.15841e-15
-8.65158e-17
2.57891e-15
9.0913e-17
3.82981e-15
1.90492e-17
3.65774e-15
4.87456e-17
3.18073e-15
2.42465e-16
2.53601e-15
1.49182e-16
1.54885e-15
-7.95482e-17
2.0289e-15
-3.4818e-16
3.43935e-15
-3.05701e-16
2.16496e-15
2.60916e-17
2.85559e-15
1.15475e-16
2.94084e-15
2.07576e-17
2.9015e-15
-1.17079e-16
3.15216e-15
-1.61123e-16
2.43876e-15
2.04304e-16
2.08402e-15
2.58926e-16
2.47686e-15
1.48727e-16
1.52842e-15
-1.11324e-16
3.07864e-15
-2.74568e-16
2.20653e-15
-2.44435e-16
2.30315e-15
3.18139e-17
1.89116e-15
5.89266e-17
1.84347e-15
-2.97274e-16
2.02729e-15
-6.69044e-16
1.81212e-15
-1.47721e-16
1.90205e-15
-4.40066e-16
2.91223e-15
-2.43472e-16
1.81912e-15
3.85168e-16
2.89749e-15
7.32185e-16
2.93193e-15
4.96049e-16
3.00722e-15
3.12913e-16
2.59003e-15
-2.40568e-16
2.17257e-15
-7.07657e-17
2.17803e-15
-1.63327e-16
1.71133e-15
-2.68373e-16
3.42535e-15
-3.44557e-16
2.9877e-15
-2.20013e-16
4.23867e-15
6.29229e-16
2.36414e-15
5.01608e-16
9.32425e-15
-1.66924e-16
2.29667e-15
-1.94618e-16
3.08965e-15
-1.94669e-16
7.3837e-15
1.20232e-16
3.18373e-15
-9.92757e-16
3.07168e-15
-6.50815e-16
2.7567e-15
-1.16171e-16
2.14946e-15
3.04363e-16
2.35013e-15
6.9411e-17
4.21578e-15
-4.00571e-16
3.155e-15
-2.23733e-16
3.00582e-15
-1.27555e-16
2.98295e-15
-2.70517e-16
2.8617e-15
-1.63464e-17
2.38159e-15
2.44358e-16
3.27081e-15
-4.31897e-16
2.17834e-15
-1.53612e-16
2.52043e-15
3.00628e-16
5.05613e-15
2.46779e-16
5.07223e-15
-5.53086e-16
-2.38299e-16
3.12982e-17
1.43635e-16
4.93416e-18
5.44176e-17
1.23021e-16
1.16929e-16
9.73101e-17
8.77967e-17
9.24093e-17
2.28189e-17
1.01581e-16
6.90341e-18
7.84014e-17
2.10969e-17
1.22289e-16
1.63875e-18
2.21929e-16
1.02686e-17
2.67649e-16
-2.2307e-17
2.3992e-16
3.73564e-17
1.80787e-16
3.65556e-17
1.72032e-16
9.83726e-17
3.99137e-16
1.07475e-16
6.9732e-16
8.98836e-17
3.52428e-16
5.26438e-17
1.99175e-16
4.26058e-17
1.14732e-16
5.13065e-17
2.19701e-16
8.94842e-17
2.34277e-16
8.77467e-17
2.07862e-16
1.18525e-16
1.58178e-16
6.21124e-17
2.81161e-16
5.58868e-17
3.45215e-16
1.31777e-16
3.60256e-16
-4.06969e-17
2.65834e-16
-6.70182e-17
4.34297e-16
3.17721e-17
6.02935e-17
1.33359e-18
-9.39526e-17
3.79737e-18
2.39221e-16
1.56027e-16
2.39945e-16
1.09018e-16
1.53885e-16
1.15767e-16
5.49187e-16
1.11345e-16
4.71895e-16
2.32616e-16
4.23961e-16
9.01923e-17
4.05174e-16
9.66974e-18
1.66448e-16
1.34555e-16
4.29368e-16
2.46738e-16
6.06696e-16
1.80279e-16
4.37194e-16
1.7617e-16
3.40906e-16
-5.00262e-18
3.16566e-16
-3.43091e-17
6.21051e-16
-1.5531e-17
7.91751e-16
-5.76349e-17
9.58471e-16
-4.22865e-18
6.20762e-16
2.0802e-16
6.97652e-16
1.51659e-16
9.27611e-16
1.05607e-17
1.14866e-15
-7.3864e-17
1.18886e-15
1.61588e-16
4.44287e-16
2.08148e-16
4.42606e-16
1.52032e-17
4.40694e-16
3.3299e-18
5.41699e-16
1.82561e-17
1.75256e-15
-4.82043e-17
1.50385e-15
-1.31196e-16
2.67349e-15
7.68058e-17
1.58443e-15
-3.81379e-18
1.06032e-15
1.87743e-16
8.02887e-16
2.68388e-16
6.2361e-16
1.41194e-16
7.88121e-16
-4.40933e-17
7.88799e-16
1.24327e-17
1.03431e-15
7.10019e-17
1.59528e-15
2.4433e-17
1.11136e-15
1.2643e-16
1.28241e-15
1.21502e-16
8.66663e-16
1.94449e-18
8.3306e-16
7.03439e-18
8.51552e-16
-4.64838e-17
1.21613e-15
-1.30896e-16
1.60012e-15
1.43366e-17
9.04391e-16
2.70945e-16
1.08593e-15
3.52054e-16
7.72366e-16
-2.03764e-17
9.34386e-16
-1.18832e-16
6.41295e-16
-1.41456e-16
1.67566e-15
-7.04691e-17
8.4628e-16
6.90805e-17
7.26292e-16
1.72302e-16
2.82738e-16
3.42106e-18
1.42355e-15
-6.72031e-17
1.37166e-15
1.5284e-17
9.03061e-16
2.60088e-16
1.03626e-15
1.5499e-16
1.18562e-15
1.85387e-16
1.54437e-15
1.30312e-16
1.07273e-15
7.15925e-17
1.14049e-15
1.64903e-16
1.14817e-15
3.79101e-17
2.33789e-15
-4.29594e-17
1.17661e-15
-5.23759e-17
1.03943e-15
-2.56835e-17
1.29592e-15
8.58912e-17
1.34196e-15
2.93765e-16
1.43334e-15
1.19819e-16
1.10128e-15
-1.3163e-16
1.62266e-15
1.6767e-16
6.17009e-16
2.93041e-16
1.08205e-15
7.04952e-17
8.41952e-16
-2.93229e-16
2.75905e-15
-2.3825e-17
1.3618e-15
-1.02135e-16
1.45531e-15
-5.24245e-17
1.28596e-15
2.82552e-17
1.31933e-15
8.96933e-17
9.70247e-16
-5.98736e-17
1.33372e-15
-8.36576e-17
1.14065e-15
-7.13134e-17
1.82083e-15
1.15949e-16
1.17758e-15
3.47467e-16
2.28149e-15
3.98067e-16
9.82313e-16
4.9016e-17
1.36435e-15
-1.2421e-16
2.05057e-15
-9.23146e-17
1.59535e-15
2.35562e-17
1.08137e-15
-5.65786e-17
1.01719e-15
-7.98326e-17
1.27976e-15
-6.30459e-17
1.14596e-15
1.5587e-17
1.40024e-15
1.00711e-16
1.61357e-15
8.94513e-17
1.56941e-15
3.95475e-17
1.44064e-15
9.31975e-17
1.47052e-15
9.73003e-18
1.64999e-15
-1.70503e-18
1.98759e-15
-1.21895e-16
2.30483e-15
-8.84114e-17
1.90804e-15
1.31002e-17
2.11074e-15
-5.5569e-17
2.58666e-15
-1.87744e-16
1.63177e-15
-6.9115e-17
1.77415e-15
-1.45267e-16
1.44646e-15
5.02112e-17
1.94711e-15
-2.20902e-17
1.85479e-15
9.93245e-17
1.29505e-15
1.73855e-16
1.32169e-15
1.27601e-16
1.2447e-15
2.64149e-16
1.57813e-15
-2.92935e-16
2.26591e-15
-4.37726e-16
-5.17747e-17
-2.03729e-16
1.63484e-15
2.54373e-16
1.47567e-15
1.83499e-16
9.19635e-16
2.16665e-16
8.56412e-16
4.32324e-17
1.27204e-15
-8.64332e-17
1.42483e-15
9.84662e-17
1.53611e-15
2.31465e-16
1.77202e-15
-7.24163e-17
1.12944e-15
-1.6035e-16
1.42064e-15
-1.731e-16
1.56346e-15
-5.3478e-16
2.85661e-15
-2.38708e-16
1.21554e-15
3.61906e-16
1.58537e-15
2.81015e-16
1.55806e-15
-1.04761e-16
1.64736e-15
-1.79552e-16
1.23682e-15
-8.72634e-17
1.43568e-15
-1.55324e-16
1.5371e-15
-1.12331e-16
1.55625e-15
1.07058e-17
1.73888e-15
1.1653e-16
1.9017e-15
1.01903e-17
1.8057e-15
-9.5474e-17
1.72785e-15
-1.35919e-16
1.70054e-15
-2.46052e-17
1.69316e-15
9.92989e-17
3.9028e-15
7.06105e-17
5.97077e-16
-1.21692e-16
4.84203e-15
7.05686e-17
2.79762e-16
1.38933e-16
3.82455e-15
3.00968e-16
2.45373e-15
-7.26502e-17
3.35163e-15
-2.1541e-16
3.6023e-15
-2.56083e-16
3.37435e-15
2.90341e-17
2.74491e-15
1.95829e-16
2.32637e-15
1.67227e-16
1.98579e-15
4.49353e-17
1.68516e-15
-1.41247e-17
2.33698e-15
-1.44157e-16
2.38629e-15
-1.98828e-16
2.29656e-15
-2.71545e-16
2.18671e-15
-3.46306e-16
2.01868e-15
-2.52318e-16
1.79933e-15
-1.22985e-16
1.48024e-15
-5.20194e-17
8.01665e-16
1.81971e-16
1.35762e-15
2.00004e-16
1.65185e-15
2.2211e-16
2.09939e-15
-2.36605e-17
2.21916e-15
-8.44074e-17
2.53619e-15
-2.43841e-17
3.02426e-15
-1.56315e-16
2.85553e-15
-4.74356e-17
2.91489e-15
-6.73827e-17
3.11979e-15
1.45032e-16
3.45647e-15
1.69213e-16
3.73158e-15
1.01846e-16
4.88914e-15
-8.25751e-17
4.07444e-15
-4.91644e-17
4.36408e-15
-4.95527e-17
3.63641e-15
-3.33371e-17
3.92733e-15
1.63826e-16
4.53477e-15
3.44322e-16
4.9904e-15
1.75747e-16
6.64136e-15
3.18732e-16
4.43138e-15
1.50583e-16
4.33935e-15
2.01085e-16
4.47398e-15
4.26065e-17
4.12276e-15
-1.30331e-16
4.34013e-15
-2.1419e-17
4.32707e-15
-2.38324e-17
4.18383e-15
-1.20748e-16
4.89217e-15
-3.39799e-17
4.28633e-15
-1.1723e-17
3.61578e-15
3.31285e-17
4.08508e-15
8.95138e-17
4.26467e-15
8.42693e-17
3.88815e-15
1.05694e-16
3.69578e-15
-4.11537e-17
3.82845e-15
-1.10747e-16
3.46495e-15
-1.44967e-16
5.0923e-15
2.19576e-16
3.11996e-15
1.27369e-16
5.34688e-15
3.03223e-16
3.67417e-15
8.6545e-17
3.14925e-15
3.14694e-16
2.56882e-15
3.63165e-16
2.66621e-15
-4.82606e-17
4.17111e-15
-8.53626e-17
2.42163e-15
-1.94048e-16
3.40356e-15
-2.59051e-16
3.10812e-15
2.96846e-17
3.01345e-15
3.23245e-16
2.42608e-15
1.65157e-16
2.94814e-15
-1.33694e-16
2.21642e-15
-4.21542e-16
4.11574e-15
-4.25555e-16
2.08029e-15
-3.06848e-16
3.25349e-15
-3.79264e-16
2.26937e-15
-2.88625e-16
1.78266e-15
-1.1778e-16
1.44572e-15
6.39285e-18
1.0781e-15
-2.15591e-16
1.8675e-15
2.79642e-16
2.61052e-15
4.742e-16
3.05367e-15
2.60216e-16
3.39728e-15
1.83986e-16
3.36841e-15
1.7634e-16
3.27067e-15
2.21641e-16
2.8027e-15
5.55023e-16
3.08215e-15
1.0728e-16
3.27972e-15
-2.1732e-16
3.11575e-15
2.26598e-17
3.06732e-15
-1.79794e-16
3.05096e-15
-3.35044e-16
3.20731e-15
1.05932e-17
3.68315e-15
9.54816e-18
4.15357e-15
-4.39865e-17
3.96236e-15
-2.78192e-16
3.82966e-15
-2.78573e-16
4.02555e-15
-3.00468e-16
4.08101e-15
-7.46483e-17
4.04696e-15
2.80773e-16
3.41146e-15
1.86015e-16
3.35764e-15
-1.35015e-16
3.03527e-15
4.66912e-16
3.69848e-15
3.41206e-16
4.60097e-15
-2.9131e-16
2.24741e-15
-4.22613e-16
6.9003e-15
1.65159e-16
2.25531e-15
-2.60895e-16
7.2735e-15
-2.32189e-16
3.54663e-15
-3.21064e-16
2.38034e-15
2.1201e-16
2.23518e-15
4.7369e-16
3.21018e-15
1.33286e-16
6.71304e-15
-8.98729e-17
4.06898e-15
-1.35053e-16
6.84464e-15
1.46848e-16
3.40292e-15
3.74835e-16
3.78885e-15
1.19246e-16
4.52707e-15
-7.77422e-17
4.81033e-15
-5.05398e-17
4.04826e-15
-7.53436e-17
3.98217e-15
-1.89286e-16
3.70839e-15
-7.02618e-16
4.99108e-15
-9.00683e-16
4.99371e-15
1.73168e-17
3.23431e-15
1.97404e-16
2.9981e-15
2.80434e-17
4.23246e-15
2.40478e-18
-6.91064e-16
-1.1274e-16
7.14372e-15
1.11931e-16
2.41341e-15
3.52321e-16
2.97722e-15
-1.12088e-16
2.81681e-15
4.68474e-17
1.94455e-15
3.16103e-16
2.88329e-15
2.08711e-18
3.31904e-15
-2.22054e-16
4.10959e-15
-5.11998e-16
4.13027e-15
-7.80204e-17
3.93001e-15
2.27111e-16
3.70234e-15
2.84274e-16
3.64738e-15
-4.38516e-17
3.64717e-15
5.26026e-17
4.86858e-15
-1.0309e-16
3.00196e-15
-7.9011e-17
2.99922e-15
4.68788e-17
3.12373e-15
-9.50987e-17
5.22832e-15
2.70814e-16
3.1241e-15
1.49075e-16
4.01602e-15
1.52114e-16
5.12724e-15
-9.29399e-17
4.00421e-15
-1.13014e-16
4.71756e-15
6.39819e-17
3.69017e-15
-1.51803e-16
5.94573e-15
-4.44176e-16
4.68411e-15
-3.73425e-16
6.10621e-15
-1.39897e-16
3.4149e-15
-6.03231e-18
4.41464e-15
7.28091e-17
3.59853e-15
1.19258e-16
4.31867e-15
9.67861e-17
3.01351e-15
1.50501e-16
3.32572e-15
2.80735e-16
4.04459e-15
7.03872e-18
4.42481e-15
1.25078e-17
3.60032e-15
3.78147e-16
4.42568e-15
1.72981e-16
3.56391e-15
-1.2088e-16
3.9388e-15
-4.41631e-16
3.28509e-15
-4.17504e-16
3.54087e-15
-5.82983e-16
3.18067e-15
-9.85313e-16
2.85436e-15
-4.57049e-16
2.66644e-15
8.3826e-18
2.37284e-15
3.06373e-16
2.34687e-15
7.13601e-17
2.81911e-15
-1.20683e-16
1.59885e-15
1.0682e-16
1.95844e-15
3.28922e-16
3.01505e-15
-2.49652e-16
5.03515e-15
-2.70284e-16
3.45416e-15
3.41895e-16
4.0218e-15
1.11099e-16
3.18422e-15
-3.06474e-16
3.21951e-15
-3.26048e-16
3.50038e-15
-4.22466e-16
3.67181e-15
-5.27897e-16
3.3829e-15
-8.77619e-17
2.77141e-15
1.8947e-16
3.21038e-15
-4.21143e-18
3.3722e-15
-2.18415e-16
3.515e-15
-1.43703e-17
3.09649e-15
3.07281e-16
2.64922e-15
1.78808e-16
2.91235e-15
-3.61521e-16
3.1843e-15
-5.82929e-16
3.31143e-15
-4.40481e-16
2.71383e-15
-1.05457e-16
1.51359e-15
1.49336e-16
1.21192e-15
1.10712e-16
1.67711e-15
-5.47396e-16
3.20144e-15
-1.39886e-15
2.59554e-15
2.16714e-17
2.22627e-15
1.17836e-16
1.29935e-15
-2.82672e-16
4.70642e-16
-2.5993e-16
4.86693e-16
1.08025e-17
5.37454e-16
5.83665e-17
3.50689e-15
3.60705e-17
7.51231e-17
-9.85786e-17
2.15584e-15
1.46227e-16
1.1041e-15
-9.2286e-17
1.55607e-15
3.02462e-16
1.98901e-15
4.14906e-16
4.11106e-15
8.67663e-18
2.34118e-15
-3.7008e-16
2.65172e-15
-5.95425e-17
5.70344e-16
-1.15703e-15
2.56723e-15
-5.87994e-16
2.24291e-15
-5.51371e-16
3.00464e-15
-4.17607e-16
5.07792e-16
-1.88255e-16
3.77609e-15
-1.11746e-16
3.11705e-16
-4.03741e-17
1.45632e-15
-3.59618e-17
2.16375e-15
-6.93637e-16
4.58217e-15
-5.43335e-16
2.62304e-15
-1.61653e-16
4.79571e-15
5.2583e-17
6.53718e-16
4.76851e-18
1.83596e-15
1.50127e-16
5.11136e-15
4.27946e-17
5.38126e-15
-1.16394e-17
6.45459e-15
2.95112e-16
2.12832e-16
4.51311e-17
1.80058e-16
-1.71626e-19
6.20156e-17
-2.22046e-17
-5.34081e-17
-2.50791e-17
-3.2662e-17
-1.0233e-16
-2.45432e-17
4.94202e-17
2.80891e-17
1.63448e-16
5.851e-17
-2.25487e-17
-1.24396e-17
-9.07499e-18
1.1336e-17
9.01108e-17
4.5217e-17