/*--------------------------------*- C++ -*----------------------------------*\
  =========                 |
  \\      /  F ield         | OpenFOAM: The Open Source CFD Toolbox
   \\    /   O peration     | Website:  https://openfoam.org
    \\  /    A nd           | Version:  7
     \\/     M anipulation  |
\*---------------------------------------------------------------------------*/
FoamFile
{
    version     2.0;
    format      ascii;
    class       volScalarField;
    location    "1000";
    object      epss;
}
// * * * * * * * * * * * * * * * * * * * * * * * * * * * * * * * * * * * * * //

dimensions      [0 0 0 0 0 0 0];

internalField   nonuniform List<scalar> 
160000
(
0.550686
0.516791
0.541077
0.501926
0.470622
0.543971
0.478859
0.553878
0.523302
0.451542
0.481807
0.521583
0.458489
0.466157
0.572668
0.531746
0.564536
0.558944
0.483953
0.491868
0.507325
0.525258
0.502806
0.464573
0.487704
0.455529
0.453209
0.501512
0.481158
0.53948
0.541696
0.493927
0.414277
0.487453
0.504308
0.47742
0.466349
0.425646
0.555512
0.504231
0.504325
0.505576
0.474675
0.535851
0.471233
0.475409
0.492387
0.5492
0.48426
0.539143
0.499494
0.418899
0.464163
0.495955
0.430298
0.540461
0.434063
0.560252
0.575193
0.534764
0.384131
0.514995
0.517882
0.54247
0.57185
0.435266
0.480878
0.45615
0.590689
0.655494
0.438579
0.559439
0.454539
0.530958
0.476552
0.502502
0.468018
0.5136
0.440586
0.498924
0.434483
0.406814
0.476611
0.501751
0.505601
0.520832
0.520511
0.564818
0.521036
0.470351
0.569004
0.440791
0.425707
0.446267
0.483327
0.556709
0.493618
0.526043
0.520376
0.564785
0.501163
0.596847
0.455545
0.522662
0.575088
0.485214
0.582226
0.490541
0.472329
0.477923
0.44573
0.565499
0.429485
0.515305
0.52578
0.490465
0.546647
0.50705
0.441221
0.485503
0.511896
0.549991
0.476914
0.464256
0.440174
0.381918
0.429101
0.523564
0.475827
0.479451
0.514844
0.523539
0.462577
0.401713
0.477301
0.485613
0.538121
0.508279
0.550007
0.582555
0.470142
0.449934
0.617728
0.484399
0.421541
0.496134
0.477333
0.485573
0.499881
0.547894
0.576718
0.519075
0.566907
0.473012
0.589237
0.496883
0.498767
0.429331
0.47733
0.455969
0.524635
0.503975
0.543269
0.452814
0.581026
0.465894
0.478858
0.542364
0.508214
0.554664
0.444543
0.423266
0.521615
0.386229
0.470341
0.533253
0.498376
0.49287
0.405115
0.431476
0.579177
0.435045
0.538727
0.564053
0.558011
0.552757
0.535749
0.545201
0.57735
0.513066
0.501305
0.542631
0.493852
0.470923
0.431134
0.620161
0.49554
0.427965
0.447244
0.420116
0.429081
0.481892
0.471482
0.48556
0.482715
0.468347
0.541285
0.48522
0.459181
0.483451
0.456657
0.455847
0.520699
0.501791
0.449086
0.500291
0.540968
0.439283
0.415824
0.463397
0.413446
0.470897
0.543584
0.518802
0.523377
0.525527
0.489598
0.589931
0.487839
0.545832
0.641401
0.507842
0.561301
0.516844
0.52239
0.48067
0.565481
0.496359
0.570043
0.493465
0.5295
0.541033
0.509535
0.561097
0.497837
0.508634
0.490428
0.514824
0.426827
0.501804
0.448183
0.479652
0.561386
0.578571
0.55024
0.47638
0.5342
0.568753
0.502371
0.394894
0.414233
0.498404
0.507094
0.562519
0.509392
0.492384
0.47433
0.513576
0.477488
0.428987
0.572533
0.537163
0.518505
0.525115
0.513588
0.521292
0.479822
0.449313
0.562734
0.503745
0.536175
0.509607
0.506719
0.509767
0.528264
0.546663
0.452624
0.534062
0.4339
0.446188
0.472665
0.610258
0.523945
0.519776
0.473085
0.448893
0.467676
0.607564
0.476998
0.565685
0.519286
0.511468
0.427979
0.441599
0.456058
0.516875
0.47925
0.510465
0.538183
0.450704
0.485601
0.527321
0.490168
0.467663
0.567295
0.488755
0.469755
0.522706
0.491582
0.48645
0.553313
0.503467
0.51277
0.458796
0.521623
0.484941
0.449874
0.489902
0.524141
0.502106
0.55559
0.514553
0.540422
0.500301
0.513446
0.496496
0.468524
0.452602
0.380659
0.519742
0.592452
0.524267
0.51616
0.560911
0.434928
0.582961
0.547721
0.494563
0.502766
0.467383
0.479182
0.51131
0.43809
0.535889
0.504818
0.509075
0.473434
0.512932
0.516922
0.546924
0.519647
0.51423
0.481089
0.531614
0.465335
0.480005
0.52049
0.362297
0.455598
0.526377
0.547809
0.494837
0.491077
0.369945
0.54464
0.411245
0.521198
0.518186
0.559394
0.541419
0.534076
0.536691
0.539443
0.492546
0.471945
0.464267
0.447737
0.458249
0.497999
0.520147
0.492662
0.521959
0.4785
0.508471
0.559144
0.434267
0.483432
0.598899
0.404053
0.45843
0.422769
0.570791
0.513429
0.549499
0.563959
0.534825
0.483742
0.515468
0.509505
0.495384
0.480504
0.530899
0.512296
0.493943
0.450389
0.545985
0.539903
0.415724
0.429939
0.474741
0.530921
0.511483
0.467105
0.471075
0.568049
0.511805
0.405048
0.427068
0.500117
0.453335
0.484841
0.52758
0.500351
0.528413
0.561742
0.466098
0.4274
0.651027
0.473942
0.424076
0.499369
0.542677
0.474388
0.564073
0.47175
0.42594
0.501518
0.563962
0.491371
0.440614
0.525733
0.489718
0.524719
0.396718
0.591725
0.489988
0.469826
0.546945
0.519323
0.515201
0.507988
0.482413
0.544068
0.551292
0.494543
0.513908
0.566768
0.444987
0.457152
0.41244
0.429806
0.477027
0.569744
0.509111
0.521906
0.473118
0.524197
0.517705
0.528644
0.447776
0.471824
0.499473
0.491498
0.492344
0.401013
0.409341
0.544674
0.519463
0.506802
0.465549
0.441583
0.484328
0.404666
0.45223
0.538816
0.47233
0.504674
0.476612
0.490748
0.551332
0.467454
0.505126
0.563914
0.402266
0.48625
0.546439
0.462949
0.440649
0.486553
0.468912
0.489609
0.571125
0.529432
0.540749
0.512489
0.500356
0.500918
0.48166
0.474369
0.412866
0.429365
0.510877
0.501666
0.504095
0.513503
0.488478
0.497061
0.536878
0.477877
0.525861
0.527487
0.618052
0.388144
0.401849
0.459985
0.560305
0.374874
0.539914
0.566812
0.524547
0.478767
0.450214
0.47515
0.458062
0.459671
0.556652
0.478757
0.519264
0.523787
0.566005
0.414508
0.580274
0.548634
0.505262
0.51169
0.459386
0.530337
0.461393
0.550444
0.461982
0.487784
0.456045
0.505212
0.520408
0.532635
0.472869
0.423425
0.511926
0.481055
0.515691
0.52069
0.523672
0.592201
0.392013
0.512209
0.464977
0.477131
0.522943
0.477815
0.512066
0.524657
0.483001
0.53889
0.594735
0.468464
0.509836
0.507063
0.577581
0.514039
0.435147
0.437145
0.475527
0.50825
0.413422
0.495214
0.440902
0.439889
0.422683
0.432691
0.456413
0.44668
0.50531
0.495976
0.451139
0.370685
0.420176
0.50654
0.497714
0.506839
0.462217
0.533247
0.537415
0.477423
0.497535
0.543881
0.490015
0.499162
0.487322
0.482605
0.548453
0.531286
0.594315
0.492144
0.522359
0.455378
0.478457
0.441002
0.545628
0.466593
0.516942
0.502438
0.511973
0.401769
0.438267
0.570154
0.520303
0.506135
0.489595
0.5614
0.512772
0.567207
0.544607
0.441683
0.469822
0.587454
0.430393
0.442844
0.459871
0.447841
0.434448
0.472065
0.442829
0.421164
0.544095
0.511272
0.461534
0.554586
0.463883
0.461031
0.452983
0.579716
0.50023
0.498085
0.506374
0.443056
0.470567
0.620669
0.473389
0.396039
0.461199
0.544028
0.460779
0.507456
0.57923
0.508069
0.498744
0.427062
0.490631
0.556236
0.529298
0.495359
0.504891
0.475108
0.442427
0.472497
0.509107
0.533511
0.546288
0.515196
0.477644
0.542309
0.486011
0.471265
0.469204
0.621732
0.484984
0.465007
0.512063
0.501399
0.424737
0.512142
0.446079
0.499255
0.51665
0.523352
0.552148
0.526409
0.496005
0.567704
0.482055
0.529268
0.509414
0.467543
0.462949
0.464675
0.546613
0.599066
0.531671
0.490398
0.500736
0.505667
0.538912
0.458967
0.385529
0.468378
0.490905
0.417973
0.39511
0.530147
0.49789
0.452486
0.533583
0.550016
0.453252
0.502187
0.527919
0.468574
0.456891
0.509636
0.510932
0.508075
0.464292
0.521536
0.509817
0.508303
0.485029
0.556073
0.524355
0.527305
0.496838
0.568522
0.502337
0.51122
0.444971
0.543729
0.529253
0.513882
0.525217
0.543473
0.527168
0.521705
0.484254
0.509879
0.508392
0.433187
0.487294
0.437011
0.43497
0.530394
0.531291
0.537487
0.587688
0.526615
0.555178
0.484338
0.566165
0.486451
0.46062
0.534859
0.502009
0.449372
0.613237
0.410415
0.527363
0.589517
0.460662
0.522021
0.543181
0.503567
0.453042
0.540528
0.486784
0.454414
0.522818
0.545787
0.436815
0.587718
0.500894
0.570822
0.468985
0.592881
0.610366
0.481076
0.579542
0.452307
0.588785
0.51322
0.460016
0.55553
0.461175
0.411212
0.473278
0.52336
0.453241
0.400438
0.480203
0.404963
0.452185
0.529927
0.459689
0.510817
0.493636
0.539284
0.567238
0.555665
0.521169
0.503772
0.497084
0.401971
0.498162
0.517709
0.47918
0.484933
0.472214
0.571693
0.526161
0.499267
0.535728
0.539111
0.521884
0.495595
0.499084
0.498502
0.51573
0.400525
0.542725
0.561363
0.554985
0.480511
0.410119
0.503347
0.552666
0.543493
0.51373
0.483695
0.48033
0.414399
0.44879
0.399041
0.536606
0.527642
0.515272
0.453128
0.565737
0.543465
0.454333
0.561202
0.562863
0.611369
0.508187
0.603573
0.463868
0.494494
0.598059
0.550521
0.499089
0.499855
0.466513
0.417539
0.501465
0.460061
0.452216
0.452071
0.549223
0.47266
0.529496
0.457946
0.463037
0.54435
0.566451
0.467279
0.541509
0.585841
0.504448
0.593982
0.602487
0.529175
0.514812
0.503
0.538621
0.544165
0.46506
0.538322
0.4881
0.449715
0.504981
0.509931
0.561821
0.501173
0.456721
0.523399
0.495659
0.533567
0.574139
0.48773
0.533756
0.505745
0.490373
0.509874
0.520928
0.556356
0.543232
0.518983
0.539429
0.552774
0.542007
0.565331
0.508401
0.512114
0.562388
0.509904
0.441104
0.453058
0.505529
0.486469
0.517212
0.486639
0.474494
0.528881
0.522688
0.463095
0.366593
0.488518
0.473274
0.433168
0.517267
0.510732
0.498999
0.505298
0.537849
0.465672
0.534884
0.504787
0.402932
0.431278
0.5661
0.477752
0.514758
0.527705
0.5322
0.573962
0.483018
0.512373
0.506423
0.510007
0.501409
0.494844
0.518804
0.4758
0.449672
0.478507
0.461081
0.498978
0.561705
0.617036
0.491883
0.44392
0.467317
0.536118
0.507935
0.552041
0.580505
0.531747
0.492014
0.524657
0.497849
0.501741
0.467306
0.45388
0.411863
0.48457
0.510543
0.47964
0.471961
0.473377
0.418098
0.491701
0.477896
0.459346
0.527052
0.498365
0.472593
0.477854
0.482162
0.536094
0.496846
0.582439
0.474782
0.500109
0.56986
0.55188
0.48914
0.510557
0.573712
0.519898
0.504453
0.494669
0.537634
0.555001
0.53018
0.484118
0.494964
0.510744
0.471022
0.494147
0.466933
0.528591
0.479094
0.436686
0.540923
0.5588
0.506771
0.467768
0.559164
0.451493
0.480767
0.575013
0.560041
0.529489
0.449112
0.449233
0.478659
0.422103
0.4925
0.450257
0.511209
0.42269
0.474233
0.54215
0.504726
0.498422
0.500653
0.505034
0.540583
0.517051
0.514756
0.552385
0.502268
0.511328
0.551486
0.512964
0.474148
0.535551
0.47835
0.487822
0.465954
0.472681
0.471643
0.54883
0.574061
0.551501
0.482137
0.491509
0.482761
0.440562
0.507351
0.413754
0.476059
0.549819
0.450065
0.521508
0.42841
0.522722
0.5227
0.579326
0.474533
0.521078
0.509625
0.50389
0.486979
0.427437
0.490649
0.516171
0.480334
0.448454
0.399836
0.456492
0.525367
0.403572
0.481606
0.489188
0.555991
0.528443
0.481146
0.454652
0.478456
0.504822
0.564016
0.51152
0.477285
0.530295
0.509067
0.502025
0.512198
0.590841
0.55025
0.480427
0.499394
0.515255
0.502743
0.47194
0.446443
0.441087
0.4767
0.549063
0.493842
0.522947
0.528902
0.528825
0.518092
0.45481
0.487628
0.600746
0.494824
0.579939
0.547374
0.481273
0.486715
0.49792
0.483148
0.52735
0.530965
0.432928
0.47958
0.541477
0.474866
0.462714
0.539694
0.612887
0.550278
0.473479
0.516302
0.409625
0.487656
0.547138
0.49046
0.459855
0.472087
0.570302
0.612942
0.525156
0.485775
0.43855
0.471272
0.49125
0.608116
0.491838
0.493171
0.535977
0.472591
0.455123
0.458778
0.484761
0.471772
0.479227
0.505904
0.519637
0.545681
0.519959
0.479063
0.567575
0.517643
0.489801
0.474224
0.538067
0.559151
0.473972
0.480813
0.472423
0.510963
0.555815
0.459961
0.470269
0.503992
0.469117
0.50432
0.575157
0.488351
0.500439
0.539503
0.439579
0.447965
0.43726
0.427016
0.42113
0.427477
0.469245
0.423706
0.474883
0.441255
0.527495
0.513029
0.504153
0.53268
0.413385
0.476347
0.443703
0.463259
0.485919
0.477722
0.549074
0.408245
0.553047
0.486943
0.408549
0.561803
0.524108
0.472608
0.53751
0.641369
0.562139
0.536557
0.489992
0.46765
0.447778
0.48063
0.45818
0.609386
0.512988
0.413409
0.416979
0.47464
0.493172
0.486518
0.460266
0.501595
0.491004
0.533657
0.504651
0.541859
0.42596
0.468703
0.602456
0.466371
0.51019
0.541004
0.5541
0.50669
0.528126
0.455839
0.506182
0.428594
0.525447
0.539719
0.517833
0.499221
0.502865
0.51723
0.472609
0.464606
0.598335
0.565375
0.534859
0.463534
0.413882
0.462955
0.560537
0.459274
0.522132
0.618509
0.425001
0.487451
0.504535
0.52862
0.42216
0.438084
0.448982
0.423222
0.519243
0.410675
0.565922
0.448698
0.515272
0.511674
0.550081
0.448132
0.579926
0.548767
0.495398
0.418607
0.526989
0.481033
0.453455
0.497936
0.447943
0.44489
0.48678
0.506737
0.494428
0.485718
0.545461
0.445007
0.516184
0.553107
0.526237
0.481427
0.485805
0.448429
0.467741
0.540292
0.523754
0.534537
0.488063
0.609008
0.459493
0.482034
0.465728
0.535917
0.536714
0.50026
0.531291
0.466308
0.52827
0.479682
0.477474
0.554402
0.468505
0.502846
0.526901
0.519731
0.471613
0.617
0.489824
0.45638
0.460126
0.431037
0.506499
0.529772
0.55685
0.429819
0.536585
0.495055
0.565335
0.552085
0.503926
0.516165
0.438828
0.46695
0.536468
0.472776
0.497796
0.495137
0.486108
0.499944
0.553976
0.505363
0.481778
0.443008
0.410888
0.393232
0.457894
0.529204
0.482047
0.451704
0.508069
0.48334
0.483585
0.550591
0.54356
0.492563
0.515297
0.62705
0.589002
0.485539
0.469896
0.472508
0.499976
0.474705
0.484167
0.518968
0.50464
0.439803
0.443812
0.502549
0.485976
0.528653
0.472294
0.456541
0.519426
0.496854
0.572917
0.520217
0.4723
0.474981
0.530483
0.487323
0.5533
0.470936
0.539246
0.584568
0.494048
0.438169
0.505756
0.524617
0.501226
0.529081
0.553878
0.520876
0.559473
0.482562
0.46251
0.475317
0.468558
0.478597
0.504183
0.480003
0.533052
0.524612
0.523153
0.524393
0.50635
0.57193
0.616961
0.52153
0.544914
0.519121
0.485305
0.493856
0.564407
0.549181
0.579176
0.595094
0.462644
0.489255
0.477194
0.467736
0.443082
0.49116
0.523959
0.506573
0.52428
0.456683
0.641799
0.48243
0.500242
0.536283
0.459608
0.483869
0.500305
0.539332
0.518037
0.473318
0.473677
0.482114
0.510889
0.478738
0.51324
0.441699
0.487691
0.42247
0.4133
0.527605
0.589157
0.585915
0.522846
0.499115
0.471725
0.489251
0.481611
0.539361
0.523395
0.526758
0.49869
0.468105
0.489156
0.576042
0.536681
0.519621
0.422268
0.479194
0.531604
0.44072
0.458447
0.431688
0.442075
0.510414
0.503626
0.431456
0.471035
0.539213
0.532865
0.536374
0.45173
0.464763
0.5367
0.481702
0.469224
0.537937
0.48419
0.494871
0.556474
0.490527
0.474976
0.515458
0.511115
0.516319
0.57689
0.593675
0.459746
0.52886
0.498492
0.516276
0.514903
0.539009
0.56112
0.507899
0.551866
0.495883
0.478084
0.592564
0.483481
0.489038
0.482428
0.478511
0.396535
0.52506
0.410912
0.41892
0.48432
0.55212
0.495075
0.555898
0.521044
0.427269
0.468583
0.502596
0.580313
0.518234
0.585059
0.567421
0.552826
0.571672
0.516333
0.471176
0.534702
0.461997
0.52469
0.440416
0.466993
0.479634
0.552333
0.49503
0.508863
0.492849
0.45121
0.63275
0.51093
0.515778
0.526873
0.437804
0.480804
0.526017
0.487544
0.52952
0.489805
0.491504
0.583171
0.588001
0.47875
0.4495
0.497651
0.622219
0.413171
0.444088
0.502573
0.547554
0.5121
0.474708
0.558713
0.462274
0.527278
0.565056
0.581413
0.500671
0.533573
0.543922
0.554595
0.520211
0.486624
0.468795
0.466209
0.451855
0.428302
0.493175
0.506324
0.512152
0.560961
0.475893
0.49573
0.559694
0.541407
0.652482
0.44077
0.395487
0.531811
0.574866
0.455132
0.467305
0.42419
0.40297
0.520614
0.541449
0.585804
0.532958
0.532847
0.59862
0.472586
0.434138
0.51084
0.463479
0.484841
0.564304
0.503633
0.447675
0.498557
0.588216
0.528841
0.488821
0.421022
0.467848
0.526355
0.443113
0.524631
0.550826
0.538793
0.489601
0.535025
0.458294
0.391936
0.501218
0.483031
0.485736
0.506722
0.549838
0.498882
0.481414
0.552653
0.486375
0.491806
0.56477
0.517317
0.530788
0.513757
0.567689
0.544345
0.457416
0.493658
0.468771
0.531197
0.483629
0.550908
0.54401
0.46379
0.505079
0.449677
0.442763
0.524962
0.488331
0.502188
0.396741
0.581642
0.513538
0.496576
0.519891
0.482881
0.451565
0.515792
0.499495
0.508367
0.504615
0.521341
0.539187
0.500049
0.510434
0.538983
0.472461
0.493125
0.532077
0.549799
0.445701
0.44061
0.491985
0.581578
0.438685
0.495157
0.429745
0.453779
0.515251
0.491925
0.501219
0.533192
0.511253
0.428493
0.415973
0.466953
0.596111
0.520539
0.402508
0.512989
0.525136
0.476403
0.536216
0.498665
0.510957
0.431048
0.510141
0.564064
0.536958
0.517926
0.502929
0.552442
0.453471
0.483009
0.478505
0.526852
0.495381
0.560485
0.506392
0.440663
0.474612
0.462596
0.492567
0.439948
0.556033
0.466928
0.461732
0.541999
0.539486
0.488667
0.523359
0.517312
0.495274
0.479396
0.459629
0.478617
0.452806
0.470104
0.556569
0.558682
0.481938
0.477011
0.484834
0.474656
0.538213
0.57948
0.508891
0.417137
0.460012
0.475555
0.445726
0.530891
0.473095
0.516323
0.546527
0.473223
0.50671
0.509452
0.501525
0.516747
0.52044
0.489357
0.487782
0.548125
0.570721
0.591074
0.460679
0.463803
0.466774
0.511628
0.486399
0.537513
0.530012
0.500844
0.57552
0.603799
0.506131
0.468801
0.477258
0.444979
0.534241
0.496678
0.474323
0.489238
0.469039
0.513128
0.544012
0.543685
0.492883
0.485417
0.465083
0.39489
0.459624
0.504683
0.489533
0.561645
0.486514
0.463933
0.519665
0.47838
0.474469
0.51894
0.489889
0.48319
0.508301
0.542857
0.515732
0.492381
0.510938
0.489069
0.548798
0.449046
0.529688
0.573198
0.498956
0.500596
0.531007
0.520152
0.533004
0.525615
0.445873
0.455598
0.485556
0.495084
0.491322
0.461366
0.452108
0.465985
0.538948
0.550496
0.511478
0.538123
0.562772
0.489703
0.555598
0.495582
0.503221
0.522818
0.465177
0.504426
0.533476
0.556156
0.538689
0.498584
0.501417
0.550338
0.516019
0.415234
0.387619
0.520475
0.484121
0.517669
0.576801
0.516289
0.437173
0.533782
0.478774
0.469716
0.507848
0.532225
0.564109
0.541426
0.496134
0.549996
0.545635
0.50095
0.450613
0.441408
0.569379
0.554968
0.570459
0.520283
0.497464
0.469728
0.452548
0.485916
0.430259
0.465522
0.539337
0.495322
0.475262
0.455189
0.45449
0.480288
0.526466
0.486968
0.576118
0.581746
0.490826
0.501423
0.467511
0.473685
0.378444
0.432264
0.460106
0.493324
0.462427
0.464952
0.500431
0.466215
0.434203
0.477019
0.470829
0.503622
0.556729
0.541508
0.470785
0.510751
0.465821
0.475932
0.595624
0.520185
0.51421
0.430299
0.541844
0.530964
0.495079
0.458252
0.481175
0.526517
0.487939
0.46537
0.463059
0.48975
0.483775
0.585275
0.552947
0.487479
0.568409
0.543824
0.574043
0.457468
0.531881
0.532089
0.503304
0.550982
0.46623
0.489651
0.477775
0.498628
0.476253
0.535647
0.515316
0.482206
0.462482
0.434121
0.472913
0.496375
0.521666
0.463411
0.55245
0.465847
0.484683
0.505297
0.582568
0.631969
0.523834
0.462482
0.581894
0.473638
0.438304
0.451331
0.497134
0.435063
0.467273
0.574279
0.528876
0.482095
0.417725
0.482226
0.517394
0.488876
0.505373
0.473886
0.564048
0.602511
0.504347
0.517459
0.497641
0.644537
0.480404
0.567107
0.568922
0.436724
0.478849
0.530655
0.483316
0.567942
0.548602
0.615627
0.530164
0.467635
0.543043
0.434741
0.45605
0.439776
0.401638
0.534938
0.51861
0.495605
0.44597
0.461262
0.435864
0.513112
0.589908
0.531985
0.52488
0.622167
0.518704
0.576063
0.401074
0.521058
0.504237
0.488394
0.494145
0.451244
0.538153
0.528106
0.491466
0.449291
0.449083
0.505347
0.486158
0.546524
0.532877
0.492197
0.495358
0.511178
0.505805
0.486181
0.398747
0.468586
0.548007
0.48317
0.474725
0.53559
0.485855
0.474404
0.507793
0.542569
0.496367
0.524309
0.564535
0.460674
0.545563
0.482637
0.402555
0.467948
0.512921
0.463843
0.41735
0.485186
0.434525
0.444957
0.526129
0.502948
0.413185
0.488484
0.514419
0.539026
0.539345
0.475629
0.478291
0.518727
0.514474
0.464878
0.45352
0.470019
0.40003
0.448682
0.489208
0.551523
0.474713
0.433127
0.524516
0.534432
0.49778
0.606906
0.568523
0.501578
0.596749
0.525631
0.523109
0.466608
0.455387
0.526857
0.516458
0.556096
0.473229
0.448701
0.458809
0.521451
0.56255
0.550172
0.48259
0.535436
0.557304
0.547974
0.553251
0.420903
0.476644
0.500233
0.401675
0.523576
0.401483
0.478236
0.490648
0.458646
0.498248
0.496727
0.497455
0.470818
0.44368
0.531804
0.543993
0.512866
0.434404
0.550854
0.490622
0.522249
0.487696
0.509676
0.516215
0.45177
0.45487
0.53683
0.514976
0.449099
0.461076
0.486009
0.551392
0.525791
0.519832
0.459483
0.536294
0.478973
0.544504
0.522845
0.470496
0.488822
0.436268
0.462989
0.469899
0.517925
0.47055
0.506796
0.523151
0.514078
0.544545
0.570139
0.527411
0.564116
0.55622
0.447596
0.468635
0.512231
0.545118
0.471817
0.508399
0.471973
0.429848
0.487111
0.549068
0.531222
0.530159
0.454471
0.441364
0.459367
0.479791
0.547196
0.453211
0.461045
0.531059
0.506271
0.525317
0.552151
0.524519
0.442416
0.463024
0.474331
0.462481
0.504825
0.498531
0.479611
0.493387
0.562275
0.529017
0.492915
0.490551
0.496887
0.500468
0.453743
0.489427
0.505562
0.489018
0.511249
0.473124
0.455202
0.469766
0.555827
0.573626
0.576707
0.550236
0.503082
0.47876
0.540412
0.526058
0.53034
0.478206
0.489775
0.501997
0.595155
0.533277
0.445757
0.487002
0.540173
0.546696
0.528585
0.528462
0.516991
0.496363
0.558626
0.529395
0.495003
0.513486
0.467094
0.502846
0.410921
0.486056
0.545304
0.525983
0.490411
0.486832
0.507213
0.508934
0.541275
0.534839
0.553783
0.520862
0.554916
0.449073
0.446568
0.517449
0.487519
0.529511
0.460027
0.421995
0.413993
0.494524
0.508558
0.490086
0.521507
0.504516
0.508184
0.423061
0.482347
0.481082
0.492361
0.53597
0.475597
0.507136
0.46245
0.485004
0.467913
0.497455
0.496728
0.519985
0.495649
0.442455
0.481299
0.493588
0.488192
0.493296
0.463648
0.529066
0.495256
0.509587
0.520437
0.534542
0.58629
0.48579
0.48676
0.485321
0.486208
0.532068
0.536516
0.497772
0.566134
0.448692
0.438345
0.46075
0.442256
0.408585
0.459724
0.542636
0.563299
0.549045
0.508396
0.504637
0.530989
0.497532
0.563216
0.54115
0.556752
0.512469
0.473862
0.45643
0.552803
0.526008
0.497072
0.546111
0.622394
0.492609
0.492906
0.499226
0.526794
0.477706
0.518097
0.524239
0.514852
0.473209
0.474244
0.579951
0.488545
0.433315
0.480069
0.546465
0.513954
0.472009
0.459642
0.490248
0.529852
0.446199
0.440426
0.539733
0.479981
0.512231
0.496784
0.466235
0.509997
0.514622
0.518245
0.464325
0.532822
0.4361
0.439577
0.52486
0.549305
0.583013
0.464781
0.43799
0.45057
0.521986
0.43083
0.50894
0.506202
0.484438
0.420244
0.583401
0.515576
0.487539
0.457365
0.501035
0.613114
0.508375
0.572495
0.63733
0.522275
0.492878
0.521558
0.47013
0.467864
0.544818
0.480915
0.576278
0.517375
0.39723
0.41866
0.487636
0.541321
0.515336
0.529578
0.528799
0.503241
0.470911
0.45619
0.371649
0.455153
0.474128
0.52068
0.501534
0.546036
0.466973
0.44288
0.468498
0.518468
0.505084
0.552843
0.497819
0.538752
0.422767
0.374526
0.508006
0.539114
0.527211
0.448764
0.440865
0.536153
0.455712
0.529139
0.440909
0.480769
0.466182
0.575348
0.495301
0.542935
0.42281
0.4493
0.438428
0.532594
0.500974
0.437346
0.449689
0.532306
0.528572
0.480995
0.539757
0.563581
0.503163
0.531821
0.465273
0.432009
0.537514
0.477774
0.453343
0.515892
0.517649
0.468893
0.533308
0.525491
0.545889
0.568068
0.51329
0.450518
0.445434
0.579386
0.528855
0.439326
0.482723
0.520158
0.562523
0.495363
0.43704
0.444406
0.483614
0.44681
0.50123
0.503523
0.466251
0.522637
0.525115
0.513131
0.548947
0.579738
0.420685
0.500237
0.490596
0.497327
0.505196
0.502488
0.466396
0.556276
0.470266
0.449293
0.496528
0.542238
0.597274
0.450308
0.42075
0.552572
0.562604
0.451188
0.48059
0.426314
0.477075
0.486305
0.452912
0.528815
0.557562
0.421185
0.509785
0.588221
0.526308
0.469575
0.464366
0.493617
0.574052
0.534873
0.420264
0.456014
0.409318
0.480504
0.486697
0.539447
0.454668
0.452698
0.524645
0.447507
0.456455
0.514714
0.525793
0.538249
0.526021
0.517793
0.545826
0.426619
0.475719
0.433497
0.495135
0.543602
0.512644
0.565885
0.486593
0.485158
0.460247
0.471872
0.44964
0.489521
0.539754
0.538147
0.51176
0.393328
0.532242
0.494102
0.489321
0.538014
0.564586
0.566046
0.469611
0.470674
0.428698
0.406042
0.487591
0.574022
0.501113
0.50838
0.499298
0.507412
0.488675
0.535214
0.501523
0.447236
0.545059
0.530544
0.445006
0.474461
0.489788
0.479897
0.479527
0.475129
0.443012
0.526743
0.542131
0.551858
0.444059
0.452006
0.540884
0.502925
0.496658
0.539803
0.507172
0.529362
0.491392
0.443792
0.441165
0.523146
0.487867
0.460495
0.469392
0.475128
0.535776
0.548011
0.51414
0.492991
0.476188
0.498556
0.445306
0.556771
0.545016
0.458965
0.437961
0.538323
0.529278
0.477205
0.463
0.569133
0.509822
0.4717
0.438531
0.530755
0.542023
0.477011
0.529215
0.533304
0.537324
0.460047
0.47007
0.553071
0.537679
0.551181
0.523735
0.562285
0.482681
0.496885
0.49222
0.481691
0.469043
0.442824
0.438603
0.439573
0.489706
0.497666
0.490374
0.463562
0.4627
0.475595
0.509832
0.597618
0.555965
0.589688
0.502147
0.553761
0.538975
0.533159
0.546214
0.487128
0.4925
0.4901
0.509673
0.477012
0.481981
0.499521
0.53464
0.48498
0.447224
0.509119
0.471373
0.525328
0.528251
0.504543
0.524947
0.519431
0.533646
0.519713
0.448437
0.452225
0.490196
0.449342
0.45847
0.470665
0.559338
0.517915
0.515224
0.498399
0.499397
0.541342
0.546473
0.564265
0.546643
0.472821
0.517542
0.467166
0.411282
0.503575
0.542521
0.517299
0.496467
0.50123
0.514391
0.513646
0.43748
0.533278
0.543354
0.486945
0.50655
0.504175
0.523256
0.518865
0.436646
0.465891
0.542803
0.54641
0.523473
0.517654
0.50802
0.487886
0.440412
0.559355
0.505079
0.476606
0.515836
0.451772
0.492952
0.52264
0.485998
0.496838
0.450902
0.448125
0.431564
0.483858
0.463214
0.537158
0.504842
0.50476
0.536912
0.500696
0.464887
0.494726
0.569014
0.524571
0.431946
0.507185
0.549753
0.527173
0.524575
0.515786
0.542194
0.554491
0.523677
0.457772
0.448551
0.520205
0.565669
0.49634
0.536584
0.526894
0.463378
0.531323
0.521652
0.482433
0.444575
0.509233
0.465615
0.540905
0.44462
0.42535
0.456181
0.493302
0.475494
0.539372
0.549684
0.492157
0.489588
0.501056
0.492801
0.562254
0.596368
0.501026
0.457109
0.475633
0.4805
0.531873
0.518937
0.518392
0.435336
0.56848
0.544585
0.457955
0.425004
0.465315
0.487964
0.534185
0.472859
0.559529
0.538775
0.599115
0.478489
0.514398
0.457806
0.564857
0.43571
0.552316
0.495097
0.579819
0.467896
0.471686
0.513597
0.49195
0.448723
0.463819
0.534044
0.535249
0.634084
0.472255
0.530876
0.493328
0.575324
0.439931
0.46187
0.524506
0.595462
0.492652
0.53101
0.481087
0.514168
0.49969
0.485624
0.359116
0.507765
0.487218
0.460683
0.503372
0.539876
0.506016
0.45782
0.49116
0.521274
0.530671
0.573921
0.496052
0.530414
0.506976
0.457701
0.457584
0.485751
0.411401
0.477284
0.443381
0.462277
0.421759
0.493939
0.49423
0.470517
0.493548
0.556608
0.487649
0.559296
0.484897
0.510987
0.502616
0.442249
0.493392
0.487515
0.451388
0.491649
0.513226
0.485109
0.443032
0.440072
0.495672
0.50216
0.46498
0.424274
0.5232
0.558881
0.553306
0.507344
0.475268
0.5589
0.512315
0.499623
0.500746
0.508116
0.440832
0.53372
0.481936
0.541566
0.49514
0.44328
0.521109
0.574745
0.537914
0.511063
0.483222
0.493498
0.474993
0.468273
0.517202
0.477795
0.44748
0.466621
0.526639
0.548217
0.493924
0.559934
0.553753
0.48183
0.530932
0.471983
0.429418
0.520283
0.504381
0.585528
0.590288
0.561823
0.534818
0.509871
0.472334
0.439849
0.544162
0.502214
0.482155
0.541384
0.502425
0.396897
0.498868
0.603226
0.553229
0.460526
0.404042
0.490366
0.599501
0.571481
0.464223
0.427107
0.460009
0.52096
0.437624
0.526509
0.556743
0.518518
0.472965
0.525711
0.529665
0.431268
0.455282
0.544218
0.596722
0.473564
0.490175
0.51742
0.511523
0.547004
0.447424
0.456008
0.576434
0.569233
0.548553
0.519103
0.51016
0.438996
0.464967
0.549045
0.565415
0.444633
0.481039
0.510372
0.519681
0.413681
0.421797
0.527553
0.589407
0.46463
0.454393
0.505143
0.598532
0.556472
0.523224
0.483789
0.548172
0.563196
0.529048
0.477805
0.433129
0.448904
0.471673
0.541686
0.551248
0.490481
0.502466
0.515394
0.593212
0.574049
0.481205
0.43977
0.504503
0.491766
0.511302
0.474718
0.468654
0.530285
0.500003
0.508838
0.479287
0.461459
0.468553
0.434887
0.485348
0.517316
0.548151
0.541999
0.589971
0.513352
0.515555
0.487081
0.485558
0.479817
0.452915
0.482775
0.46584
0.499917
0.522793
0.497568
0.457269
0.407648
0.511739
0.544476
0.469499
0.503601
0.509937
0.491166
0.565163
0.518501
0.466614
0.525059
0.531671
0.528199
0.521577
0.527482
0.536497
0.508156
0.463639
0.498428
0.52427
0.505336
0.547077
0.533191
0.574046
0.518743
0.508825
0.604045
0.562515
0.52547
0.518808
0.480229
0.462662
0.54253
0.499538
0.473658
0.531083
0.513723
0.522976
0.542136
0.500717
0.431039
0.450843
0.559475
0.581491
0.501817
0.484654
0.509152
0.575122
0.60149
0.551885
0.518914
0.513359
0.529131
0.482727
0.550135
0.483906
0.52693
0.51556
0.518159
0.486692
0.535126
0.516333
0.416979
0.448264
0.448999
0.512757
0.537454
0.445058
0.399225
0.466945
0.551494
0.626788
0.603477
0.515841
0.512347
0.456318
0.501784
0.543972
0.585718
0.564008
0.506394
0.466482
0.472241
0.518513
0.50828
0.537516
0.533006
0.576353
0.512673
0.490272
0.473836
0.557646
0.594815
0.527171
0.495646
0.467063
0.473281
0.488532
0.463304
0.537042
0.49884
0.436066
0.490488
0.454323
0.526638
0.588043
0.556926
0.441426
0.503066
0.531794
0.465101
0.501525
0.439064
0.453208
0.521735
0.459601
0.498564
0.506474
0.569396
0.57759
0.514634
0.603399
0.565854
0.559584
0.476617
0.525787
0.56771
0.526922
0.529806
0.549801
0.461512
0.426778
0.462318
0.484542
0.524621
0.526033
0.539807
0.466667
0.505729
0.536225
0.544512
0.554054
0.545087
0.525531
0.451247
0.515302
0.543688
0.531535
0.490935
0.449002
0.486391
0.52043
0.574885
0.548778
0.476399
0.503774
0.576626
0.541772
0.443341
0.418338
0.523555
0.415768
0.42188
0.486254
0.433789
0.560584
0.463857
0.482638
0.488713
0.518518
0.527877
0.403773
0.471643
0.528193
0.56951
0.473206
0.40229
0.489824
0.494586
0.437191
0.423329
0.49007
0.351677
0.47917
0.446675
0.491701
0.468343
0.4228
0.465063
0.452707
0.478913
0.579521
0.518379
0.44271
0.556784
0.523926
0.515915
0.493346
0.541863
0.48268
0.469721
0.544238
0.465908
0.469884
0.540684
0.507278
0.490085
0.516462
0.523714
0.508325
0.433665
0.501673
0.549445
0.510689
0.544971
0.386372
0.435545
0.472879
0.556425
0.528277
0.504446
0.501856
0.524442
0.502125
0.566149
0.485283
0.474619
0.537987
0.541144
0.437205
0.480658
0.542486
0.48276
0.482667
0.494027
0.4547
0.436065
0.489123
0.490331
0.464804
0.46925
0.456568
0.47059
0.486119
0.423445
0.464323
0.505271
0.485824
0.48138
0.521547
0.540409
0.468587
0.503979
0.559877
0.569779
0.543571
0.441752
0.455997
0.502229
0.519776
0.519073
0.504434
0.535957
0.454229
0.493171
0.481572
0.511384
0.55336
0.562774
0.491668
0.548589
0.471597
0.509959