/*--------------------------------*- C++ -*----------------------------------*\
  =========                 |
  \\      /  F ield         | OpenFOAM: The Open Source CFD Toolbox
   \\    /   O peration     | Website:  https://openfoam.org
    \\  /    A nd           | Version:  7
     \\/     M anipulation  |
\*---------------------------------------------------------------------------*/
FoamFile
{
    version     2.0;
    format      ascii;
    class       volScalarField;
    location    "1000";
    object      k1Write;
}
// * * * * * * * * * * * * * * * * * * * * * * * * * * * * * * * * * * * * * //

dimensions      [0 2 0 0 0 0 0];

internalField   nonuniform List<scalar> 
160000
(
1.03152e-18
1.46366e-18
8.65827e-19
1.48602e-18
1.85874e-18
8.77107e-19
2.04567e-18
1.16737e-18
1.27078e-18
2.68649e-18
1.91673e-18
1.23387e-18
2.26074e-18
2.34664e-18
8.06913e-19
1.15595e-18
8.28361e-19
9.70989e-19
2.45727e-18
2.04291e-18
1.44188e-18
1.21689e-18
1.77873e-18
2.43435e-18
1.63523e-18
2.25915e-18
3.00274e-18
1.89205e-18
2.32658e-18
1.29905e-18
1.2164e-18
1.72518e-18
3.81674e-18
1.85437e-18
1.57281e-18
2.06379e-18
2.90433e-18
4.36164e-18
1.19093e-18
2.0124e-18
1.45251e-18
1.42004e-18
2.31002e-18
1.45298e-18
2.78685e-18
2.68274e-18
2.27329e-18
1.02455e-18
1.9796e-18
1.14328e-18
1.80799e-18
4.79608e-18
3.07214e-18
2.2466e-18
3.69759e-18
1.19614e-18
3.4742e-18
9.81316e-19
8.7066e-19
1.43551e-18
6.4731e-18
1.76403e-18
1.71829e-18
1.32181e-18
9.7731e-19
3.67347e-18
2.22613e-18
2.85253e-18
7.27112e-19
3.94061e-19
3.81986e-18
1.13738e-18
3.27838e-18
1.53143e-18
2.64891e-18
2.05039e-18
2.8972e-18
1.86278e-18
3.8602e-18
2.12652e-18
4.08438e-18
5.38968e-18
2.50435e-18
1.95391e-18
1.89552e-18
1.67348e-18
1.68141e-18
1.06982e-18
1.6977e-18
2.64344e-18
9.75378e-19
3.9563e-18
4.5695e-18
3.47917e-18
2.41447e-18
1.16662e-18
2.41063e-18
1.74381e-18
1.85026e-18
1.17577e-18
2.22981e-18
7.87112e-19
3.39993e-18
1.74381e-18
1.0329e-18
2.43473e-18
9.05411e-19
2.56413e-18
3.07864e-18
2.91727e-18
4.0207e-18
1.18259e-18
4.48879e-18
1.88984e-18
1.70283e-18
2.38823e-18
1.35628e-18
2.26429e-18
4.36235e-18
2.73136e-18
2.0451e-18
1.47307e-18
3.14469e-18
3.57053e-18
4.53855e-18
7.53936e-18
4.33365e-18
1.69428e-18
2.78202e-18
2.58232e-18
1.81548e-18
1.72504e-18
3.51576e-18
5.85888e-18
2.74345e-18
2.52912e-18
1.52199e-18
2.01871e-18
1.3229e-18
9.42494e-19
2.96212e-18
3.62286e-18
6.45858e-19
2.89559e-18
5.40586e-18
2.58213e-18
3.10974e-18
2.56664e-18
2.22775e-18
1.37143e-18
1.05301e-18
1.90852e-18
1.16976e-18
2.94495e-18
8.99625e-19
2.48916e-18
2.44527e-18
4.87518e-18
3.03328e-18
3.58423e-18
1.73246e-18
2.15006e-18
1.48636e-18
3.68232e-18
1.00498e-18
3.44432e-18
3.03141e-18
1.60156e-18
2.23283e-18
1.34926e-18
4.07923e-18
4.96756e-18
1.86825e-18
7.21879e-18
3.13079e-18
1.69803e-18
2.49973e-18
2.64299e-18
6.31944e-18
4.79422e-18
1.07987e-18
4.97784e-18
1.6092e-18
1.24003e-18
1.3265e-18
1.4321e-18
1.71305e-18
1.55624e-18
1.08097e-18
2.09463e-18
2.19662e-18
1.44716e-18
2.36936e-18
2.97805e-18
4.41942e-18
6.3623e-19
2.68568e-18
5.25369e-18
4.34275e-18
5.10602e-18
4.65339e-18
2.75894e-18
3.24943e-18
2.87418e-18
3.0557e-18
3.46067e-18
1.59619e-18
3.11421e-18
4.0343e-18
3.17266e-18
3.90697e-18
3.94046e-18
2.06484e-18
2.51156e-18
4.20577e-18
2.53023e-18
1.67869e-18
4.64247e-18
5.86123e-18
3.65974e-18
6.00683e-18
3.40067e-18
1.63876e-18
2.15153e-18
2.05514e-18
2.01372e-18
2.78627e-18
9.44621e-19
2.66255e-18
1.48364e-18
5.29084e-19
2.3666e-18
1.35888e-18
2.14976e-18
2.03353e-18
3.08878e-18
1.30771e-18
2.64369e-18
1.24207e-18
2.75684e-18
1.91958e-18
1.71278e-18
2.24063e-18
1.32452e-18
2.57192e-18
2.17673e-18
2.61193e-18
2.04662e-18
4.91037e-18
2.33369e-18
4.03748e-18
2.95668e-18
1.18383e-18
1.04715e-18
1.53162e-18
3.22525e-18
1.69936e-18
1.17545e-18
2.43494e-18
7.08699e-18
5.84415e-18
2.51743e-18
2.29404e-18
1.30372e-18
2.37457e-18
2.81567e-18
3.37021e-18
2.14067e-18
2.90794e-18
4.70288e-18
1.10793e-18
1.75827e-18
2.12504e-18
1.98812e-18
2.23384e-18
2.07528e-18
3.15109e-18
4.26444e-18
1.25397e-18
2.47021e-18
1.78057e-18
2.3943e-18
2.46511e-18
2.32235e-18
1.82306e-18
1.59733e-18
4.10221e-18
1.80875e-18
5.10917e-18
3.93983e-18
3.01696e-18
7.30776e-19
2.10125e-18
2.192e-18
3.4958e-18
4.4431e-18
3.42062e-18
8.12162e-19
3.11928e-18
1.27028e-18
2.11593e-18
2.30043e-18
5.31896e-18
4.64804e-18
3.8361e-18
1.98017e-18
2.89806e-18
2.12234e-18
1.73608e-18
4.2246e-18
2.98894e-18
1.96225e-18
2.84997e-18
3.44139e-18
1.17717e-18
2.74782e-18
3.31903e-18
1.94371e-18
2.63328e-18
2.71295e-18
1.38e-18
2.37229e-18
2.16103e-18
3.69984e-18
1.97687e-18
2.9553e-18
4.18453e-18
2.81331e-18
1.97157e-18
2.39479e-18
1.35648e-18
2.06143e-18
1.56449e-18
2.33516e-18
2.04684e-18
2.45882e-18
3.02446e-18
3.34781e-18
6.85606e-18
1.71452e-18
8.06548e-19
1.63815e-18
1.77811e-18
1.22952e-18
5.84238e-18
1.30733e-18
1.88926e-18
3.23393e-18
2.98013e-18
4.23721e-18
3.32412e-18
2.21697e-18
4.55335e-18
1.71471e-18
2.53092e-18
2.42523e-18
3.32035e-18
2.16039e-18
2.07546e-18
1.52959e-18
2.10662e-18
2.22489e-18
3.0737e-18
1.80222e-18
3.49807e-18
2.99789e-18
2.14063e-18
1.03918e-17
4.08974e-18
2.01508e-18
1.63061e-18
2.78648e-18
2.89279e-18
9.67312e-18
1.66731e-18
6.20568e-18
2.07813e-18
2.15737e-18
1.41572e-18
1.72906e-18
1.85182e-18
1.73004e-18
1.65879e-18
2.68554e-18
3.29582e-18
3.55714e-18
4.18901e-18
3.77574e-18
2.54333e-18
2.04048e-18
2.68818e-18
1.97392e-18
2.97274e-18
2.19706e-18
1.38544e-18
4.99022e-18
2.21417e-18
5.81049e-19
4.18652e-18
2.44075e-18
3.20117e-18
6.79854e-19
1.67782e-18
8.0831e-19
6.99113e-19
1.00452e-18
1.76342e-18
1.28983e-18
1.46877e-18
1.69939e-18
1.89072e-18
1.23897e-18
1.55391e-18
1.88847e-18
2.92263e-18
1.06119e-18
1.06813e-18
3.8597e-18
3.25378e-18
1.98732e-18
1.13641e-18
1.58575e-18
2.53781e-18
2.44967e-18
8.13327e-19
1.68751e-18
4.89596e-18
3.94859e-18
1.7319e-18
2.74125e-18
1.96073e-18
1.28174e-18
1.69231e-18
1.24757e-18
8.76104e-19
2.73035e-18
4.0204e-18
3.85769e-19
2.71184e-18
3.57097e-18
1.50587e-18
9.75353e-19
1.97219e-18
1.05161e-18
2.77254e-18
4.37953e-18
1.9401e-18
9.26394e-19
1.84419e-18
3.06116e-18
1.3147e-18
2.34462e-18
1.67757e-18
6.01182e-18
7.19632e-19
2.3985e-18
2.79439e-18
1.16635e-18
1.614e-18
1.68735e-18
1.86467e-18
2.38656e-18
1.19323e-18
1.19816e-18
2.12981e-18
1.62771e-18
1.03909e-18
3.5567e-18
3.16158e-18
4.93796e-18
3.97865e-18
2.36974e-18
9.27363e-19
1.89969e-18
1.59583e-18
2.60564e-18
1.56698e-18
1.67727e-18
1.57505e-18
3.5241e-18
2.75082e-18
2.09396e-18
2.34191e-18
2.32756e-18
5.77632e-18
5.14465e-18
1.31488e-18
1.79245e-18
2.04023e-18
3.08353e-18
3.91737e-18
2.56999e-18
5.58894e-18
3.27974e-18
1.3816e-18
2.82594e-18
1.99524e-18
2.56439e-18
2.22965e-18
1.21038e-18
2.84734e-18
1.96045e-18
1.21661e-18
6.20956e-18
2.65612e-18
1.46594e-18
3.3965e-18
3.92465e-18
2.494e-18
2.97697e-18
2.42768e-18
1.06038e-18
1.74089e-18
1.55377e-18
2.07257e-18
2.31292e-18
2.26673e-18
2.8168e-18
3.14142e-18
5.78884e-18
4.52524e-18
2.01607e-18
2.21435e-18
2.16436e-18
1.97218e-18
2.61027e-18
2.33145e-18
1.62401e-18
2.94132e-18
1.76861e-18
1.59778e-18
6.66396e-19
7.56688e-18
6.60491e-18
3.71433e-18
1.35298e-18
8.63565e-18
1.46553e-18
1.18642e-18
1.91335e-18
3.02981e-18
4.02582e-18
3.1484e-18
3.73375e-18
3.2518e-18
1.22635e-18
3.04358e-18
1.95773e-18
1.81332e-18
1.17647e-18
5.12853e-18
9.65155e-19
1.46975e-18
2.28441e-18
2.14386e-18
3.61311e-18
1.77932e-18
3.53563e-18
1.33652e-18
3.37764e-18
2.50784e-18
3.28512e-18
2.0165e-18
1.73356e-18
1.66016e-18
3.21416e-18
5.25053e-18
2.09684e-18
2.78025e-18
1.87964e-18
1.78896e-18
1.73722e-18
9.64035e-19
7.45881e-18
2.25841e-18
3.62075e-18
3.08869e-18
1.95436e-18
3.22362e-18
2.24036e-18
2.10127e-18
3.19223e-18
1.66964e-18
9.65297e-19
3.51251e-18
2.21198e-18
2.09511e-18
1.01679e-18
2.31847e-18
5.08409e-18
4.98779e-18
3.17013e-18
2.37252e-18
6.08972e-18
2.67882e-18
4.61585e-18
4.66536e-18
5.53617e-18
4.75073e-18
3.54766e-18
3.90892e-18
2.18401e-18
2.6188e-18
4.17665e-18
9.33031e-18
5.17112e-18
2.19031e-18
2.394e-18
2.18603e-18
3.41032e-18
1.67596e-18
1.75041e-18
3.20202e-18
2.62207e-18
1.64074e-18
2.86858e-18
2.39125e-18
2.60907e-18
2.73579e-18
1.40865e-18
1.76192e-18
9.68697e-19
2.86918e-18
2.11955e-18
4.1368e-18
3.29165e-18
4.77333e-18
1.53284e-18
3.61635e-18
2.18903e-18
2.53319e-18
2.27041e-18
5.97635e-18
4.15984e-18
1.10167e-18
2.07752e-18
2.33304e-18
2.75338e-18
1.32919e-18
2.18493e-18
1.25189e-18
1.6878e-18
4.73013e-18
3.57817e-18
1.04238e-18
5.18742e-18
4.58707e-18
3.87651e-18
4.27877e-18
4.67298e-18
3.04986e-18
4.00212e-18
4.80068e-18
1.40583e-18
2.27618e-18
3.54922e-18
1.35755e-18
3.39491e-18
3.49314e-18
3.78389e-18
1.04811e-18
2.53905e-18
2.59475e-18
2.38874e-18
3.98986e-18
3.03902e-18
6.42648e-19
3.44453e-18
7.42577e-18
3.88859e-18
1.5075e-18
3.29407e-18
2.07035e-18
9.90872e-19
2.35298e-18
2.60592e-18
4.74133e-18
2.5248e-18
1.29914e-18
1.82915e-18
2.51441e-18
2.28604e-18
3.07625e-18
4.25351e-18
3.15805e-18
2.19284e-18
1.7138e-18
1.51822e-18
2.27622e-18
3.31325e-18
1.7145e-18
2.80658e-18
2.98567e-18
3.0481e-18
6.28309e-19
3.14027e-18
3.82956e-18
2.39625e-18
2.71044e-18
5.80181e-18
2.22702e-18
3.99044e-18
2.35377e-18
1.97697e-18
1.84782e-18
1.37719e-18
1.84442e-18
2.50408e-18
1.20639e-18
3.0959e-18
1.87118e-18
2.35075e-18
3.32247e-18
3.379e-18
3.32236e-18
1.45862e-18
8.61367e-19
1.94208e-18
2.94119e-18
2.65318e-18
2.45696e-18
1.68452e-18
3.84386e-18
7.98171e-18
3.38623e-18
2.78063e-18
5.69758e-18
6.81479e-18
1.7742e-18
2.79984e-18
4.17946e-18
1.59444e-18
1.44563e-18
3.8188e-18
2.34823e-18
1.87203e-18
3.66043e-18
3.78395e-18
2.08146e-18
2.18462e-18
2.13407e-18
2.98283e-18
1.68422e-18
2.24442e-18
2.81787e-18
3.47304e-18
1.41897e-18
1.98394e-18
1.80885e-18
2.4577e-18
1.18362e-18
2.56539e-18
2.40113e-18
4.30184e-18
1.59937e-18
1.97841e-18
2.31889e-18
2.06836e-18
1.71733e-18
2.02803e-18
2.12907e-18
2.96042e-18
2.29185e-18
2.43711e-18
5.145e-18
2.78821e-18
4.59026e-18
4.68436e-18
1.80867e-18
1.79241e-18
1.68282e-18
9.97261e-19
1.96122e-18
1.48896e-18
3.06614e-18
1.33621e-18
3.00808e-18
3.88689e-18
1.84891e-18
2.57551e-18
4.34617e-18
7.52934e-19
5.76413e-18
1.79883e-18
9.78639e-19
3.47934e-18
1.88598e-18
1.55963e-18
2.40875e-18
3.98051e-18
1.6511e-18
2.83706e-18
3.76194e-18
1.90141e-18
1.64783e-18
4.86601e-18
7.93077e-19
1.72254e-18
7.83461e-19
2.19813e-18
5.71036e-19
4.98915e-19
2.31822e-18
8.47386e-19
2.87079e-18
5.93513e-19
1.49402e-18
2.49543e-18
9.14337e-19
2.45245e-18
4.0432e-18
2.19502e-18
1.33235e-18
2.82849e-18
4.79934e-18
2.15093e-18
4.18276e-18
2.39211e-18
1.18765e-18
2.57736e-18
1.55546e-18
1.85488e-18
1.13535e-18
8.90534e-19
1.07166e-18
1.53301e-18
1.82542e-18
1.97105e-18
5.08802e-18
1.77529e-18
1.48254e-18
2.20158e-18
1.95579e-18
2.15758e-18
7.89591e-19
1.48678e-18
1.96303e-18
1.3414e-18
1.28872e-18
1.48122e-18
1.95286e-18
1.88453e-18
1.87716e-18
1.58787e-18
4.55788e-18
1.10549e-18
9.80301e-19
1.10013e-18
2.34203e-18
4.72262e-18
1.71894e-18
1.04513e-18
1.26053e-18
1.87987e-18
2.54599e-18
2.64049e-18
5.09128e-18
3.1531e-18
4.86962e-18
1.23823e-18
1.43219e-18
1.71811e-18
2.89517e-18
9.32604e-19
1.20244e-18
2.94606e-18
1.00682e-18
9.92214e-19
6.01856e-19
1.90752e-18
7.0982e-19
2.83113e-18
1.9966e-18
6.8786e-19
1.24011e-18
2.0936e-18
2.08282e-18
2.90894e-18
4.73777e-18
2.03785e-18
3.15815e-18
3.32202e-18
3.1326e-18
1.18445e-18
2.83721e-18
1.58551e-18
3.32932e-18
2.92153e-18
1.24797e-18
1.07933e-18
2.9186e-18
1.36259e-18
8.79576e-19
1.98973e-18
7.75741e-19
7.4253e-19
1.6025e-18
1.85647e-18
2.09435e-18
1.46402e-18
1.45181e-18
3.2185e-18
1.5471e-18
2.64912e-18
3.88375e-18
1.99906e-18
1.90563e-18
1.14368e-18
2.30401e-18
3.59027e-18
1.84889e-18
2.44699e-18
1.58645e-18
1.09206e-18
2.60659e-18
1.64356e-18
2.1843e-18
2.49062e-18
1.9268e-18
1.70086e-18
1.19796e-18
1.49373e-18
1.91414e-18
1.55762e-18
1.33373e-18
1.49148e-18
1.2123e-18
2.17155e-18
2.08465e-18
1.21152e-18
2.1082e-18
4.18368e-18
3.72182e-18
2.21188e-18
2.80021e-18
2.06103e-18
2.82716e-18
3.08951e-18
1.60665e-18
1.77459e-18
3.47933e-18
8.13311e-18
2.4144e-18
3.14165e-18
4.30944e-18
1.83335e-18
2.20358e-18
2.48121e-18
2.32935e-18
1.67801e-18
3.43897e-18
1.54734e-18
2.23145e-18
5.76141e-18
4.351e-18
1.12254e-18
3.12666e-18
1.91281e-18
1.61572e-18
1.54511e-18
1.06903e-18
3.00907e-18
2.24611e-18
2.38659e-18
2.23032e-18
2.24627e-18
2.39024e-18
1.88123e-18
3.12871e-18
3.62756e-18
2.72771e-18
3.24558e-18
2.22822e-18
1.17833e-18
7.03067e-19
2.79604e-18
4.50323e-18
3.57476e-18
1.79512e-18
2.33972e-18
1.33936e-18
1.04562e-18
1.8649e-18
2.78313e-18
2.00281e-18
2.68513e-18
2.58444e-18
3.64322e-18
4.16419e-18
5.26471e-18
2.56188e-18
2.11073e-18
3.08342e-18
3.31028e-18
3.32881e-18
5.2331e-18
2.52348e-18
3.15585e-18
3.68226e-18
1.75216e-18
2.39463e-18
3.0967e-18
2.90277e-18
2.78274e-18
1.61925e-18
2.45058e-18
1.01973e-18
3.11468e-18
2.42181e-18
1.15996e-18
1.49704e-18
2.66581e-18
2.14871e-18
1.12483e-18
2.12508e-18
2.48323e-18
2.573e-18
1.57251e-18
1.34828e-18
1.91133e-18
3.05645e-18
2.7446e-18
2.36307e-18
3.54098e-18
2.81459e-18
3.69066e-18
1.9923e-18
3.23045e-18
4.57943e-18
1.61606e-18
1.39345e-18
2.39217e-18
3.36132e-18
1.23622e-18
3.65052e-18
2.73195e-18
1.04757e-18
1.37049e-18
1.96742e-18
4.39045e-18
4.38698e-18
3.27817e-18
5.7436e-18
2.59023e-18
3.70824e-18
2.02265e-18
4.94862e-18
2.97057e-18
1.50144e-18
2.35556e-18
2.44829e-18
2.18671e-18
2.0875e-18
1.50036e-18
2.02002e-18
2.0369e-18
1.38877e-18
2.46485e-18
2.22511e-18
1.48479e-18
2.30063e-18
3.16348e-18
1.70889e-18
3.19957e-18
2.91261e-18
3.61984e-18
2.98444e-18
3.01348e-18
1.38596e-18
1.12758e-18
1.56831e-18
3.15993e-18
2.8787e-18
3.14185e-18
4.77328e-18
2.45879e-18
6.09235e-18
2.91854e-18
1.45331e-18
3.95433e-18
1.93378e-18
4.88494e-18
1.91085e-18
1.94775e-18
1.16797e-18
3.42667e-18
2.15197e-18
2.41546e-18
2.55889e-18
3.04269e-18
5.49119e-18
2.68251e-18
2.09998e-18
3.17036e-18
4.34984e-18
7.05014e-18
4.01866e-18
2.12045e-18
7.16112e-18
2.98776e-18
2.61767e-18
1.32299e-18
2.01957e-18
3.42409e-18
3.76324e-18
2.81626e-18
2.16539e-18
1.18415e-18
2.16371e-18
2.98013e-18
1.7306e-18
2.24601e-18
2.34249e-18
2.06873e-18
9.1752e-19
1.60546e-18
3.24751e-18
2.68835e-18
2.29319e-18
2.60025e-18
3.53432e-18
4.54978e-18
4.58852e-18
2.88526e-18
1.39182e-18
2.43317e-18
1.8169e-18
1.79655e-18
1.93266e-18
2.28843e-18
4.30015e-18
2.53052e-18
7.80953e-19
2.33191e-18
9.761e-19
1.64e-18
3.45219e-18
3.19049e-18
2.8388e-18
3.11209e-18
1.81334e-18
1.94955e-18
5.28698e-18
3.02068e-18
1.62068e-18
3.09447e-18
3.44947e-18
1.59443e-18
7.35452e-19
1.61393e-18
3.49855e-18
2.28131e-18
6.59032e-18
2.81502e-18
1.54434e-18
2.86058e-18
3.42034e-18
3.02998e-18
1.11968e-18
7.46922e-19
2.05794e-18
3.05469e-18
4.87864e-18
3.52839e-18
2.54288e-18
7.59329e-19
3.16287e-18
3.08195e-18
1.89182e-18
3.73703e-18
4.30592e-18
3.86684e-18
2.77557e-18
3.01201e-18
2.79761e-18
2.14378e-18
1.86746e-18
1.44379e-18
2.0673e-18
2.90316e-18
1.18314e-18
2.16934e-18
2.86763e-18
3.25913e-18
1.67409e-18
1.41129e-18
3.3372e-18
3.11768e-18
3.26685e-18
2.10081e-18
1.43788e-18
3.89944e-18
3.52111e-18
2.5165e-18
3.56185e-18
2.15934e-18
8.93056e-19
1.81363e-18
1.60735e-18
1.08328e-18
2.82063e-18
2.61365e-18
2.98781e-18
3.36861e-18
3.58804e-18
3.52568e-18
2.34173e-18
3.44219e-18
1.99396e-18
2.79602e-18
1.18852e-18
1.38285e-18
1.51829e-18
1.18659e-18
4.10693e-18
1.94396e-18
2.62451e-18
2.14364e-18
1.86507e-18
2.05302e-18
1.05444e-18
4.25827e-18
9.76478e-19
2.01349e-18
4.35432e-18
9.4012e-19
1.47254e-18
2.30785e-18
1.05368e-18
3.59598e-19
9.54823e-19
1.25016e-18
2.06085e-18
2.61599e-18
3.19684e-18
2.31668e-18
2.73891e-18
5.82149e-19
1.68457e-18
4.54846e-18
4.40544e-18
2.24261e-18
1.8574e-18
2.05903e-18
2.63345e-18
1.67567e-18
1.86865e-18
1.22049e-18
1.68211e-18
1.26745e-18
4.04757e-18
2.51446e-18
6.25047e-19
2.58816e-18
1.56479e-18
1.14857e-18
1.01382e-18
1.73688e-18
1.46107e-18
3.01638e-18
1.8334e-18
3.81019e-18
1.35969e-18
1.25734e-18
1.66701e-18
2.05738e-18
1.99968e-18
1.90654e-18
2.9849e-18
2.63638e-18
6.72955e-19
9.93222e-19
1.46968e-18
3.00942e-18
4.7808e-18
2.62268e-18
9.8267e-19
2.73329e-18
1.4633e-18
6.00259e-19
4.46953e-18
2.41244e-18
1.88198e-18
1.60007e-18
4.72454e-18
4.04375e-18
3.63824e-18
4.65278e-18
1.61091e-18
4.6523e-18
9.81095e-19
3.45005e-18
1.78203e-18
1.85055e-18
1.27793e-18
3.24671e-18
7.94912e-19
1.30305e-18
2.25953e-18
4.84994e-18
1.49019e-18
2.75809e-18
3.63179e-18
2.33917e-18
3.95575e-18
3.75688e-18
2.40178e-18
2.02419e-18
2.45545e-18
2.63045e-18
1.46205e-18
3.975e-18
1.76608e-18
1.21417e-18
1.78933e-18
2.80826e-18
2.69276e-18
3.61984e-18
2.88871e-18
1.39705e-18
1.67217e-18
1.49311e-18
2.22919e-18
6.38773e-19
3.40744e-18
2.60179e-18
3.05305e-18
1.51326e-18
1.59639e-18
2.28021e-18
1.59532e-18
3.17998e-18
1.70846e-18
3.21383e-18
3.29025e-18
1.51538e-18
3.31925e-18
2.07974e-18
1.63456e-18
1.75938e-18
2.84933e-18
6.34694e-19
2.72044e-18
3.79564e-18
3.66219e-18
4.88986e-18
2.2216e-18
1.75858e-18
1.3787e-18
4.51606e-18
1.49921e-18
2.28102e-18
1.11684e-18
1.41598e-18
2.42784e-18
2.14933e-18
4.64398e-18
3.51909e-18
1.75466e-18
3.32788e-18
2.42868e-18
2.52586e-18
2.87876e-18
2.32699e-18
1.25584e-18
2.26894e-18
3.04904e-18
4.8703e-18
6.70424e-18
6.98991e-18
3.34688e-18
1.64252e-18
2.90477e-18
3.92744e-18
2.15205e-18
2.75515e-18
2.75064e-18
1.39953e-18
1.64405e-18
2.66003e-18
1.82629e-18
5.62233e-19
1.02416e-18
3.03136e-18
3.54341e-18
3.45523e-18
2.51792e-18
3.14234e-18
2.6115e-18
1.80275e-18
2.4143e-18
4.64615e-18
4.46819e-18
2.18219e-18
2.57638e-18
1.67972e-18
3.17482e-18
3.71348e-18
1.89154e-18
2.37389e-18
1.04474e-18
2.20877e-18
3.56767e-18
3.40295e-18
1.77033e-18
2.57825e-18
1.32357e-18
3.03722e-18
1.53075e-18
1.01711e-18
2.72463e-18
4.74561e-18
2.426e-18
2.00741e-18
2.44038e-18
1.84436e-18
1.46448e-18
2.01558e-18
1.32663e-18
3.06374e-18
3.37595e-18
2.9082e-18
3.11089e-18
2.8171e-18
2.31849e-18
3.05081e-18
1.79204e-18
2.0006e-18
2.01563e-18
1.99352e-18
2.25013e-18
1.01205e-18
7.03718e-19
2.14134e-18
1.84257e-18
2.39627e-18
3.23764e-18
2.37119e-18
1.1576e-18
1.35586e-18
9.91878e-19
9.41043e-19
3.86753e-18
2.97062e-18
3.39601e-18
3.73457e-18
4.76865e-18
2.66628e-18
1.89476e-18
2.31234e-18
1.94669e-18
3.82307e-18
4.89913e-19
2.92929e-18
2.45341e-18
1.74753e-18
3.76631e-18
2.96141e-18
2.50311e-18
1.6348e-18
2.18606e-18
3.43184e-18
3.42044e-18
2.91756e-18
2.10493e-18
2.99305e-18
2.3336e-18
5.09833e-18
3.2323e-18
5.21482e-18
5.71421e-18
1.83071e-18
9.66016e-19
1.06434e-18
2.1029e-18
2.66975e-18
3.50738e-18
2.94331e-18
2.84627e-18
1.59258e-18
1.94114e-18
1.91066e-18
2.53444e-18
3.23739e-18
2.53666e-18
1.04573e-18
1.79536e-18
2.18421e-18
5.75421e-18
3.26695e-18
1.94276e-18
4.90506e-18
4.11643e-18
4.86983e-18
3.90863e-18
1.98143e-18
2.56187e-18
5.40378e-18
3.09244e-18
1.43229e-18
1.73202e-18
2.05084e-18
4.78241e-18
4.20392e-18
1.85076e-18
3.21676e-18
3.42745e-18
1.59104e-18
2.8432e-18
2.47137e-18
1.32322e-18
2.87138e-18
2.99922e-18
2.00162e-18
2.09158e-18
1.98471e-18
1.06451e-18
9.95021e-19
3.93653e-18
1.75264e-18
2.51768e-18
2.07895e-18
2.14577e-18
1.63727e-18
1.35564e-18
2.39448e-18
1.50916e-18
2.70096e-18
3.22468e-18
9.54828e-19
3.23601e-18
3.06225e-18
3.32129e-18
3.62894e-18
8.18865e-18
2.27729e-18
7.09437e-18
5.9565e-18
2.79073e-18
1.40698e-18
2.50751e-18
1.306e-18
2.24401e-18
5.7064e-18
3.79026e-18
2.4409e-18
1.04689e-18
1.98263e-18
9.93899e-19
1.20239e-18
1.39939e-18
1.20257e-18
2.29094e-18
3.59619e-18
1.90213e-18
3.93917e-18
2.06407e-18
4.78078e-18
3.32056e-18
2.8266e-18
1.35717e-18
2.52676e-18
2.10197e-18
2.72215e-18
3.76202e-18
5.17413e-19
2.61312e-18
2.62688e-18
2.34818e-18
5.70671e-18
2.9975e-18
1.87115e-18
2.73615e-18
1.68956e-18
2.51787e-18
2.47597e-18
9.68658e-19
1.0135e-18
3.12603e-18
3.89185e-18
2.41254e-18
6.75451e-19
6.13158e-18
4.51349e-18
2.52294e-18
1.51899e-18
2.17594e-18
3.01656e-18
1.29088e-18
3.41235e-18
1.78181e-18
1.20862e-18
1.12185e-18
2.60187e-18
1.867e-18
1.54042e-18
1.33574e-18
1.87933e-18
1.85667e-18
2.20198e-18
2.23585e-18
3.02407e-18
3.39063e-18
1.77253e-18
1.56141e-18
1.42209e-18
8.41544e-19
2.00194e-18
1.58002e-18
8.28821e-19
1.04493e-18
3.1308e-19
2.90999e-18
4.29489e-18
1.10841e-18
7.84507e-19
2.6461e-18
2.35556e-18
3.62604e-18
4.29411e-18
1.33754e-18
1.09097e-18
6.9265e-19
1.20445e-18
1.2106e-18
6.37961e-19
2.46517e-18
3.00958e-18
1.37815e-18
2.21748e-18
1.78737e-18
8.01175e-19
1.75371e-18
2.61275e-18
1.89885e-18
8.05862e-19
1.49847e-18
2.1689e-18
4.02044e-18
2.53717e-18
1.46398e-18
3.34413e-18
1.3543e-18
1.06145e-18
1.31808e-18
2.17058e-18
1.31464e-18
2.84219e-18
5.17029e-18
1.75068e-18
2.23969e-18
2.07506e-18
1.68791e-18
1.09869e-18
2.01453e-18
2.40481e-18
1.11114e-18
2.18303e-18
2.07421e-18
9.9086e-19
1.63916e-18
1.38399e-18
1.5298e-18
8.83031e-19
1.12753e-18
2.70386e-18
1.89193e-18
3.04271e-18
1.66427e-18
2.69012e-18
1.34021e-18
1.42054e-18
3.03446e-18
1.84477e-18
3.40355e-18
3.20315e-18
1.41514e-18
2.16168e-18
1.78818e-18
5.11087e-18
7.9499e-19
1.97789e-18
2.34977e-18
1.86365e-18
2.57187e-18
3.38222e-18
1.78808e-18
2.13901e-18
1.90658e-18
1.94391e-18
1.55465e-18
1.38205e-18
2.19341e-18
1.97062e-18
1.4609e-18
2.77991e-18
1.92158e-18
1.22684e-18
1.0253e-18
3.38405e-18
3.07441e-18
2.41998e-18
1.08614e-18
4.61643e-18
2.64132e-18
5.06214e-18
3.59529e-18
1.83934e-18
2.32755e-18
2.07631e-18
1.50566e-18
2.04201e-18
4.26271e-18
4.75995e-18
2.87662e-18
7.69066e-19
1.90148e-18
5.56662e-18
1.8397e-18
1.7521e-18
2.67163e-18
1.46778e-18
2.28116e-18
2.01973e-18
4.20757e-18
1.92016e-18
1.13914e-18
1.61965e-18
1.96715e-18
2.18103e-18
1.13254e-18
3.0652e-18
2.28996e-18
2.39813e-18
2.00386e-18
2.75741e-18
1.38791e-18
2.44721e-18
4.29339e-18
2.76243e-18
3.11532e-18
2.31623e-18
3.90777e-18
1.22029e-18
3.21247e-18
3.29419e-18
1.47436e-18
1.61956e-18
2.70513e-18
1.76673e-18
1.96738e-18
2.49122e-18
2.71207e-18
3.24427e-18
2.69069e-18
3.47811e-18
2.93379e-18
1.22769e-18
1.33861e-18
3.03815e-18
2.59635e-18
2.21316e-18
2.4507e-18
1.29598e-18
8.44922e-19
1.74685e-18
4.34979e-18
4.00672e-18
3.53118e-18
4.74927e-18
1.94437e-18
2.92168e-18
1.899e-18
1.51777e-18
3.21578e-18
2.30498e-18
2.24418e-18
2.32035e-18
1.99299e-18
1.98951e-18
2.50989e-18
2.40698e-18
1.30967e-18
1.03642e-18
9.1983e-19
3.88494e-18
3.76897e-18
3.29316e-18
1.8791e-18
2.41983e-18
1.44776e-18
1.74587e-18
2.24762e-18
1.03227e-18
8.00133e-19
2.26461e-18
3.28665e-18
3.02405e-18
4.03738e-18
1.5023e-18
2.01674e-18
3.43765e-18
3.01478e-18
3.68699e-18
2.04858e-18
1.45564e-18
1.51783e-18
2.7306e-18
2.94294e-18
3.60296e-18
6.86307e-18
3.51878e-18
2.2487e-18
2.61731e-18
1.25969e-18
2.92493e-18
3.6616e-18
2.10043e-18
3.17565e-18
3.30297e-18
2.0191e-18
2.78083e-18
2.84111e-18
2.09451e-18
1.49958e-18
2.17663e-18
2.80551e-18
2.33846e-18
2.89099e-18
1.57404e-18
4.06769e-18
1.46103e-18
1.09346e-18
2.15475e-18
2.85544e-18
2.12452e-18
2.37225e-18
1.9992e-18
2.07813e-18
4.57685e-18
3.60022e-18
2.67567e-18
2.44235e-18
2.67774e-18
3.68978e-18
3.80865e-18
3.06585e-18
1.47544e-18
1.43896e-18
2.16081e-18
1.65027e-18
1.34368e-18
2.73938e-18
1.35536e-18
2.59588e-18
2.40564e-18
1.98204e-18
3.21363e-18
2.09369e-18
1.56198e-18
1.25738e-18
1.68353e-18
2.4316e-18
2.02042e-18
1.23062e-18
1.74575e-18
4.75658e-18
8.05828e-18
2.34526e-18
3.37627e-18
2.41356e-18
1.3126e-18
2.4467e-18
5.37683e-18
1.76741e-18
3.26949e-18
3.53912e-18
2.2315e-18
1.71247e-18
1.23364e-18
1.59877e-18
2.52614e-18
1.46459e-18
1.5321e-18
2.40874e-18
3.73338e-18
4.02744e-18
1.10912e-18
1.42122e-18
1.28999e-18
2.2207e-18
2.79312e-18
3.68084e-18
4.36464e-18
3.05359e-18
4.39406e-18
2.83466e-18
1.35229e-18
2.10852e-18
2.57474e-18
3.1418e-18
4.54656e-18
3.6034e-18
2.26879e-18
3.24046e-18
1.13952e-18
1.10802e-18
2.86387e-18
2.57648e-18
3.61123e-18
3.39697e-18
8.76802e-18
5.12116e-18
3.88831e-18
2.79535e-18
3.80072e-18
3.42107e-18
2.40452e-18
3.45498e-18
4.4796e-18
2.93194e-18
3.11739e-18
2.2494e-18
1.31091e-18
1.70352e-18
3.46616e-18
2.32713e-18
3.64161e-18
2.57498e-18
7.5529e-19
1.65446e-18
1.75723e-18
4.04777e-18
1.32784e-18
2.09898e-18
3.07732e-18
4.43769e-18
3.53473e-18
2.18691e-18
3.17155e-18
3.76065e-18
3.32624e-18
2.55218e-18
2.70881e-18
9.59711e-19
1.48217e-18
2.87366e-18
1.26221e-18
1.6283e-18
1.18982e-18
3.80381e-18
1.80767e-18
1.93579e-18
2.58748e-18
1.58718e-18
3.77703e-18
2.89562e-18
3.05927e-18
2.33929e-18
2.92312e-18
1.61049e-18
2.0268e-18
2.61551e-18
2.69947e-18
3.57533e-18
2.43519e-18
1.92825e-18
2.47144e-18
4.42867e-18
1.80783e-18
4.32321e-18
2.93975e-18
2.15706e-18
9.74805e-19
5.72091e-19
2.03072e-18
3.74767e-18
1.11418e-18
3.36752e-18
4.77785e-18
4.20055e-18
2.66505e-18
4.93549e-18
3.53965e-18
1.17512e-18
2.01859e-18
3.22766e-18
6.10891e-18
2.84152e-18
1.9938e-18
2.68339e-18
2.2221e-18
3.04143e-18
1.22138e-18
8.43369e-19
2.50745e-18
2.19362e-18
2.249e-18
3.49046e-19
1.96233e-18
7.44832e-19
8.90433e-19
3.03455e-18
1.83533e-18
1.10162e-18
1.90057e-18
7.82235e-19
9.60424e-19
5.14892e-19
1.27352e-18
2.34907e-18
1.04867e-18
3.34364e-18
2.71991e-18
3.2095e-18
4.26022e-18
1.13239e-18
1.37394e-18
1.73633e-18
2.84054e-18
2.61158e-18
2.88664e-18
1.32768e-18
6.0254e-19
1.26775e-18
1.29094e-18
4.63832e-19
1.3876e-18
8.20717e-19
4.79255e-18
1.2435e-18
1.4783e-18
1.73815e-18
1.64745e-18
3.20938e-18
1.35829e-18
1.5098e-18
2.18917e-18
3.33874e-18
3.35722e-18
1.92587e-18
2.28193e-18
1.12422e-18
1.3954e-18
2.10814e-18
2.04948e-18
1.58614e-18
1.67943e-18
2.1496e-18
5.00785e-18
2.40313e-18
1.08451e-18
2.22485e-18
2.40639e-18
1.31049e-18
2.31142e-18
2.59769e-18
1.81466e-18
1.29174e-18
2.06583e-18
1.4982e-18
1.02139e-18
2.74072e-18
1.11052e-18
2.09965e-18
4.6607e-18
2.44295e-18
1.82393e-18
3.26535e-18
5.18916e-18
2.65543e-18
4.39801e-18
3.30509e-18
1.37987e-18
2.00923e-18
4.91113e-18
2.33304e-18
1.6816e-18
1.24439e-18
1.36264e-18
2.59508e-18
2.53321e-18
1.69469e-18
1.85637e-18
3.12713e-18
3.50735e-18
2.98514e-18
5.99214e-18
3.14894e-18
2.10677e-18
1.12426e-18
2.81701e-18
4.26174e-18
1.49118e-18
1.29732e-18
1.86102e-18
5.94922e-19
9.24564e-19
1.67173e-18
6.26658e-19
1.31736e-18
1.98313e-18
3.49513e-18
3.91346e-18
1.69229e-18
1.84045e-18
1.23014e-18
2.96994e-18
3.79346e-18
3.43154e-18
1.68481e-18
1.10762e-18
1.33338e-18
2.76522e-18
1.46202e-18
1.15862e-18
1.27783e-18
1.36892e-18
5.41554e-18
3.06633e-18
2.42789e-18
6.47116e-18
1.73835e-18
5.63153e-18
2.63344e-18
2.47614e-18
3.40697e-18
2.30154e-18
2.35104e-18
2.09372e-18
2.57766e-18
3.37689e-18
1.4031e-18
1.24051e-18
2.31138e-18
5.0494e-18
1.57398e-18
2.89774e-18
1.93411e-18
2.64742e-18
2.07496e-18
2.04702e-18
3.90208e-18
3.37527e-18
1.48827e-18
2.02558e-18
3.90721e-18
3.47416e-18
2.56631e-18
1.32702e-18
1.79846e-18
1.94721e-18
3.55867e-18
1.65126e-18
2.93939e-18
1.45454e-18
1.98027e-18
3.4134e-18
2.83161e-18
4.74809e-18
3.38993e-18
3.04121e-18
1.67463e-18
2.55495e-18
1.78233e-18
1.51296e-18
1.6595e-18
1.58081e-18
1.35287e-18
2.10254e-18
1.35701e-18
1.42252e-18
3.91192e-18
3.061e-18
1.98343e-18
1.54322e-18
3.42758e-18
2.28409e-18
3.34175e-18
5.07571e-18
2.47483e-18
1.29612e-18
1.62589e-18
1.72092e-18
3.69397e-18
4.16384e-18
3.48656e-18
2.84935e-18
1.4888e-18
4.10467e-18
3.28794e-18
1.63257e-18
2.0978e-18
1.73266e-18
1.31789e-18
1.82295e-18
3.64134e-18
2.81249e-18
2.51591e-18
2.83119e-18
1.8589e-18
2.6728e-18
3.31808e-18
2.62161e-18
1.23977e-18
1.79219e-18
2.51975e-18
2.57912e-18
2.42238e-18
2.4701e-18
3.93149e-18
2.69925e-18
2.28569e-18
2.68784e-18
2.10715e-18
2.97779e-18
3.40856e-18
2.95198e-18
1.24006e-18
1.06754e-18
1.10334e-18
1.57146e-18
2.53706e-18
3.23454e-18
1.61471e-18
1.93907e-18
1.93706e-18
3.27625e-18
2.92128e-18
2.27616e-18
7.38114e-19
1.40614e-18
3.49059e-18
2.14651e-18
1.64965e-18
1.81e-18
2.1696e-18
1.93056e-18
1.95275e-18
2.3619e-18
1.25552e-18
1.9374e-18
2.77521e-18
2.30678e-18
3.57669e-18
2.43052e-18
5.51017e-18
2.51269e-18
1.39954e-18
2.00927e-18
3.00174e-18
3.11147e-18
2.25732e-18
2.17943e-18
1.57103e-18
1.6845e-18
1.38492e-18
1.93211e-18
1.42293e-18
4.14946e-18
4.25459e-18
2.10109e-18
2.78395e-18
1.55763e-18
3.04972e-18
4.4463e-18
4.81562e-18
2.87616e-18
2.64453e-18
3.18119e-18
2.32218e-18
2.75518e-18
2.41356e-18
4.87091e-18
2.70719e-18
2.83606e-18
2.54007e-18
1.80806e-18
3.51031e-18
2.56352e-18
4.00042e-18
3.19496e-18
3.5022e-18
2.32947e-18
2.34684e-18
1.87814e-18
2.67942e-18
4.56648e-18
2.75853e-18
2.39736e-18
2.50664e-18
2.33272e-18
3.12371e-18
1.62413e-18
2.36466e-18
2.01687e-18
1.77742e-18
1.42014e-18
8.29048e-19
2.47885e-18
2.45522e-18
3.42374e-18
3.39742e-18
2.1434e-18
1.86161e-18
2.5389e-18
1.26555e-18
4.33278e-18
4.23817e-18
3.39599e-18
4.0779e-18
5.69807e-18
3.43102e-18
1.49443e-18
1.2329e-18
1.58623e-18
2.43436e-18
2.52804e-18
1.8534e-18
2.48864e-18
1.2252e-18
1.64294e-18
1.4188e-18
2.24458e-18
3.03338e-18
3.60564e-18
1.36885e-18
2.03834e-18
2.7239e-18
1.4256e-18
6.14222e-19
2.26579e-18
2.17548e-18
2.04252e-18
2.19939e-18
3.65874e-18
2.44305e-18
2.29646e-18
2.51047e-18
3.17436e-18
2.96133e-18
1.00992e-18
2.85486e-18
4.93627e-18
3.10636e-18
1.55513e-18
2.20494e-18
3.35133e-18
3.75885e-18
2.61576e-18
1.82906e-18
4.26525e-18
4.51628e-18
1.59701e-18
2.94424e-18
2.13352e-18
2.68413e-18
3.40029e-18
2.08753e-18
2.09827e-18
2.18683e-18
3.53372e-18
1.42643e-18
3.50542e-18
3.38739e-18
1.44801e-18
1.12848e-18
1.29838e-18
4.36837e-18
5.69668e-18
5.02859e-18
2.46837e-18
6.11475e-18
2.81491e-18
2.3036e-18
2.69193e-18
5.08673e-18
9.79347e-19
2.21494e-18
2.93295e-18
3.73246e-18
2.34005e-18
7.28518e-19
2.30928e-18
1.19737e-18
5.89878e-19
2.1582e-18
2.89913e-18
2.17394e-18
3.63486e-18
3.717e-18
1.71582e-18
3.26549e-18
1.1938e-18
2.19977e-18
7.26975e-18
5.27557e-18
1.82605e-18
1.06318e-18
1.38384e-18
1.22847e-18
1.1063e-18
1.38536e-18
1.96425e-18
2.47798e-18
5.78086e-18
2.45422e-18
2.19396e-18
1.3959e-18
1.68968e-18
1.03305e-18
2.29638e-18
2.65484e-18
2.06937e-18
1.36601e-18
1.6005e-18
9.9772e-19
1.74195e-18
1.19892e-18
3.90411e-18
6.35618e-18
1.53986e-18
1.18917e-18
1.37282e-18
3.01483e-18
3.20116e-18
1.16112e-18
2.68322e-18
1.29345e-18
3.22597e-18
1.86999e-18
2.1593e-18
7.16281e-19
1.62858e-18
1.28882e-18
4.29503e-18
3.31496e-18
3.33357e-18
1.30694e-18
2.00492e-18
3.78382e-18
3.36043e-18
1.31496e-18
1.38449e-18
2.1537e-18
1.19664e-18
9.61835e-19
1.82199e-18
1.35905e-18
2.65412e-18
3.70174e-18
1.22099e-18
2.34738e-18
2.99983e-18
1.61374e-18
1.68132e-18
2.74358e-18
1.32964e-18
1.42692e-18
1.16234e-18
9.42718e-19
1.72498e-18