/*--------------------------------*- C++ -*----------------------------------*\
  =========                 |
  \\      /  F ield         | OpenFOAM: The Open Source CFD Toolbox
   \\    /   O peration     | Website:  https://openfoam.org
    \\  /    A nd           | Version:  7
     \\/     M anipulation  |
\*---------------------------------------------------------------------------*/
FoamFile
{
    version     2.0;
    format      ascii;
    class       volScalarField;
    location    "1000";
    object      k2Write;
}
// * * * * * * * * * * * * * * * * * * * * * * * * * * * * * * * * * * * * * //

dimensions      [0 2 0 0 0 0 0];

internalField   nonuniform List<scalar> 
160000
(
1.40895e-18
1.98897e-18
2.02486e-18
2.68619e-18
3.96359e-18
1.92259e-18
3.13293e-18
1.13794e-18
2.08974e-18
4.15209e-18
3.20624e-18
2.24569e-18
4.31555e-18
3.61756e-18
1.21971e-18
1.98613e-18
1.41663e-18
1.36296e-18
2.33602e-18
2.52189e-18
2.64083e-18
2.19052e-18
2.3716e-18
3.73583e-18
3.42796e-18
4.71523e-18
3.81119e-18
2.31773e-18
2.83812e-18
1.57805e-18
1.627e-18
3.00004e-18
6.60894e-18
3.19742e-18
2.7011e-18
3.53014e-18
3.09443e-18
4.62953e-18
1.25925e-18
2.12015e-18
2.90992e-18
2.89979e-18
3.42811e-18
1.57951e-18
3.01866e-18
2.89513e-18
2.44444e-18
1.73024e-18
3.33125e-18
1.91697e-18
2.72963e-18
5.04766e-18
3.22252e-18
2.34857e-18
5.33713e-18
1.82512e-18
5.28346e-18
1.48741e-18
1.23357e-18
1.73138e-18
7.78144e-18
2.11382e-18
2.05249e-18
1.62464e-18
1.19772e-18
5.01106e-18
3.33979e-18
4.26656e-18
1.08436e-18
4.72503e-19
4.56615e-18
1.35577e-18
3.89654e-18
1.81529e-18
3.13116e-18
2.41708e-18
3.406e-18
2.13692e-18
4.41657e-18
2.52639e-18
4.73374e-18
6.22997e-18
3.36205e-18
2.61647e-18
2.50312e-18
2.0938e-18
2.10162e-18
1.33407e-18
2.06765e-18
3.6475e-18
1.34261e-18
4.40584e-18
5.1566e-18
4.51199e-18
3.12413e-18
1.46902e-18
2.55348e-18
1.84317e-18
1.9515e-18
1.23754e-18
2.39324e-18
9.42749e-19
3.90788e-18
2.00017e-18
1.14748e-18
3.04097e-18
1.12864e-18
2.59535e-18
3.10965e-18
2.94132e-18
4.04532e-18
1.23674e-18
5.0372e-18
2.17449e-18
1.95585e-18
2.83704e-18
1.60834e-18
2.13488e-18
4.10586e-18
2.74396e-18
2.17094e-18
1.37973e-18
2.80973e-18
3.18506e-18
4.04201e-18
7.8851e-18
5.34893e-18
2.08791e-18
3.3136e-18
3.31371e-18
2.32619e-18
2.06359e-18
3.41308e-18
6.89084e-18
3.28543e-18
3.02446e-18
1.75072e-18
2.41427e-18
1.58e-18
1.12421e-18
3.52993e-18
4.31185e-18
7.6768e-19
2.71654e-18
5.0648e-18
2.41609e-18
2.9211e-18
3.02079e-18
2.61875e-18
1.6102e-18
1.15317e-18
2.08761e-18
1.27806e-18
3.39958e-18
1.03732e-18
2.50467e-18
2.45762e-18
4.89468e-18
3.04187e-18
3.93989e-18
2.06644e-18
2.52773e-18
1.65448e-18
4.09495e-18
1.11627e-18
3.37856e-18
2.97052e-18
1.56788e-18
2.25072e-18
1.44977e-18
4.37908e-18
5.48496e-18
2.0609e-18
7.92074e-18
3.43216e-18
1.79518e-18
2.4612e-18
2.60005e-18
6.21143e-18
4.85539e-18
1.09278e-18
4.32308e-18
1.70206e-18
1.31058e-18
1.39001e-18
1.43543e-18
1.70177e-18
1.54479e-18
1.14071e-18
2.20869e-18
2.65485e-18
1.74784e-18
2.85972e-18
3.59177e-18
5.32626e-18
7.66257e-19
2.44543e-18
4.78008e-18
3.94897e-18
5.77141e-18
5.30134e-18
3.14103e-18
3.28675e-18
2.80854e-18
2.78772e-18
3.28278e-18
1.6499e-18
2.58478e-18
3.34657e-18
2.6304e-18
3.67271e-18
3.70199e-18
1.93883e-18
2.33067e-18
3.97148e-18
2.38805e-18
1.58252e-18
4.37375e-18
5.51986e-18
3.44443e-18
5.65142e-18
3.19719e-18
1.54007e-18
1.93763e-18
1.85008e-18
1.80809e-18
2.69893e-18
1.01642e-18
2.92619e-18
1.62987e-18
5.80993e-19
2.20702e-18
1.29352e-18
2.02978e-18
1.91907e-18
2.91411e-18
1.23316e-18
2.49233e-18
1.18123e-18
2.53053e-18
1.76118e-18
1.5601e-18
2.26564e-18
1.33884e-18
2.49477e-18
2.37404e-18
2.84821e-18
2.23068e-18
5.35077e-18
2.54192e-18
4.26799e-18
3.12428e-18
1.47712e-18
1.1742e-18
1.45185e-18
3.05645e-18
1.81948e-18
1.28846e-18
2.41608e-18
7.03012e-18
5.79567e-18
2.53187e-18
2.33524e-18
1.32681e-18
2.14809e-18
2.54649e-18
3.04727e-18
2.199e-18
3.31768e-18
5.3643e-18
1.26346e-18
1.65944e-18
2.00514e-18
1.87553e-18
2.10688e-18
1.94128e-18
2.93209e-18
3.96723e-18
1.37475e-18
2.32327e-18
1.67439e-18
2.1255e-18
2.18799e-18
2.19168e-18
1.92369e-18
1.50715e-18
3.86999e-18
1.72337e-18
4.4866e-18
4.56277e-18
3.52472e-18
8.53634e-19
1.81337e-18
1.89138e-18
3.01588e-18
3.83254e-18
3.45307e-18
8.19747e-19
3.14796e-18
1.28177e-18
1.99025e-18
2.14227e-18
4.86707e-18
4.25261e-18
3.87929e-18
2.22957e-18
3.23426e-18
2.36821e-18
1.65494e-18
3.91153e-18
2.76738e-18
1.82546e-18
2.65103e-18
3.43896e-18
1.33461e-18
2.83278e-18
3.42126e-18
2.02692e-18
2.79318e-18
2.99866e-18
1.52516e-18
2.44694e-18
2.22882e-18
3.81554e-18
2.03846e-18
2.84291e-18
4.02506e-18
2.70587e-18
1.94311e-18
2.49197e-18
1.48198e-18
2.25195e-18
1.75362e-18
2.64171e-18
2.31538e-18
2.71108e-18
3.80463e-18
4.6488e-18
9.51802e-18
2.38091e-18
1.1196e-18
2.27433e-18
2.46819e-18
1.45763e-18
3.67803e-18
8.22989e-19
1.18899e-18
2.0356e-18
1.87477e-18
2.66739e-18
2.81934e-18
2.24124e-18
4.67915e-18
1.76201e-18
2.22714e-18
2.13405e-18
3.18531e-18
2.22625e-18
2.13853e-18
1.57609e-18
1.99298e-18
2.10485e-18
2.95641e-18
1.82971e-18
3.55274e-18
3.09808e-18
1.92447e-18
9.34288e-18
3.67469e-18
1.81514e-18
1.44711e-18
2.4724e-18
2.56711e-18
8.58237e-18
1.51242e-18
5.84913e-18
1.95858e-18
2.00395e-18
1.31504e-18
1.55752e-18
1.69066e-18
1.71948e-18
1.69519e-18
2.69591e-18
3.30899e-18
3.57002e-18
4.20558e-18
3.78921e-18
2.55314e-18
2.03976e-18
2.68718e-18
2.03241e-18
3.21645e-18
2.39234e-18
1.3527e-18
4.60206e-18
3.6804e-18
1.21718e-18
8.77139e-18
5.11379e-18
5.92566e-18
1.41186e-18
1.79605e-18
1.83896e-18
1.58235e-18
2.04297e-18
3.28621e-18
2.39162e-18
2.38807e-18
2.74946e-18
3.32954e-18
1.85873e-18
2.1597e-18
2.57408e-18
3.96438e-18
1.6209e-18
1.82687e-18
6.06873e-18
5.44052e-18
3.65609e-18
2.08118e-18
2.23286e-18
3.38345e-18
3.25156e-18
1.37883e-18
2.10023e-18
6.06647e-18
4.87132e-18
2.63484e-18
4.23031e-18
3.17037e-18
2.06412e-18
2.71395e-18
2.09278e-18
1.50456e-18
3.34725e-18
4.90885e-18
4.89862e-19
2.86814e-18
5.95084e-18
3.08678e-18
1.99171e-18
3.9171e-18
1.22895e-18
3.00322e-18
4.72627e-18
2.41661e-18
1.42044e-18
3.10353e-18
5.13265e-18
2.19643e-18
2.54356e-18
1.7596e-18
6.30452e-18
1.03883e-18
2.49132e-18
3.23525e-18
1.65325e-18
2.10454e-18
2.19315e-18
2.29819e-18
3.00173e-18
1.73337e-18
1.49557e-18
2.66128e-18
2.36059e-18
1.25916e-18
4.28966e-18
3.80187e-18
5.92106e-18
5.22002e-18
3.43182e-18
1.33934e-18
2.27566e-18
2.09827e-18
3.41659e-18
2.0492e-18
2.18747e-18
1.87103e-18
4.21052e-18
3.35805e-18
2.54954e-18
2.67514e-18
2.65194e-18
6.56481e-18
6.26354e-18
1.64352e-18
2.01476e-18
2.28797e-18
3.44919e-18
4.37238e-18
2.86133e-18
6.41079e-18
4.25336e-18
1.78775e-18
3.33167e-18
2.48032e-18
3.37528e-18
2.93522e-18
1.59009e-18
3.66685e-18
2.51939e-18
1.22052e-18
6.12686e-18
2.71715e-18
1.46132e-18
3.37928e-18
4.58383e-18
2.90755e-18
3.46341e-18
2.81936e-18
1.22902e-18
1.76409e-18
1.57165e-18
2.09272e-18
2.39918e-18
2.42753e-18
2.86553e-18
2.95668e-18
5.43899e-18
5.06631e-18
2.25323e-18
2.47091e-18
2.4111e-18
2.19348e-18
2.73465e-18
2.58664e-18
1.6619e-18
3.00535e-18
1.91753e-18
2.04726e-18
7.30676e-19
6.9328e-18
6.04222e-18
3.39273e-18
1.23417e-18
7.98995e-18
1.75267e-18
1.24402e-18
1.83251e-18
2.89781e-18
3.84508e-18
3.00286e-18
3.5567e-18
3.96863e-18
1.49476e-18
2.90469e-18
2.018e-18
1.99199e-18
1.29129e-18
6.19755e-18
1.16494e-18
1.48398e-18
2.30376e-18
2.15961e-18
3.63534e-18
1.78836e-18
3.57755e-18
1.5795e-18
3.71144e-18
2.98997e-18
4.26224e-18
2.61352e-18
2.24147e-18
1.84353e-18
3.15279e-18
5.14512e-18
2.22462e-18
3.10964e-18
2.29377e-18
2.18056e-18
2.11567e-18
9.19998e-19
6.78482e-18
2.05191e-18
3.28337e-18
3.04113e-18
1.9226e-18
2.85998e-18
2.08569e-18
1.70286e-18
2.58497e-18
1.6326e-18
8.74048e-19
3.17826e-18
2.22544e-18
2.47834e-18
1.20197e-18
1.9293e-18
4.22759e-18
4.14444e-18
3.08747e-18
2.13985e-18
5.48857e-18
2.46672e-18
4.20576e-18
4.2477e-18
5.03752e-18
4.838e-18
4.04464e-18
4.45333e-18
2.48656e-18
2.50108e-18
3.81269e-18
8.5121e-18
5.71283e-18
2.42706e-18
2.65088e-18
2.41947e-18
3.77205e-18
1.85288e-18
1.62733e-18
2.96966e-18
2.43063e-18
1.52286e-18
2.57878e-18
2.58939e-18
2.99965e-18
3.14354e-18
1.61793e-18
1.84355e-18
8.98205e-19
2.47e-18
1.82403e-18
3.55718e-18
2.83017e-18
4.10086e-18
1.5849e-18
3.27646e-18
1.98243e-18
2.29321e-18
2.1173e-18
7.17007e-18
4.98828e-18
1.32066e-18
1.95995e-18
2.3252e-18
2.74283e-18
1.3237e-18
2.17489e-18
1.24579e-18
1.46662e-18
4.10902e-18
3.11236e-18
9.74859e-19
4.70433e-18
4.15811e-18
3.51315e-18
4.04841e-18
4.84041e-18
3.50849e-18
4.76115e-18
6.06607e-18
1.77585e-18
2.15766e-18
3.73184e-18
1.49752e-18
3.7214e-18
3.82789e-18
4.14523e-18
1.14786e-18
2.41783e-18
2.47014e-18
2.27335e-18
4.76504e-18
3.62853e-18
7.67126e-19
3.03324e-18
6.53753e-18
3.42263e-18
1.67987e-18
4.05703e-18
2.5493e-18
1.21985e-18
2.23535e-18
2.43169e-18
5.52625e-18
2.94217e-18
1.51359e-18
1.87683e-18
2.70068e-18
2.45519e-18
3.30403e-18
4.56653e-18
3.39062e-18
2.35337e-18
1.83904e-18
1.59953e-18
1.99877e-18
2.90839e-18
1.53256e-18
2.92158e-18
3.64887e-18
3.72385e-18
7.67632e-19
2.64551e-18
3.22564e-18
2.018e-18
2.20205e-18
4.71293e-18
2.1859e-18
4.52659e-18
2.66963e-18
2.24198e-18
2.09527e-18
1.56143e-18
1.97851e-18
2.68581e-18
1.29377e-18
2.86676e-18
1.84262e-18
2.1869e-18
3.56655e-18
3.8318e-18
3.76647e-18
1.65372e-18
9.30438e-19
1.68259e-18
2.54812e-18
2.29806e-18
2.25629e-18
1.68348e-18
3.65773e-18
7.5942e-18
3.44867e-18
2.68327e-18
5.56557e-18
7.33619e-18
1.90965e-18
2.29596e-18
3.82122e-18
1.96376e-18
1.56112e-18
4.12362e-18
2.5355e-18
1.89657e-18
3.1626e-18
3.87785e-18
2.45173e-18
2.28951e-18
2.47085e-18
4.14027e-18
2.33789e-18
2.28041e-18
1.77438e-18
2.32164e-18
1.40623e-18
1.92424e-18
1.98478e-18
2.69622e-18
1.29854e-18
2.31218e-18
2.06062e-18
4.32257e-18
1.60954e-18
1.7408e-18
2.02542e-18
1.80634e-18
1.49987e-18
1.77095e-18
1.886e-18
2.88279e-18
2.23164e-18
2.15419e-18
4.54787e-18
2.88148e-18
4.74346e-18
4.84013e-18
1.86887e-18
1.85179e-18
1.73852e-18
1.03019e-18
1.86004e-18
1.36361e-18
2.77291e-18
1.20849e-18
2.70957e-18
3.50156e-18
1.66536e-18
2.32009e-18
3.91285e-18
7.84103e-19
6.39265e-18
1.99423e-18
1.00976e-18
3.90741e-18
2.11797e-18
1.66863e-18
2.41162e-18
3.98474e-18
1.666e-18
2.86255e-18
4.09632e-18
2.07041e-18
1.49506e-18
4.48719e-18
1.23446e-18
3.23025e-18
1.64149e-18
4.60632e-18
1.05712e-18
8.33167e-19
2.48154e-18
9.19555e-19
3.6948e-18
1.13024e-18
2.153e-18
3.74506e-18
1.50279e-18
3.75785e-18
6.16406e-18
3.32993e-18
2.0226e-18
3.85579e-18
6.51058e-18
3.0006e-18
6.90647e-18
4.68685e-18
2.02839e-18
3.83084e-18
2.30141e-18
2.73214e-18
1.7839e-18
1.2807e-18
1.34931e-18
1.91496e-18
2.29178e-18
2.43201e-18
6.25112e-18
2.68227e-18
2.17732e-18
3.17879e-18
3.19081e-18
3.72004e-18
1.35591e-18
1.85195e-18
2.41593e-18
1.70349e-18
1.66138e-18
2.06206e-18
2.65957e-18
2.5788e-18
2.62752e-18
2.20504e-18
7.55864e-18
1.82644e-18
1.41672e-18
1.44547e-18
3.06641e-18
6.16071e-18
2.65456e-18
1.60844e-18
1.62135e-18
1.96558e-18
2.65321e-18
2.74251e-18
5.27102e-18
4.37792e-18
7.58816e-18
1.9233e-18
2.01213e-18
2.16114e-18
4.40764e-18
1.41545e-18
1.74921e-18
4.27235e-18
1.45569e-18
1.43032e-18
8.39716e-19
2.28727e-18
8.49169e-19
3.74399e-18
2.88348e-18
9.90735e-19
1.5064e-18
2.53611e-18
2.51603e-18
3.50476e-18
5.69243e-18
2.50688e-18
3.6901e-18
4.10961e-18
4.36281e-18
1.64546e-18
3.22443e-18
1.85363e-18
3.68986e-18
3.81259e-18
1.74153e-18
1.28301e-18
3.53334e-18
1.70805e-18
1.05172e-18
2.48532e-18
1.00382e-18
8.75439e-19
1.88515e-18
2.17931e-18
2.4531e-18
1.71124e-18
1.53869e-18
3.40417e-18
1.63279e-18
2.61381e-18
3.82411e-18
2.49604e-18
2.37464e-18
1.37528e-18
2.34045e-18
3.64014e-18
1.87094e-18
2.47173e-18
1.78686e-18
1.11962e-18
2.73634e-18
1.72232e-18
2.28489e-18
2.73282e-18
2.39154e-18
2.16841e-18
1.49587e-18
1.57572e-18
2.01587e-18
1.63773e-18
1.45743e-18
1.62843e-18
1.23593e-18
2.21046e-18
2.1408e-18
1.32289e-18
2.22065e-18
4.40001e-18
3.90838e-18
2.31921e-18
2.67043e-18
1.96275e-18
2.63787e-18
3.09129e-18
1.99975e-18
2.06058e-18
3.45125e-18
1.01368e-17
3.00551e-18
3.13538e-18
5.06982e-18
2.2346e-18
2.11991e-18
2.38417e-18
2.24126e-18
1.6126e-18
3.35093e-18
1.86388e-18
2.38178e-18
6.96648e-18
5.25446e-18
1.35423e-18
2.90869e-18
2.27921e-18
2.06878e-18
1.97625e-18
1.21379e-18
2.72944e-18
2.03525e-18
2.16035e-18
2.16315e-18
2.55792e-18
2.74232e-18
2.15623e-18
3.06316e-18
4.42576e-18
3.32598e-18
3.95233e-18
2.71191e-18
1.43232e-18
7.37369e-19
2.48713e-18
4.00211e-18
3.17416e-18
1.5926e-18
2.16933e-18
1.5506e-18
1.09848e-18
1.68286e-18
2.50946e-18
1.81226e-18
2.30832e-18
2.22e-18
3.12704e-18
3.57142e-18
6.52548e-18
3.17264e-18
2.3076e-18
2.92362e-18
3.17532e-18
3.06527e-18
5.85211e-18
2.81991e-18
2.96437e-18
3.6807e-18
1.99773e-18
2.60862e-18
3.37104e-18
3.23885e-18
3.10291e-18
1.80452e-18
2.63458e-18
1.09569e-18
3.21983e-18
2.50173e-18
1.25748e-18
1.4145e-18
2.83222e-18
2.29037e-18
1.19834e-18
1.91142e-18
2.2325e-18
2.63392e-18
1.80774e-18
1.47906e-18
1.73013e-18
2.72613e-18
2.44673e-18
2.0699e-18
3.04706e-18
2.42107e-18
3.17264e-18
1.71223e-18
2.85623e-18
4.69661e-18
1.65667e-18
1.32789e-18
2.23086e-18
3.46186e-18
1.48e-18
4.37586e-18
3.27361e-18
1.25476e-18
1.31921e-18
1.71152e-18
3.81824e-18
3.81317e-18
2.8487e-18
4.98903e-18
2.75551e-18
4.42732e-18
2.41398e-18
5.74327e-18
3.44627e-18
1.74125e-18
2.37777e-18
2.59501e-18
2.74975e-18
2.63773e-18
1.79708e-18
2.16552e-18
2.24754e-18
1.53196e-18
2.3902e-18
2.20917e-18
1.46277e-18
2.06049e-18
3.2654e-18
1.7635e-18
2.96546e-18
2.69881e-18
3.35329e-18
3.54518e-18
3.58438e-18
1.64812e-18
1.20528e-18
1.38098e-18
2.78116e-18
2.5337e-18
2.76362e-18
4.19945e-18
2.16204e-18
5.61819e-18
3.40098e-18
1.55141e-18
4.22083e-18
2.07726e-18
5.24765e-18
2.05185e-18
2.01573e-18
1.04033e-18
2.98807e-18
1.8761e-18
2.10547e-18
2.23001e-18
2.62729e-18
4.74061e-18
2.78708e-18
2.13585e-18
2.88944e-18
3.96219e-18
6.42321e-18
3.65865e-18
1.73911e-18
5.81793e-18
2.99936e-18
2.93587e-18
1.50067e-18
1.72294e-18
2.58859e-18
4.06122e-18
3.3651e-18
2.58707e-18
1.41457e-18
2.27923e-18
3.27372e-18
1.94545e-18
2.30823e-18
2.54548e-18
2.34552e-18
1.04023e-18
1.39133e-18
2.8138e-18
2.3293e-18
1.98653e-18
2.25253e-18
3.06096e-18
3.94064e-18
4.36573e-18
3.40908e-18
1.64421e-18
2.8744e-18
2.146e-18
1.934e-18
1.80029e-18
1.8722e-18
3.51754e-18
3.1174e-18
9.79793e-19
2.92546e-18
1.22442e-18
1.44924e-18
2.56189e-18
2.50723e-18
2.25679e-18
2.79261e-18
1.97784e-18
1.70436e-18
4.42591e-18
3.09861e-18
1.66249e-18
3.3186e-18
3.78501e-18
1.74959e-18
8.06907e-19
1.38537e-18
3.00283e-18
1.95789e-18
5.65563e-18
2.83306e-18
1.5542e-18
2.63176e-18
4.02369e-18
3.56432e-18
1.31709e-18
7.9476e-19
1.81937e-18
2.70037e-18
4.31244e-18
3.11868e-18
2.90803e-18
8.66469e-19
2.25459e-18
2.26419e-18
1.58208e-18
2.82355e-18
3.4948e-18
3.65742e-18
3.03953e-18
3.60431e-18
3.3468e-18
2.56513e-18
2.23394e-18
1.70273e-18
2.02036e-18
3.25129e-18
1.32474e-18
2.01497e-18
2.66278e-18
3.19787e-18
1.72744e-18
1.32651e-18
3.13592e-18
2.93034e-18
3.30688e-18
2.37517e-18
1.39636e-18
3.53802e-18
3.19419e-18
2.28321e-18
3.23068e-18
2.62542e-18
1.42349e-18
3.79996e-18
3.36832e-18
2.2701e-18
4.82943e-18
4.43335e-18
4.8132e-18
5.24915e-18
5.56235e-18
4.98966e-18
3.29763e-18
5.58253e-18
3.50369e-18
4.88436e-18
2.06602e-18
2.38771e-18
2.60905e-18
1.88781e-18
5.89558e-18
3.57133e-18
5.04651e-18
4.20007e-18
3.12839e-18
3.36038e-18
1.56016e-18
6.48197e-18
1.56258e-18
2.89584e-18
6.36766e-18
1.36893e-18
1.88983e-18
3.40826e-18
2.00324e-18
6.36412e-19
1.3617e-18
1.76741e-18
2.74294e-18
3.3754e-18
4.10792e-18
2.96519e-18
3.93923e-18
8.34108e-19
2.15738e-18
5.80241e-18
5.59799e-18
3.51464e-18
2.94146e-18
3.0481e-18
4.01925e-18
2.76874e-18
3.07658e-18
2.00238e-18
2.62661e-18
1.65342e-18
5.2615e-18
3.63909e-18
9.41874e-19
3.72268e-18
2.55532e-18
1.86946e-18
1.62412e-18
2.50987e-18
1.94539e-18
4.00349e-18
2.42566e-18
5.45307e-18
2.2032e-18
1.80354e-18
2.13181e-18
2.51445e-18
2.4103e-18
1.86692e-18
2.91418e-18
3.92247e-18
9.98347e-19
1.3707e-18
1.7431e-18
3.55961e-18
6.01546e-18
4.10354e-18
1.53336e-18
4.25367e-18
2.27106e-18
7.38377e-19
5.22213e-18
2.81072e-18
2.56212e-18
1.86171e-18
5.26242e-18
4.49276e-18
4.03227e-18
5.26892e-18
2.24824e-18
6.7415e-18
1.41834e-18
4.3251e-18
2.22862e-18
2.31145e-18
1.53621e-18
4.64491e-18
1.29653e-18
1.55611e-18
2.6469e-18
5.66877e-18
2.1157e-18
2.89204e-18
3.80082e-18
2.44271e-18
3.88787e-18
4.38902e-18
2.99296e-18
2.38986e-18
2.51431e-18
2.80236e-18
1.51127e-18
4.16735e-18
2.27556e-18
1.56162e-18
1.83846e-18
2.88019e-18
2.75705e-18
4.32133e-18
3.68913e-18
1.78107e-18
2.088e-18
1.88022e-18
3.17811e-18
9.09199e-19
3.72346e-18
3.12016e-18
3.679e-18
1.82068e-18
1.70096e-18
2.48983e-18
1.90472e-18
3.51724e-18
1.8978e-18
2.61011e-18
2.66666e-18
1.22652e-18
3.23124e-18
2.60683e-18
2.04546e-18
2.19932e-18
3.556e-18
7.91194e-19
2.59571e-18
3.61727e-18
3.48463e-18
4.64792e-18
2.29683e-18
1.81612e-18
1.32655e-18
5.19804e-18
1.85375e-18
2.81693e-18
1.37775e-18
1.43617e-18
2.21506e-18
1.95844e-18
4.2275e-18
3.19927e-18
1.59383e-18
3.01904e-18
2.53442e-18
2.57072e-18
2.69162e-18
2.54085e-18
1.56502e-18
2.34093e-18
2.7739e-18
3.65732e-18
5.02965e-18
7.08254e-18
4.0794e-18
2.00032e-18
2.92627e-18
3.95298e-18
2.35385e-18
3.01479e-18
3.00722e-18
1.52877e-18
1.49658e-18
2.6023e-18
2.38236e-18
7.32834e-19
9.31306e-19
2.61032e-18
3.04876e-18
2.97051e-18
2.37791e-18
3.16136e-18
3.14097e-18
2.26071e-18
2.26372e-18
4.26198e-18
4.09584e-18
2.61244e-18
3.08193e-18
2.00794e-18
3.3006e-18
3.85789e-18
2.15805e-18
2.70664e-18
1.29469e-18
1.79791e-18
2.9017e-18
2.90125e-18
1.85246e-18
3.01793e-18
1.54858e-18
3.55107e-18
1.78894e-18
1.05163e-18
2.50307e-18
4.35674e-18
2.22627e-18
1.84081e-18
2.43327e-18
1.83771e-18
1.39149e-18
1.98677e-18
1.37138e-18
2.80899e-18
3.80202e-18
3.41689e-18
3.65394e-18
3.3074e-18
2.42388e-18
2.98307e-18
1.75142e-18
1.85913e-18
1.90261e-18
1.87648e-18
2.3956e-18
1.36626e-18
7.58743e-19
1.84287e-18
1.29448e-18
1.68267e-18
2.489e-18
2.90265e-18
1.41646e-18
1.65846e-18
1.21281e-18
9.17132e-19
3.31461e-18
2.54468e-18
2.82205e-18
3.09618e-18
3.95217e-18
2.75344e-18
2.00579e-18
2.33417e-18
1.94105e-18
3.81096e-18
6.19055e-19
2.98645e-18
2.50042e-18
1.69556e-18
3.65327e-18
2.87174e-18
2.44894e-18
1.70527e-18
1.95781e-18
3.04643e-18
3.03552e-18
3.02357e-18
2.3537e-18
3.15239e-18
2.01776e-18
3.76265e-18
2.38448e-18
5.52215e-18
6.04841e-18
1.93739e-18
1.02202e-18
9.9307e-19
1.84995e-18
2.34831e-18
3.08381e-18
2.59485e-18
3.13364e-18
1.75303e-18
1.9936e-18
1.89225e-18
2.50959e-18
3.60295e-18
3.01423e-18
1.24238e-18
1.64315e-18
1.90387e-18
5.01489e-18
2.85962e-18
1.67879e-18
4.06471e-18
3.41008e-18
4.94528e-18
4.95162e-18
2.50991e-18
2.24246e-18
4.43203e-18
3.55864e-18
1.92392e-18
1.8472e-18
1.39993e-18
3.26407e-18
2.86872e-18
1.59066e-18
2.76487e-18
3.34475e-18
1.80941e-18
2.99521e-18
2.77851e-18
1.48746e-18
2.60947e-18
3.40076e-18
2.27019e-18
2.37117e-18
2.25053e-18
1.20655e-18
9.03665e-19
3.50556e-18
1.97872e-18
2.54718e-18
2.15857e-18
2.15072e-18
1.72789e-18
1.32365e-18
2.21539e-18
1.43979e-18
2.49836e-18
2.98287e-18
9.67811e-19
2.64691e-18
2.50437e-18
2.62375e-18
2.55149e-18
5.75825e-18
1.60061e-18
4.98806e-18
5.20361e-18
3.04654e-18
1.53582e-18
2.73687e-18
1.52441e-18
1.79603e-18
4.56691e-18
3.03322e-18
2.42385e-18
1.14526e-18
2.17536e-18
1.09056e-18
1.30848e-18
1.52276e-18
1.19881e-18
1.94702e-18
3.05581e-18
1.61641e-18
3.34663e-18
1.83131e-18
4.24121e-18
3.61505e-18
3.2919e-18
1.58052e-18
2.722e-18
2.46851e-18
2.64187e-18
4.3481e-18
7.18654e-19
1.86219e-18
1.63508e-18
1.4619e-18
3.55133e-18
3.05057e-18
1.97354e-18
2.92e-18
2.02129e-18
3.01284e-18
2.96195e-18
1.15902e-18
1.00725e-18
3.04699e-18
4.35771e-18
2.70179e-18
7.1592e-19
5.69485e-18
4.18938e-18
2.34532e-18
1.56747e-18
2.24891e-18
3.41017e-18
1.45973e-18
3.85753e-18
2.01469e-18
1.36628e-18
1.04579e-18
2.36007e-18
1.69392e-18
1.66352e-18
1.53481e-18
2.19871e-18
3.85427e-18
4.61527e-18
3.59408e-18
3.41458e-18
5.05141e-18
2.6827e-18
2.35104e-18
2.3105e-18
1.44612e-18
3.41067e-18
2.91254e-18
1.52034e-18
1.77151e-18
5.32639e-19
4.80054e-18
7.98773e-18
2.05125e-18
1.20265e-18
4.03735e-18
3.57733e-18
5.48077e-18
7.07892e-18
2.19456e-18
1.76842e-18
1.10839e-18
1.91899e-18
1.92041e-18
9.24203e-19
3.164e-18
5.53351e-18
2.62703e-18
4.20945e-18
3.42346e-18
1.52827e-18
2.45821e-18
4.94315e-18
2.52715e-18
9.36709e-19
1.73534e-18
2.70464e-18
5.63839e-18
3.54422e-18
1.90952e-18
4.41255e-18
2.14468e-18
1.61086e-18
1.66559e-18
2.73289e-18
1.81764e-18
3.91581e-18
8.03882e-18
2.7121e-18
3.0689e-18
3.13751e-18
2.54343e-18
1.63351e-18
2.51228e-18
2.98904e-18
1.53983e-18
3.00125e-18
2.84234e-18
1.3535e-18
2.16882e-18
1.95752e-18
2.4793e-18
1.42666e-18
1.81633e-18
4.34178e-18
3.02863e-18
3.09231e-18
1.61441e-18
2.60168e-18
1.35304e-18
1.47962e-18
3.50089e-18
2.53741e-18
4.1539e-18
5.01157e-18
2.20807e-18
3.04706e-18
2.77544e-18
7.91128e-18
1.22737e-18
2.01765e-18
2.39095e-18
1.89162e-18
2.90259e-18
4.12213e-18
2.17385e-18
2.52461e-18
2.37582e-18
2.51475e-18
2.2354e-18
1.76507e-18
2.45557e-18
2.22437e-18
1.68698e-18
3.37768e-18
3.16189e-18
2.22427e-18
1.85496e-18
4.71585e-18
5.53839e-18
2.65618e-18
9.24703e-19
3.9234e-18
2.23958e-18
4.28523e-18
3.84516e-18
2.21579e-18
2.79841e-18
2.60619e-18
1.88865e-18
2.17328e-18
5.39845e-18
6.19845e-18
3.73945e-18
9.97929e-19
1.94685e-18
6.98279e-18
2.34944e-18
1.93905e-18
3.36992e-18
1.84832e-18
2.54694e-18
2.25141e-18
5.28314e-18
2.40701e-18
1.35287e-18
1.66396e-18
2.01794e-18
2.46798e-18
1.70383e-18
4.60364e-18
3.43445e-18
3.59103e-18
1.62898e-18
2.23004e-18
1.19203e-18
2.0286e-18
4.35578e-18
3.45223e-18
3.88892e-18
2.88687e-18
4.86506e-18
1.5169e-18
3.48899e-18
3.77355e-18
1.68697e-18
1.61581e-18
2.69558e-18
2.06186e-18
2.09626e-18
2.57675e-18
3.24465e-18
4.01029e-18
3.32125e-18
4.28955e-18
3.6132e-18
1.51051e-18
1.33045e-18
2.75684e-18
3.5379e-18
3.4787e-18
3.84875e-18
2.03272e-18
1.32412e-18
2.7343e-18
6.80286e-18
3.20736e-18
2.64901e-18
3.55938e-18
1.61355e-18
3.46546e-18
2.25025e-18
1.5276e-18
3.15131e-18
2.25678e-18
2.19535e-18
2.49455e-18
2.14082e-18
1.99046e-18
2.93868e-18
3.13745e-18
1.70579e-18
1.34886e-18
9.98448e-19
3.34007e-18
3.23823e-18
3.53189e-18
2.49806e-18
3.21456e-18
1.92184e-18
1.88324e-18
2.62695e-18
1.23932e-18
8.76735e-19
2.3561e-18
3.417e-18
3.14172e-18
4.45993e-18
1.98881e-18
3.0891e-18
2.90383e-18
2.45228e-18
2.99691e-18
2.27121e-18
1.70398e-18
1.65091e-18
2.55528e-18
2.75242e-18
3.36787e-18
7.15054e-18
3.85292e-18
2.46087e-18
2.86288e-18
1.37722e-18
2.7172e-18
3.39981e-18
1.94922e-18
2.94558e-18
3.06192e-18
2.06579e-18
2.68319e-18
3.00469e-18
2.459e-18
1.70858e-18
2.04394e-18
2.52697e-18
2.0908e-18
2.62271e-18
1.44237e-18
4.14223e-18
2.21894e-18
1.25131e-18
2.85694e-18
2.05754e-18
1.49187e-18
1.66517e-18
1.54769e-18
1.74746e-18
3.89835e-18
4.11062e-18
3.05358e-18
2.76841e-18
2.73001e-18
3.5908e-18
4.17678e-18
3.90022e-18
1.87634e-18
1.5361e-18
2.26319e-18
1.72792e-18
1.27562e-18
2.76236e-18
1.46882e-18
2.59361e-18
2.40279e-18
1.96632e-18
3.81435e-18
2.66331e-18
1.98641e-18
1.55409e-18
1.67864e-18
2.61036e-18
2.88633e-18
1.75762e-18
2.49267e-18
6.78972e-18
7.13528e-18
1.69851e-18
2.44393e-18
1.74726e-18
9.51407e-19
1.77328e-18
3.89578e-18
1.77175e-18
2.87578e-18
3.18519e-18
2.36971e-18
1.88537e-18
1.35792e-18
1.67669e-18
2.64878e-18
1.5354e-18
1.60573e-18
2.52405e-18
4.40316e-18
4.88657e-18
1.34547e-18
1.42955e-18
1.1354e-18
1.84057e-18
2.31421e-18
3.04973e-18
3.6151e-18
2.67892e-18
5.56703e-18
4.19285e-18
2.00002e-18
3.11786e-18
3.80661e-18
4.64437e-18
3.28334e-18
2.45926e-18
1.54819e-18
2.4342e-18
1.14858e-18
1.04767e-18
2.59958e-18
2.33863e-18
3.27714e-18
3.08262e-18
7.95246e-18
4.64615e-18
3.52584e-18
2.53552e-18
3.44561e-18
3.64826e-18
2.56286e-18
3.52649e-18
5.10783e-18
3.34155e-18
3.55372e-18
2.56318e-18
1.49379e-18
1.5763e-18
3.20699e-18
2.15278e-18
3.36863e-18
3.77012e-18
1.10587e-18
2.42208e-18
2.57249e-18
5.92481e-18
1.94337e-18
1.55358e-18
2.16374e-18
3.11837e-18
2.48509e-18
1.63477e-18
2.45745e-18
3.28343e-18
3.88318e-18
2.97881e-18
3.16128e-18
1.1199e-18
1.4357e-18
2.78339e-18
1.22249e-18
1.57698e-18
1.15227e-18
3.81652e-18
1.81363e-18
1.67752e-18
2.24317e-18
1.3908e-18
3.20954e-18
2.64123e-18
3.17248e-18
2.72428e-18
3.40431e-18
1.87554e-18
2.25635e-18
3.3492e-18
4.55587e-18
6.03249e-18
4.10759e-18
3.2524e-18
1.54475e-18
2.7559e-18
1.12545e-18
2.69025e-18
2.87939e-18
2.58048e-18
1.1665e-18
6.74934e-19
1.89977e-18
3.5059e-18
1.04226e-18
3.12672e-18
4.43773e-18
3.90003e-18
2.47525e-18
4.58091e-18
3.37804e-18
1.16228e-18
1.71617e-18
2.74344e-18
5.19356e-18
3.12272e-18
2.2016e-18
2.89895e-18
2.51221e-18
3.43803e-18
1.38078e-18
8.85166e-19
2.27522e-18
1.99867e-18
2.8665e-18
7.3159e-19
4.11302e-18
1.39817e-18
1.11001e-18
4.78691e-18
3.43912e-18
2.03655e-18
3.07654e-18
1.34502e-18
1.64315e-18
7.37707e-19
1.81588e-18
3.46215e-18
1.71475e-18
4.69373e-18
3.79922e-18
4.46134e-18
7.21429e-18
1.90854e-18
2.2015e-18
2.77418e-18
4.55863e-18
3.67314e-18
5.45772e-18
2.55618e-18
1.15514e-18
1.86765e-18
2.12115e-18
7.58926e-19
2.25169e-18
1.17509e-18
6.83305e-18
2.38191e-18
2.81988e-18
3.30199e-18
3.11685e-18
3.79676e-18
1.57893e-18
1.74819e-18
2.52555e-18
3.83616e-18
3.84306e-18
2.1959e-18
2.74075e-18
1.65874e-18
1.76976e-18
2.664e-18
2.58043e-18
2.43309e-18
2.56703e-18
2.98555e-18
7.28481e-18
3.78818e-18
1.7037e-18
3.09718e-18
3.39478e-18
1.84265e-18
2.84584e-18
3.18782e-18
2.35434e-18
1.63867e-18
2.61235e-18
2.05912e-18
1.32667e-18
4.01981e-18
1.79429e-18
3.38192e-18
7.48418e-18
3.91048e-18
2.16398e-18
3.16699e-18
5.01952e-18
2.56107e-18
4.23087e-18
4.66248e-18
2.19424e-18
2.44095e-18
5.94974e-18
2.81867e-18
2.32625e-18
1.89798e-18
1.74344e-18
3.30019e-18
3.21348e-18
2.14403e-18
2.13501e-18
3.40659e-18
3.81119e-18
3.23577e-18
6.47929e-18
4.6677e-18
3.12723e-18
1.66499e-18
3.16085e-18
4.77115e-18
2.19174e-18
2.04558e-18
2.98278e-18
9.69829e-19
1.43014e-18
3.02442e-18
1.13131e-18
2.37321e-18
1.69357e-18
2.97609e-18
3.32492e-18
1.89555e-18
2.15509e-18
1.4381e-18
3.17091e-18
4.04227e-18
3.66453e-18
2.14042e-18
1.40449e-18
1.51314e-18
2.85023e-18
1.86689e-18
1.50355e-18
1.65525e-18
1.38819e-18
4.93123e-18
2.90133e-18
2.2934e-18
6.10277e-18
2.02524e-18
7.09764e-18
3.3135e-18
2.7645e-18
3.79777e-18
2.56211e-18
2.58853e-18
2.84207e-18
3.87739e-18
5.07262e-18
2.10419e-18
1.85774e-18
1.87199e-18
4.08331e-18
1.27206e-18
2.33878e-18
1.90004e-18
2.78631e-18
2.29464e-18
2.03614e-18
3.85934e-18
4.19625e-18
1.84751e-18
2.12296e-18
4.08992e-18
3.63216e-18
2.99857e-18
1.54868e-18
1.93218e-18
2.01387e-18
3.67648e-18
1.70363e-18
3.02973e-18
1.63836e-18
1.86397e-18
3.07147e-18
2.57746e-18
4.36588e-18
3.62831e-18
3.52482e-18
2.4074e-18
4.00833e-18
2.79275e-18
2.36853e-18
2.59532e-18
1.51765e-18
1.01484e-18
1.57577e-18
1.1725e-18
1.32774e-18
4.30376e-18
3.61916e-18
2.34298e-18
1.54864e-18
3.02366e-18
2.20326e-18
3.1092e-18
4.71882e-18
3.10221e-18
1.68943e-18
1.95462e-18
1.89531e-18
4.00984e-18
4.61228e-18
3.85891e-18
3.15112e-18
1.55214e-18
3.68941e-18
3.95176e-18
1.96271e-18
2.52035e-18
2.08013e-18
1.58119e-18
2.01922e-18
5.09189e-18
4.31744e-18
3.85916e-18
4.33998e-18
2.84734e-18
2.31183e-18
2.69846e-18
2.63626e-18
1.37464e-18
1.88597e-18
2.77115e-18
2.83921e-18
2.66514e-18
2.43478e-18
3.87324e-18
2.78166e-18
2.3806e-18
2.81855e-18
2.30386e-18
3.47925e-18
4.3095e-18
3.73034e-18
1.56625e-18
1.26231e-18
1.15035e-18
1.39542e-18
2.25043e-18
2.86777e-18
1.67255e-18
1.86404e-18
1.70282e-18
2.86384e-18
2.55245e-18
2.57777e-18
1.12087e-18
2.14202e-18
5.01168e-18
3.50678e-18
1.65046e-18
1.27073e-18
1.53769e-18
1.78765e-18
2.22831e-18
2.78181e-18
1.47822e-18
1.74749e-18
2.43272e-18
2.02143e-18
3.30036e-18
2.38965e-18
6.51016e-18
3.19545e-18
1.74102e-18
1.8097e-18
2.45477e-18
2.54378e-18
2.36188e-18
2.36189e-18
1.70205e-18
1.81116e-18
1.49366e-18
2.09703e-18
1.42184e-18
4.08911e-18
4.19168e-18
2.06943e-18
2.8453e-18
2.13909e-18
4.35594e-18
6.34883e-18
6.87415e-18
2.37224e-18
1.91468e-18
2.30341e-18
1.6805e-18
1.99411e-18
2.16784e-18
5.81081e-18
3.2287e-18
3.17428e-18
2.8323e-18
1.65298e-18
2.83204e-18
2.06778e-18
3.2262e-18
2.58294e-18
3.34791e-18
2.78011e-18
2.80031e-18
2.1974e-18
2.52105e-18
4.25039e-18
3.24507e-18
2.91554e-18
3.10037e-18
2.99696e-18
4.03206e-18
2.09607e-18
2.86198e-18
2.51175e-18
2.28297e-18
2.10026e-18
1.22588e-18
3.26734e-18
3.23602e-18
2.34265e-18
2.31865e-18
1.46256e-18
1.58621e-18
2.55913e-18
1.27547e-18
3.96604e-18
4.96019e-18
3.97277e-18
4.77179e-18
6.66428e-18
4.0139e-18
1.74744e-18
1.38583e-18
1.44822e-18
2.15059e-18
2.23327e-18
1.79723e-18
2.62514e-18
1.39643e-18
1.64891e-18
1.38455e-18
2.15834e-18
3.44062e-18
4.08935e-18
1.55235e-18
1.80242e-18
2.41398e-18
1.70453e-18
7.73474e-19
3.1093e-18
3.18425e-18
2.98953e-18
1.61103e-18
2.57178e-18
1.71771e-18
1.61408e-18
1.78889e-18
3.344e-18
3.4913e-18
1.19056e-18
2.74188e-18
4.74098e-18
2.98307e-18
1.56433e-18
2.13566e-18
3.24584e-18
3.69873e-18
2.88841e-18
1.86768e-18
4.25458e-18
4.50482e-18
1.74604e-18
3.15231e-18
2.28414e-18
2.47253e-18
3.58735e-18
2.43095e-18
2.21464e-18
1.97102e-18
3.58766e-18
2.1621e-18
5.91577e-18
5.71495e-18
2.44293e-18
1.90334e-18
8.31836e-19
2.71936e-18
3.54434e-18
3.13035e-18
1.53506e-18
3.80609e-18
1.75083e-18
2.39079e-18
3.14226e-18
5.93757e-18
1.14313e-18
2.0573e-18
2.72336e-18
3.89886e-18
2.60415e-18
8.10666e-19
2.28407e-18
1.1843e-18
5.83417e-19
1.83484e-18
2.46416e-18
1.84819e-18
3.08945e-18
3.16006e-18
1.45833e-18
2.77619e-18
1.09483e-18
1.99604e-18
6.59679e-18
5.92438e-18
3.82765e-18
2.22842e-18
2.90096e-18
1.83511e-18
2.07893e-18
2.77589e-18
3.75625e-18
4.02381e-18
9.35814e-18
4.18066e-18
3.21763e-18
1.99982e-18
2.43896e-18
1.63089e-18
3.60809e-18
5.01054e-18
3.88609e-18
2.19574e-18
2.46251e-18
1.50251e-18
2.63642e-18
1.67944e-18
5.23286e-18
8.47943e-18
2.46745e-18
1.70867e-18
1.88998e-18
4.13267e-18
4.5742e-18
1.88281e-18
4.09633e-18
1.96633e-18
4.59927e-18
3.55207e-18
4.11853e-18
1.36066e-18
3.08107e-18
1.50409e-18
4.99258e-18
3.83889e-18
4.80015e-18
1.87507e-18
2.29514e-18
4.31516e-18
3.81726e-18
1.89748e-18
1.95049e-18
3.25898e-18
1.8041e-18
1.37889e-18
2.50265e-18
1.88751e-18
3.67302e-18
5.10431e-18
1.87904e-18
3.26775e-18
4.1617e-18
2.23128e-18
2.07008e-18
3.36693e-18
1.91544e-18
2.09503e-18
1.70112e-18
1.32983e-18
2.24063e-18