/*--------------------------------*- C++ -*----------------------------------*\
  =========                 |
  \\      /  F ield         | OpenFOAM: The Open Source CFD Toolbox
   \\    /   O peration     | Website:  https://openfoam.org
    \\  /    A nd           | Version:  7
     \\/     M anipulation  |
\*---------------------------------------------------------------------------*/
FoamFile
{
    version     2.0;
    format      ascii;
    class       volScalarField;
    location    "1000";
    object      mu1;
}
// * * * * * * * * * * * * * * * * * * * * * * * * * * * * * * * * * * * * * //

dimensions      [1 -1 -1 0 0 0 0];

internalField   nonuniform List<scalar> 
160000
(
0.000572256
0.000574937
0.000577615
0.000580315
0.00058308
0.00058582
0.000588538
0.000591182
0.000593765
0.000596478
0.000599227
0.000601884
0.000604554
0.000607289
0.000609917
0.000612504
0.000615112
0.00061771
0.000620334
0.000622962
0.000625568
0.000628124
0.000630621
0.000633127
0.000635641
0.000638172
0.000640726
0.000643215
0.000645686
0.000648123
0.000650495
0.000652894
0.000655415
0.000657917
0.000660294
0.000662677
0.000665059
0.000667398
0.000669655
0.000671906
0.00067427
0.000676654
0.000679026
0.000681287
0.000683512
0.000685802
0.000688044
0.000690222
0.000692453
0.00069472
0.000696935
0.000699157
0.000701335
0.000703442
0.000705594
0.000707713
0.000709855
0.00071199
0.000714001
0.000716001
0.000718115
0.000720234
0.000722237
0.000724207
0.000726122
0.000728111
0.000730147
0.000732161
0.000734107
0.000735905
0.00073779
0.000739714
0.000741577
0.000743431
0.000745259
0.000747107
0.000748945
0.000750748
0.000752547
0.000754344
0.000756129
0.000757955
0.000759743
0.00076147
0.000763198
0.000764926
0.000766617
0.000768252
0.000769865
0.000771533
0.000773161
0.000774763
0.000776425
0.00077808
0.00077968
0.000781202
0.000782717
0.000784247
0.000785763
0.000787242
0.000788724
0.000790182
0.000791636
0.000793125
0.000794542
0.00079596
0.000797364
0.000798747
0.000800161
0.000801559
0.000802954
0.000804275
0.000805589
0.000806924
0.000808203
0.000809499
0.000810783
0.000812041
0.00081333
0.000814628
0.000815891
0.000817099
0.000818288
0.000819491
0.000820682
0.0008219
0.000823129
0.000824282
0.000825407
0.000826552
0.000827672
0.000828757
0.000829851
0.000831004
0.000832134
0.000833198
0.00083424
0.000835275
0.000836287
0.000837259
0.000838261
0.000839323
0.000840315
0.000841272
0.000842287
0.000843272
0.000844215
0.00084516
0.000846095
0.000847002
0.000847889
0.000848778
0.000849647
0.00085053
0.000851402
0.000852247
0.000853098
0.000853954
0.000854801
0.000855635
0.000856458
0.000857267
0.000858061
0.000858854
0.000859623
0.000860378
0.000861161
0.000861911
0.000862643
0.000863364
0.000864088
0.000864834
0.000865534
0.000866239
0.000866956
0.000867623
0.000868282
0.000868938
0.000869605
0.000870283
0.000870907
0.000871523
0.000872148
0.00087274
0.000873331
0.000873924
0.000874515
0.000875098
0.000875663
0.000876233
0.000876817
0.000877381
0.00087793
0.000878488
0.000879055
0.000879583
0.000880091
0.000880623
0.000881154
0.000881679
0.000882204
0.000882706
0.000883191
0.00088367
0.000884147
0.000884625
0.000885083
0.000885528
0.000885977
0.00088642
0.000886857
0.000887294
0.000887718
0.000888128
0.000888542
0.000888952
0.000889344
0.000889739
0.000890147
0.00089054
0.000890928
0.000891312
0.000891676
0.000892035
0.000892395
0.000892751
0.000893108
0.000893452
0.000893793
0.000894138
0.000894456
0.000894775
0.000895102
0.000895426
0.000895743
0.000896054
0.000896356
0.000896653
0.000896944
0.000897231
0.000897518
0.000897796
0.000898077
0.000898354
0.000898624
0.000898896
0.000899168
0.000899433
0.000899697
0.000899957
0.000900211
0.000900466
0.00090071
0.000900942
0.000901167
0.000901397
0.000901626
0.000901845
0.000902063
0.000902289
0.000902516
0.000902731
0.000902938
0.000903141
0.000903343
0.000903547
0.000903746
0.00090394
0.000904133
0.000904331
0.000904516
0.000904691
0.000904867
0.00090504
0.00090521
0.000905379
0.000905549
0.000905722
0.000905885
0.000906042
0.000906199
0.000906353
0.000906507
0.000906659
0.000906808
0.000906951
0.000907094
0.000907234
0.000907371
0.000907512
0.000907652
0.000907783
0.00090791
0.000908038
0.000908165
0.000908292
0.000908419
0.000908537
0.000908653
0.000908769
0.000908881
0.000908991
0.000909102
0.000909212
0.000909318
0.000909421
0.000909522
0.000909623
0.000909719
0.000909815
0.000909912
0.000910005
0.000910096
0.000910189
0.000910278
0.000910363
0.000910448
0.000910531
0.000910611
0.000910693
0.000910772
0.000910848
0.000910924
0.000911002
0.000911077
0.000911148
0.000911221
0.000911292
0.00091136
0.000911426
0.00091149
0.000911554
0.000911615
0.000911676
0.000911737
0.000911795
0.000911852
0.00091191
0.000911969
0.000912025
0.000912076
0.000912127
0.000912179
0.000912228
0.000912277
0.000912323
0.000912367
0.000912411
0.000912454
0.000912496
0.000912538
0.000912579
0.000912619
0.000912659
0.000912697
0.000912734
0.00091277
0.000912806
0.00091284
0.000912872
0.000912904
0.000912935
0.000912967
0.000912996
0.000913026
0.000913055
0.000913081
0.000913108
0.000913134
0.000913158
0.00091318
0.000913202
0.000913223
0.000913245
0.000913265
0.000913284
0.000913303
0.00091332
0.000913336
0.000913352
0.000913367
0.000913381
0.000913394
0.000913407
0.000913419
0.00091343
0.000913441
0.000913451
0.000913459
0.000913467
0.000913475
0.000913481
0.000913487
0.000913492
0.000913496
0.0009135
0.000913502
0.000913504
0.000913506
0.000913507
0.000572315
0.000575016
0.000577648
0.000580338
0.000583065
0.000585773
0.000588487
0.000591185
0.000593825
0.000596497
0.000599236
0.000601917
0.000604538
0.000607191
0.000609877
0.000612499
0.000615055
0.0006177
0.000620393
0.000623039
0.000625617
0.000628137
0.00063066
0.000633194
0.000635673
0.000638115
0.000640634
0.000643182
0.00064566
0.000648117
0.000650557
0.000652969
0.000655429
0.000657906
0.000660288
0.00066265
0.000665086
0.000667366
0.000669562
0.000671917
0.000674323
0.000676656
0.000679008
0.000681276
0.000683499
0.000685813
0.000688064
0.00069022
0.000692415
0.000694728
0.000696996
0.000699183
0.000701307
0.000703464
0.000705606
0.000707681
0.000709825
0.000711941
0.000714002
0.000716058
0.000718117
0.000720192
0.000722233
0.000724199
0.000726153
0.000728171
0.000730144
0.000732093
0.000734035
0.000735923
0.000737834
0.000739744
0.0007416
0.000743423
0.000745252
0.000747109
0.000748955
0.00075076
0.000752552
0.00075435
0.000756162
0.000757953
0.000759715
0.000761429
0.000763158
0.000764931
0.000766623
0.000768257
0.000769889
0.000771527
0.000773178
0.000774799
0.000776429
0.000778083
0.000779651
0.000781172
0.000782699
0.000784226
0.000785759
0.000787241
0.00078872
0.000790213
0.00079164
0.000793092
0.000794563
0.000795963
0.000797353
0.000798769
0.000800173
0.000801568
0.000802958
0.000804288
0.000805597
0.000806904
0.000808193
0.000809488
0.000810771
0.000812049
0.000813329
0.000814611
0.000815891
0.000817114
0.00081831
0.000819513
0.000820708
0.00082191
0.000823112
0.000824266
0.000825407
0.000826546
0.000827667
0.000828749
0.000829855
0.000831021
0.000832137
0.000833174
0.000834223
0.000835284
0.000836278
0.000837258
0.000838263
0.000839301
0.000840311
0.000841292
0.0008423
0.000843277
0.000844219
0.00084516
0.000846082
0.000846974
0.000847887
0.000848792
0.000849647
0.000850524
0.000851402
0.000852266
0.000853114
0.000853962
0.000854799
0.000855622
0.000856446
0.000857263
0.00085807
0.000858855
0.000859619
0.000860376
0.000861155
0.00086191
0.000862644
0.00086338
0.00086411
0.000864841
0.000865535
0.000866238
0.000866941
0.00086761
0.000868287
0.000868952
0.000869611
0.000870269
0.0008709
0.000871522
0.000872139
0.000872729
0.000873323
0.000873925
0.000874518
0.000875098
0.000875661
0.000876239
0.000876825
0.000877391
0.000877937
0.000878491
0.000879041
0.000879573
0.000880103
0.000880633
0.000881163
0.000881685
0.000882202
0.000882702
0.000883184
0.000883661
0.000884143
0.000884627
0.000885085
0.00088553
0.000885977
0.000886423
0.000886861
0.000887288
0.000887714
0.000888135
0.000888542
0.000888945
0.000889347
0.000889748
0.00089015
0.000890541
0.000890926
0.000891301
0.000891667
0.000892032
0.000892393
0.000892753
0.000893108
0.000893452
0.000893794
0.000894133
0.000894456
0.000894773
0.000895101
0.000895435
0.000895749
0.000896053
0.000896355
0.000896654
0.000896943
0.000897231
0.000897518
0.000897793
0.000898075
0.000898359
0.000898627
0.000898895
0.000899171
0.000899439
0.000899699
0.000899957
0.000900209
0.000900459
0.000900708
0.000900944
0.000901168
0.000901399
0.000901624
0.000901845
0.00090207
0.000902296
0.000902513
0.000902724
0.000902934
0.000903138
0.000903343
0.000903552
0.000903748
0.000903939
0.000904137
0.000904331
0.000904511
0.00090469
0.000904869
0.00090504
0.000905208
0.000905377
0.00090555
0.000905723
0.000905885
0.000906041
0.000906198
0.000906353
0.000906506
0.000906659
0.000906809
0.000906954
0.000907096
0.000907235
0.000907372
0.000907511
0.000907647
0.000907779
0.00090791
0.000908042
0.000908167
0.000908291
0.000908417
0.000908537
0.000908652
0.000908769
0.000908883
0.000908994
0.000909104
0.000909212
0.000909317
0.000909421
0.000909522
0.000909622
0.000909719
0.000909815
0.000909911
0.000910004
0.000910096
0.000910189
0.000910279
0.000910366
0.000910448
0.000910529
0.000910611
0.000910692
0.000910771
0.000910848
0.000910924
0.000911002
0.000911077
0.000911148
0.00091122
0.000911292
0.000911361
0.000911425
0.00091149
0.000911554
0.000911616
0.000911677
0.000911738
0.000911796
0.000911853
0.000911911
0.000911968
0.000912023
0.000912075
0.000912127
0.000912179
0.000912228
0.000912276
0.000912322
0.000912367
0.000912411
0.000912454
0.000912497
0.000912538
0.000912579
0.000912619
0.000912659
0.000912697
0.000912734
0.00091277
0.000912806
0.00091284
0.000912872
0.000912904
0.000912935
0.000912967
0.000912997
0.000913026
0.000913055
0.000913082
0.000913109
0.000913134
0.000913158
0.000913181
0.000913202
0.000913224
0.000913245
0.000913265
0.000913284
0.000913302
0.00091332
0.000913336
0.000913352
0.000913367
0.000913381
0.000913394
0.000913407
0.000913419
0.00091343
0.000913441
0.00091345
0.000913459
0.000913468
0.000913475
0.000913481
0.000913487
0.000913492
0.000913496
0.0009135
0.000913502
0.000913504
0.000913506
0.000913507
0.000572277
0.00057496
0.000577657
0.000580348
0.00058307
0.000585804
0.00058846
0.000591186
0.000593852
0.000596494
0.000599235
0.000601924
0.000604519
0.000607131
0.000609832
0.000612465
0.000615081
0.000617798
0.000620429
0.00062304
0.000625628
0.000628179
0.00063072
0.000633203
0.000635673
0.000638136
0.000640614
0.00064311
0.000645645
0.000648144
0.000650548
0.000652962
0.000655418
0.00065791
0.000660324
0.000662663
0.000665037
0.000667342
0.000669593
0.000671923
0.000674303
0.000676656
0.000678975
0.000681223
0.000683532
0.000685856
0.000688053
0.000690213
0.000692415
0.000694721
0.000697012
0.000699205
0.000701327
0.000703445
0.000705576
0.000707673
0.000709782
0.000711893
0.000714022
0.000716106
0.00071812
0.000720151
0.00072222
0.000724225
0.000726159
0.000728187
0.000730197
0.000732132
0.000734031
0.000735942
0.00073782
0.00073968
0.000741594
0.000743431
0.000745247
0.000747109
0.000748947
0.000750757
0.000752596
0.000754387
0.000756152
0.000757942
0.000759723
0.000761438
0.000763149
0.000764878
0.000766571
0.000768275
0.000769936
0.00077155
0.000773196
0.000774844
0.00077644
0.000778051
0.00077963
0.000781147
0.000782673
0.000784204
0.000785733
0.000787246
0.000788723
0.000790207
0.00079166
0.000793086
0.00079454
0.000795975
0.000797392
0.000798784
0.000800162
0.000801565
0.000802937
0.000804273
0.000805608
0.000806901
0.000808192
0.000809487
0.000810761
0.000812053
0.00081335
0.00081463
0.000815882
0.000817101
0.000818317
0.000819524
0.000820718
0.00082192
0.0008231
0.000824257
0.000825409
0.000826532
0.000827638
0.000828763
0.000829907
0.000831031
0.000832123
0.000833172
0.000834208
0.000835255
0.000836271
0.000837262
0.00083826
0.000839299
0.000840319
0.000841295
0.000842296
0.000843283
0.000844226
0.000845155
0.000846072
0.000846972
0.00084788
0.000848779
0.000849641
0.000850523
0.000851428
0.000852282
0.00085312
0.000853971
0.000854803
0.000855629
0.000856443
0.000857255
0.000858065
0.000858851
0.000859619
0.000860382
0.000861153
0.000861905
0.000862638
0.000863381
0.000864119
0.000864843
0.000865555
0.000866255
0.000866928
0.000867594
0.000868281
0.000868958
0.00086961
0.000870256
0.0008709
0.000871518
0.000872122
0.000872725
0.000873327
0.000873923
0.000874513
0.000875094
0.000875669
0.000876255
0.000876838
0.000877395
0.000877945
0.000878494
0.000879033
0.000879573
0.000880112
0.00088064
0.000881171
0.00088169
0.000882195
0.000882693
0.000883184
0.00088367
0.000884146
0.000884619
0.000885074
0.000885524
0.000885982
0.000886422
0.00088685
0.000887285
0.00088772
0.000888135
0.00088854
0.000888946
0.000889352
0.000889754
0.000890146
0.000890531
0.000890916
0.000891296
0.000891666
0.000892034
0.000892397
0.000892756
0.000893106
0.000893446
0.000893794
0.000894134
0.000894457
0.000894778
0.000895107
0.000895428
0.000895743
0.000896058
0.000896358
0.00089665
0.000896938
0.000897227
0.000897517
0.000897796
0.000898077
0.000898357
0.000898631
0.000898902
0.000899175
0.000899447
0.000899705
0.000899957
0.000900207
0.000900457
0.000900702
0.000900938
0.000901168
0.000901399
0.000901624
0.000901848
0.000902074
0.000902294
0.000902507
0.000902721
0.000902932
0.000903138
0.000903344
0.000903548
0.000903749
0.000903948
0.000904142
0.000904329
0.00090451
0.000904689
0.000904866
0.000905037
0.000905209
0.000905378
0.000905549
0.000905722
0.000905883
0.000906041
0.000906198
0.000906354
0.000906509
0.00090666
0.000906807
0.000906952
0.000907096
0.000907235
0.000907373
0.00090751
0.000907646
0.00090778
0.00090791
0.000908038
0.000908166
0.000908293
0.000908418
0.000908536
0.000908653
0.000908772
0.000908886
0.000908997
0.000909104
0.00090921
0.000909315
0.00090942
0.000909522
0.000909621
0.000909717
0.000909815
0.000909911
0.000910004
0.000910098
0.000910191
0.000910279
0.000910364
0.000910448
0.00091053
0.000910611
0.000910692
0.000910771
0.000910849
0.000910926
0.000911003
0.000911077
0.000911149
0.00091122
0.000911291
0.000911359
0.000911424
0.000911489
0.000911554
0.000911617
0.000911678
0.000911739
0.000911796
0.000911853
0.000911911
0.000911967
0.000912022
0.000912075
0.000912126
0.000912177
0.000912228
0.000912276
0.000912322
0.000912368
0.000912413
0.000912455
0.000912496
0.000912538
0.000912579
0.000912619
0.000912659
0.000912697
0.000912733
0.00091277
0.000912806
0.00091284
0.000912872
0.000912904
0.000912935
0.000912966
0.000912997
0.000913027
0.000913055
0.000913082
0.000913109
0.000913133
0.000913157
0.00091318
0.000913202
0.000913224
0.000913245
0.000913265
0.000913284
0.000913302
0.000913319
0.000913336
0.000913352
0.000913367
0.000913381
0.000913394
0.000913407
0.000913419
0.00091343
0.000913441
0.00091345
0.000913459
0.000913468
0.000913475
0.000913481
0.000913487
0.000913492
0.000913496
0.0009135
0.000913502
0.000913504
0.000913506
0.000913507
0.000572265
0.000574955
0.000577659
0.000580383
0.000583116
0.000585846
0.000588505
0.000591197
0.000593899
0.000596585
0.000599259
0.000601858
0.000604484
0.000607129
0.00060981
0.000612466
0.000615099
0.000617786
0.000620423
0.000623061
0.00062562
0.00062819
0.000630732
0.000633168
0.000635713
0.000638191
0.000640595
0.000643117
0.000645682
0.000648132
0.000650535
0.00065296
0.000655397
0.000657869
0.000660319
0.000662679
0.000665037
0.00066732
0.00066956
0.000671927
0.000674327
0.000676679
0.000678984
0.00068124
0.000683521
0.000685801
0.000688028
0.00069023
0.000692469
0.000694712
0.000696959
0.000699225
0.000701339
0.000703439
0.000705601
0.000707712
0.000709794
0.00071189
0.000713983
0.000716056
0.000718094
0.000720149
0.000722222
0.00072421
0.000726173
0.000728186
0.000730202
0.000732143
0.000734038
0.000735979
0.00073786
0.000739676
0.000741528
0.000743379
0.00074526
0.000747168
0.000748985
0.000750793
0.000752643
0.00075439
0.000756151
0.000757953
0.000759702
0.0007614
0.000763109
0.000764859
0.000766563
0.000768265
0.000769921
0.000771584
0.000773223
0.00077483
0.000776451
0.000778039
0.000779583
0.000781141
0.000782699
0.000784192
0.000785693
0.000787233
0.000788755
0.000790223
0.000791673
0.0007931
0.000794526
0.000795969
0.000797399
0.000798792
0.000800173
0.000801566
0.000802913
0.000804246
0.000805598
0.000806912
0.000808203
0.000809484
0.000810752
0.000812049
0.000813368
0.000814633
0.000815869
0.000817092
0.000818323
0.000819519
0.00082071
0.000821928
0.000823118
0.000824275
0.0008254
0.000826526
0.000827645
0.000828783
0.000829925
0.000831036
0.000832129
0.000833169
0.000834197
0.00083524
0.000836261
0.000837269
0.000838299
0.000839304
0.000840289
0.00084129
0.000842282
0.000843272
0.000844232
0.000845154
0.000846053
0.000846968
0.000847886
0.00084878
0.000849664
0.000850536
0.000851413
0.000852271
0.000853126
0.000853982
0.000854799
0.000855613
0.000856439
0.000857257
0.000858065
0.000858859
0.000859626
0.000860385
0.000861154
0.000861909
0.000862645
0.000863389
0.000864129
0.00086484
0.000865541
0.000866243
0.000866928
0.000867602
0.000868284
0.000868952
0.000869596
0.000870242
0.000870897
0.000871522
0.000872118
0.000872718
0.000873325
0.000873926
0.000874518
0.000875103
0.000875688
0.000876269
0.000876835
0.000877393
0.000877954
0.0008785
0.000879037
0.000879568
0.000880102
0.000880643
0.000881175
0.000881696
0.000882201
0.000882691
0.00088318
0.000883667
0.000884141
0.00088461
0.000885067
0.000885522
0.00088598
0.000886413
0.000886844
0.000887288
0.000887721
0.000888135
0.000888543
0.000888951
0.000889353
0.000889753
0.000890143
0.000890526
0.000890911
0.000891292
0.000891666
0.000892038
0.000892399
0.000892756
0.000893107
0.000893448
0.00089379
0.000894126
0.000894458
0.000894789
0.00089511
0.000895429
0.000895746
0.000896051
0.000896351
0.00089665
0.000896942
0.00089723
0.000897519
0.000897797
0.000898076
0.000898358
0.000898633
0.000898906
0.00089918
0.00089945
0.000899707
0.000899958
0.000900207
0.000900457
0.000900697
0.00090093
0.000901167
0.000901396
0.000901622
0.00090185
0.000902075
0.000902294
0.000902507
0.000902718
0.000902929
0.000903138
0.000903344
0.000903549
0.000903751
0.00090395
0.000904141
0.000904326
0.000904514
0.000904694
0.000904866
0.000905036
0.000905207
0.000905379
0.00090555
0.00090572
0.000905884
0.000906043
0.000906198
0.000906352
0.000906505
0.000906657
0.000906808
0.000906953
0.000907095
0.000907234
0.000907374
0.000907512
0.000907645
0.000907777
0.000907909
0.000908038
0.000908168
0.000908295
0.000908417
0.000908536
0.000908655
0.000908773
0.000908888
0.000908998
0.000909105
0.000909212
0.000909316
0.000909418
0.00090952
0.000909619
0.000909717
0.000909815
0.000909911
0.000910004
0.000910099
0.000910191
0.000910279
0.000910365
0.000910449
0.000910529
0.00091061
0.000910692
0.000910772
0.000910851
0.000910928
0.000911003
0.000911076
0.000911148
0.00091122
0.000911289
0.000911359
0.000911425
0.000911488
0.000911553
0.000911617
0.000911679
0.000911739
0.000911797
0.000911854
0.000911912
0.000911968
0.000912021
0.000912074
0.000912126
0.000912176
0.000912227
0.000912276
0.000912322
0.000912367
0.000912412
0.000912455
0.000912497
0.000912538
0.000912579
0.000912619
0.000912659
0.000912696
0.000912733
0.000912769
0.000912805
0.00091284
0.000912873
0.000912904
0.000912935
0.000912966
0.000912997
0.000913028
0.000913056
0.000913083
0.000913109
0.000913133
0.000913157
0.00091318
0.000913202
0.000913224
0.000913245
0.000913264
0.000913284
0.000913302
0.000913319
0.000913335
0.000913352
0.000913367
0.000913381
0.000913394
0.000913408
0.000913419
0.00091343
0.00091344
0.00091345
0.000913459
0.000913467
0.000913475
0.000913481
0.000913487
0.000913492
0.000913496
0.0009135
0.000913502
0.000913504
0.000913506
0.000913507
0.000572257
0.000574924
0.00057765
0.000580421
0.000583139
0.000585867
0.000588538
0.00059122
0.000593943
0.000596598
0.000599247
0.000601792
0.000604379
0.000607186
0.00060991
0.000612484
0.000615086
0.00061773
0.000620353
0.000623047
0.000625672
0.000628225
0.000630729
0.000633191
0.000635709
0.000638154
0.000640562
0.000643102
0.000645622
0.000648095
0.000650597
0.000653015
0.000655403
0.000657891
0.000660374
0.000662688
0.000664957
0.000667253
0.000669604
0.000672008
0.000674336
0.000676671
0.000679005
0.000681256
0.000683496
0.000685757
0.000687977
0.000690174
0.00069247
0.000694755
0.000696979
0.000699192
0.000701353
0.000703475
0.00070559
0.000707716
0.000709803
0.000711887
0.000713998
0.00071605
0.000718078
0.000720116
0.000722176
0.000724192
0.000726149
0.000728178
0.000730227
0.000732191
0.000734082
0.000735979
0.00073785
0.000739665
0.000741532
0.000743408
0.000745267
0.000747175
0.000749021
0.000750813
0.000752606
0.000754426
0.000756215
0.000757944
0.000759684
0.000761389
0.000763095
0.000764846
0.00076656
0.000768245
0.000769924
0.000771587
0.000773221
0.000774822
0.00077643
0.000778027
0.000779571
0.000781119
0.000782682
0.000784203
0.000785701
0.000787216
0.00078877
0.000790276
0.000791682
0.000793099
0.000794534
0.000795953
0.000797385
0.00079878
0.000800169
0.000801565
0.000802916
0.000804224
0.000805553
0.000806911
0.000808247
0.000809507
0.000810736
0.000812042
0.000813365
0.000814616
0.000815861
0.000817097
0.000818309
0.00081951
0.000820735
0.000821957
0.000823122
0.000824263
0.000825395
0.000826526
0.000827644
0.000828784
0.000829936
0.000831058
0.000832137
0.000833183
0.000834211
0.00083522
0.000836245
0.000837274
0.000838296
0.000839297
0.000840303
0.000841298
0.000842271
0.000843263
0.000844222
0.000845142
0.000846058
0.000846974
0.000847876
0.000848768
0.000849658
0.000850545
0.00085142
0.000852283
0.000853143
0.000853981
0.000854787
0.000855598
0.00085643
0.000857258
0.000858074
0.000858869
0.000859629
0.000860384
0.000861172
0.000861942
0.000862666
0.000863396
0.000864113
0.000864821
0.000865538
0.000866234
0.000866922
0.000867602
0.00086827
0.000868935
0.000869588
0.000870234
0.00087088
0.000871518
0.000872131
0.000872732
0.000873325
0.000873925
0.000874527
0.000875118
0.000875699
0.000876275
0.000876846
0.0008774
0.000877958
0.000878507
0.000879031
0.000879554
0.000880096
0.000880638
0.000881176
0.000881697
0.000882203
0.0008827
0.000883183
0.000883664
0.00088414
0.000884605
0.000885061
0.000885515
0.000885967
0.000886405
0.000886849
0.000887294
0.000887719
0.000888136
0.000888543
0.000888944
0.000889354
0.000889756
0.000890147
0.000890534
0.000890914
0.000891288
0.000891663
0.000892036
0.000892398
0.000892752
0.000893102
0.000893447
0.000893788
0.000894121
0.000894453
0.000894788
0.000895111
0.000895434
0.000895754
0.000896056
0.000896352
0.000896647
0.000896936
0.000897227
0.000897519
0.000897803
0.000898082
0.00089836
0.000898635
0.00089891
0.000899186
0.000899454
0.000899708
0.000899959
0.000900208
0.000900452
0.000900693
0.00090093
0.000901164
0.000901396
0.000901621
0.000901848
0.000902074
0.000902294
0.000902508
0.000902718
0.000902927
0.000903137
0.000903343
0.000903546
0.000903753
0.000903959
0.000904147
0.00090433
0.000904513
0.000904688
0.000904859
0.000905034
0.000905209
0.00090538
0.000905552
0.00090572
0.000905884
0.000906042
0.000906197
0.000906352
0.000906506
0.000906655
0.000906803
0.00090695
0.000907098
0.000907239
0.000907376
0.000907511
0.000907644
0.000907777
0.00090791
0.00090804
0.000908166
0.000908292
0.000908417
0.000908537
0.000908654
0.000908771
0.000908889
0.000909001
0.000909108
0.000909213
0.000909316
0.000909418
0.000909517
0.000909616
0.000909716
0.000909814
0.000909909
0.000910005
0.0009101
0.000910191
0.000910278
0.000910363
0.000910448
0.00091053
0.000910611
0.000910693
0.000910773
0.000910852
0.000910929
0.000911003
0.000911075
0.000911148
0.000911219
0.000911289
0.000911359
0.000911425
0.000911488
0.000911552
0.000911618
0.000911681
0.00091174
0.000911798
0.000911855
0.000911912
0.000911966
0.00091202
0.000912073
0.000912125
0.000912176
0.000912227
0.000912275
0.000912321
0.000912367
0.000912411
0.000912455
0.000912496
0.000912538
0.00091258
0.00091262
0.000912659
0.000912696
0.000912733
0.000912769
0.000912805
0.000912839
0.000912873
0.000912905
0.000912935
0.000912966
0.000912996
0.000913027
0.000913057
0.000913084
0.00091311
0.000913134
0.000913157
0.00091318
0.000913202
0.000913224
0.000913245
0.000913264
0.000913283
0.000913302
0.000913319
0.000913335
0.000913351
0.000913367
0.000913381
0.000913395
0.000913408
0.00091342
0.00091343
0.00091344
0.00091345
0.000913459
0.000913467
0.000913475
0.000913481
0.000913487
0.000913492
0.000913496
0.0009135
0.000913502
0.000913505
0.000913506
0.000913507
0.000572245
0.00057487
0.000577576
0.000580395
0.00058313
0.000585882
0.000588608
0.000591296
0.000593939
0.000596536
0.000599199
0.000601802
0.000604445
0.000607192
0.000609865
0.000612543
0.000615169
0.00061773
0.000620316
0.000622956
0.000625596
0.000628207
0.000630769
0.000633214
0.000635675
0.000638189
0.00064063
0.0006431
0.000645564
0.000648053
0.000650593
0.000653026
0.000655455
0.000657907
0.000660347
0.000662681
0.00066496
0.000667269
0.000669626
0.000672008
0.000674347
0.000676678
0.000678987
0.000681229
0.000683488
0.000685756
0.000687982
0.000690199
0.00069243
0.000694716
0.000697012
0.000699183
0.000701319
0.000703492
0.000705611
0.000707698
0.000709809
0.00071191
0.000713972
0.000716026
0.000718077
0.000720078
0.000722132
0.000724186
0.000726158
0.000728196
0.000730259
0.00073221
0.000734087
0.000735977
0.000737835
0.000739678
0.000741582
0.00074346
0.000745292
0.000747179
0.000749042
0.00075084
0.000752629
0.000754398
0.000756174
0.00075795
0.000759681
0.000761383
0.000763102
0.000764832
0.000766529
0.000768225
0.000769935
0.000771607
0.000773209
0.000774789
0.00077642
0.000778028
0.000779577
0.000781138
0.000782675
0.000784184
0.000785732
0.000787246
0.000788758
0.00079025
0.000791682
0.000793127
0.000794548
0.000795962
0.000797361
0.000798742
0.000800157
0.00080157
0.00080293
0.000804243
0.000805553
0.000806892
0.000808224
0.0008095
0.000810758
0.000812029
0.000813327
0.000814616
0.000815852
0.000817092
0.000818302
0.000819517
0.000820761
0.000821944
0.00082311
0.000824269
0.000825404
0.00082653
0.000827657
0.000828811
0.00082995
0.00083105
0.000832123
0.000833189
0.000834229
0.00083524
0.000836256
0.000837275
0.000838293
0.000839285
0.000840281
0.000841294
0.000842279
0.000843238
0.000844197
0.000845142
0.000846069
0.000846974
0.000847874
0.000848771
0.00084967
0.00085056
0.000851433
0.000852291
0.000853123
0.000853956
0.000854779
0.000855603
0.000856442
0.000857269
0.000858068
0.000858858
0.000859643
0.000860413
0.000861192
0.000861953
0.000862675
0.000863392
0.000864107
0.000864805
0.000865515
0.000866233
0.000866928
0.000867595
0.000868258
0.00086892
0.000869571
0.000870229
0.000870884
0.000871513
0.000872123
0.000872727
0.000873334
0.000873945
0.000874545
0.000875137
0.000875707
0.000876272
0.000876846
0.000877403
0.000877954
0.000878504
0.000879033
0.000879551
0.00088009
0.00088064
0.000881177
0.000881702
0.000882211
0.000882701
0.00088318
0.000883663
0.000884134
0.000884596
0.000885058
0.000885515
0.000885966
0.00088641
0.000886852
0.000887288
0.000887711
0.00088813
0.000888538
0.00088894
0.000889351
0.000889762
0.000890158
0.000890539
0.000890914
0.000891286
0.000891658
0.000892031
0.000892396
0.000892751
0.000893099
0.000893443
0.000893785
0.000894122
0.000894451
0.000894776
0.00089511
0.000895444
0.00089576
0.000896058
0.000896352
0.000896646
0.000896939
0.000897234
0.000897522
0.000897803
0.000898084
0.000898362
0.000898639
0.000898912
0.000899185
0.000899455
0.000899709
0.000899958
0.000900205
0.00090045
0.000900691
0.00090093
0.000901164
0.000901395
0.000901622
0.000901847
0.000902069
0.000902288
0.000902509
0.00090272
0.000902927
0.000903135
0.000903342
0.000903551
0.000903762
0.000903961
0.000904147
0.000904329
0.000904509
0.000904684
0.000904855
0.000905032
0.000905211
0.000905382
0.000905554
0.00090572
0.000905883
0.000906042
0.000906197
0.000906351
0.000906504
0.000906656
0.000906805
0.000906951
0.000907095
0.000907236
0.000907376
0.000907511
0.000907645
0.00090778
0.000907914
0.000908043
0.000908168
0.000908293
0.000908416
0.000908536
0.000908653
0.000908771
0.00090889
0.000909002
0.000909108
0.000909212
0.000909314
0.000909416
0.000909516
0.000909615
0.000909716
0.000909815
0.00090991
0.000910006
0.000910101
0.000910191
0.000910278
0.000910363
0.000910447
0.00091053
0.000910611
0.000910693
0.000910773
0.000910851
0.000910927
0.000911001
0.000911074
0.000911149
0.00091122
0.000911289
0.000911358
0.000911425
0.000911488
0.000911552
0.000911618
0.000911682
0.000911741
0.000911799
0.000911856
0.000911911
0.000911965
0.000912019
0.000912074
0.000912125
0.000912175
0.000912226
0.000912275
0.000912321
0.000912365
0.00091241
0.000912454
0.000912497
0.000912539
0.00091258
0.00091262
0.000912659
0.000912696
0.000912734
0.000912769
0.000912805
0.000912839
0.000912872
0.000912904
0.000912935
0.000912966
0.000912996
0.000913028
0.000913057
0.000913084
0.00091311
0.000913134
0.000913157
0.00091318
0.000913202
0.000913224
0.000913245
0.000913264
0.000913283
0.000913302
0.000913319
0.000913335
0.000913351
0.000913367
0.000913381
0.000913395
0.000913407
0.00091342
0.00091343
0.00091344
0.00091345
0.000913459
0.000913467
0.000913475
0.000913481
0.000913487
0.000913492
0.000913496
0.0009135
0.000913502
0.000913505
0.000913506
0.000913507
0.000572229
0.000574881
0.000577576
0.00058033
0.000583068
0.000585849
0.000588629
0.000591327
0.000593975
0.000596595
0.000599204
0.000601802
0.000604501
0.000607254
0.000609917
0.000612539
0.000615138
0.000617743
0.000620318
0.00062289
0.000625576
0.000628202
0.000630705
0.000633157
0.000635643
0.000638186
0.000640664
0.000643143
0.0006456
0.000648066
0.000650588
0.000653077
0.000655487
0.000657904
0.000660296
0.000662625
0.000664971
0.000667317
0.00066966
0.000671971
0.000674315
0.000676678
0.000678977
0.000681216
0.000683501
0.000685786
0.000687995
0.000690216
0.000692449
0.000694695
0.000696978
0.000699167
0.000701307
0.00070349
0.000705624
0.000707695
0.000709794
0.000711891
0.000713952
0.000716018
0.000718047
0.000720049
0.000722117
0.000724237
0.000726247
0.000728194