/*--------------------------------*- C++ -*----------------------------------*\
  =========                 |
  \\      /  F ield         | OpenFOAM: The Open Source CFD Toolbox
   \\    /   O peration     | Website:  https://openfoam.org
    \\  /    A nd           | Version:  7
     \\/     M anipulation  |
\*---------------------------------------------------------------------------*/
FoamFile
{
    version     2.0;
    format      ascii;
    class       volScalarField;
    location    "1000";
    object      mu2;
}
// * * * * * * * * * * * * * * * * * * * * * * * * * * * * * * * * * * * * * //

dimensions      [1 -1 -1 0 0 0 0];

internalField   nonuniform List<scalar> 
160000
(
1.93844e-05
1.93753e-05
1.93663e-05
1.93573e-05
1.93481e-05
1.9339e-05
1.933e-05
1.93213e-05
1.93129e-05
1.9304e-05
1.92951e-05
1.92866e-05
1.9278e-05
1.92693e-05
1.92609e-05
1.92527e-05
1.92445e-05
1.92363e-05
1.92281e-05
1.92199e-05
1.92118e-05
1.92039e-05
1.91962e-05
1.91885e-05
1.91808e-05
1.91731e-05
1.91654e-05
1.91579e-05
1.91504e-05
1.91431e-05
1.9136e-05
1.91289e-05
1.91214e-05
1.9114e-05
1.9107e-05
1.91e-05
1.9093e-05
1.90861e-05
1.90796e-05
1.9073e-05
1.90662e-05
1.90593e-05
1.90525e-05
1.9046e-05
1.90396e-05
1.90331e-05
1.90267e-05
1.90206e-05
1.90143e-05
1.90079e-05
1.90016e-05
1.89954e-05
1.89893e-05
1.89834e-05
1.89775e-05
1.89716e-05
1.89656e-05
1.89598e-05
1.89542e-05
1.89487e-05
1.89429e-05
1.89371e-05
1.89317e-05
1.89263e-05
1.89211e-05
1.89157e-05
1.89102e-05
1.89048e-05
1.88996e-05
1.88947e-05
1.88897e-05
1.88845e-05
1.88796e-05
1.88746e-05
1.88698e-05
1.88649e-05
1.886e-05
1.88552e-05
1.88505e-05
1.88458e-05
1.88411e-05
1.88363e-05
1.88316e-05
1.88271e-05
1.88226e-05
1.88181e-05
1.88137e-05
1.88095e-05
1.88053e-05
1.8801e-05
1.87968e-05
1.87927e-05
1.87884e-05
1.87842e-05
1.87801e-05
1.87762e-05
1.87723e-05
1.87684e-05
1.87645e-05
1.87608e-05
1.8757e-05
1.87533e-05
1.87496e-05
1.87459e-05
1.87423e-05
1.87387e-05
1.87352e-05
1.87317e-05
1.87282e-05
1.87247e-05
1.87212e-05
1.87179e-05
1.87146e-05
1.87112e-05
1.87081e-05
1.87048e-05
1.87016e-05
1.86985e-05
1.86953e-05
1.86921e-05
1.8689e-05
1.8686e-05
1.86831e-05
1.86801e-05
1.86772e-05
1.86742e-05
1.86712e-05
1.86683e-05
1.86656e-05
1.86628e-05
1.866e-05
1.86574e-05
1.86547e-05
1.86519e-05
1.86491e-05
1.86465e-05
1.8644e-05
1.86415e-05
1.8639e-05
1.86367e-05
1.86343e-05
1.86317e-05
1.86293e-05
1.8627e-05
1.86245e-05
1.86221e-05
1.86199e-05
1.86176e-05
1.86153e-05
1.86132e-05
1.8611e-05
1.86089e-05
1.86068e-05
1.86047e-05
1.86026e-05
1.86006e-05
1.85986e-05
1.85965e-05
1.85945e-05
1.85925e-05
1.85905e-05
1.85886e-05
1.85867e-05
1.85848e-05
1.8583e-05
1.85812e-05
1.85793e-05
1.85776e-05
1.85758e-05
1.85741e-05
1.85724e-05
1.85706e-05
1.8569e-05
1.85673e-05
1.85656e-05
1.8564e-05
1.85625e-05
1.85609e-05
1.85594e-05
1.85578e-05
1.85563e-05
1.85548e-05
1.85534e-05
1.8552e-05
1.85506e-05
1.85492e-05
1.85478e-05
1.85464e-05
1.85451e-05
1.85438e-05
1.85424e-05
1.85411e-05
1.85398e-05
1.85385e-05
1.85372e-05
1.85359e-05
1.85348e-05
1.85335e-05
1.85323e-05
1.8531e-05
1.85298e-05
1.85286e-05
1.85275e-05
1.85264e-05
1.85253e-05
1.85242e-05
1.85231e-05
1.85221e-05
1.8521e-05
1.852e-05
1.8519e-05
1.8518e-05
1.8517e-05
1.8516e-05
1.85151e-05
1.85141e-05
1.85132e-05
1.85123e-05
1.85113e-05
1.85104e-05
1.85095e-05
1.85086e-05
1.85078e-05
1.8507e-05
1.85061e-05
1.85053e-05
1.85045e-05
1.85037e-05
1.85029e-05
1.85021e-05
1.85014e-05
1.85006e-05
1.84999e-05
1.84991e-05
1.84984e-05
1.84977e-05
1.8497e-05
1.84963e-05
1.84956e-05
1.8495e-05
1.84943e-05
1.84937e-05
1.8493e-05
1.84924e-05
1.84918e-05
1.84911e-05
1.84905e-05
1.84899e-05
1.84893e-05
1.84887e-05
1.84881e-05
1.84875e-05
1.8487e-05
1.84864e-05
1.84859e-05
1.84854e-05
1.84849e-05
1.84844e-05
1.84839e-05
1.84833e-05
1.84828e-05
1.84823e-05
1.84818e-05
1.84814e-05
1.84809e-05
1.84805e-05
1.848e-05
1.84796e-05
1.84791e-05
1.84787e-05
1.84782e-05
1.84778e-05
1.84774e-05
1.8477e-05
1.84766e-05
1.84763e-05
1.84759e-05
1.84755e-05
1.84751e-05
1.84747e-05
1.84744e-05
1.8474e-05
1.84737e-05
1.84733e-05
1.8473e-05
1.84727e-05
1.84723e-05
1.8472e-05
1.84717e-05
1.84714e-05
1.84711e-05
1.84708e-05
1.84705e-05
1.84702e-05
1.84699e-05
1.84696e-05
1.84693e-05
1.8469e-05
1.84688e-05
1.84685e-05
1.84682e-05
1.8468e-05
1.84677e-05
1.84675e-05
1.84672e-05
1.8467e-05
1.84668e-05
1.84665e-05
1.84663e-05
1.84661e-05
1.84659e-05
1.84657e-05
1.84655e-05
1.84653e-05
1.84651e-05
1.84649e-05
1.84647e-05
1.84645e-05
1.84643e-05
1.84641e-05
1.84639e-05
1.84638e-05
1.84636e-05
1.84634e-05
1.84632e-05
1.84631e-05
1.84629e-05
1.84627e-05
1.84626e-05
1.84624e-05
1.84623e-05
1.84621e-05
1.8462e-05
1.84619e-05
1.84617e-05
1.84616e-05
1.84615e-05
1.84613e-05
1.84612e-05
1.84611e-05
1.8461e-05
1.84608e-05
1.84607e-05
1.84606e-05
1.84605e-05
1.84604e-05
1.84603e-05
1.84602e-05
1.84601e-05
1.846e-05
1.84599e-05
1.84598e-05
1.84597e-05
1.84596e-05
1.84595e-05
1.84595e-05
1.84594e-05
1.84593e-05
1.84592e-05
1.84591e-05
1.84591e-05
1.8459e-05
1.84589e-05
1.84589e-05
1.84588e-05
1.84587e-05
1.84587e-05
1.84586e-05
1.84585e-05
1.84585e-05
1.84584e-05
1.84584e-05
1.84583e-05
1.84583e-05
1.84582e-05
1.84582e-05
1.84582e-05
1.84581e-05
1.84581e-05
1.84581e-05
1.8458e-05
1.8458e-05
1.8458e-05
1.84579e-05
1.84579e-05
1.84579e-05
1.84578e-05
1.84578e-05
1.84578e-05
1.84578e-05
1.84578e-05
1.84578e-05
1.84577e-05
1.84577e-05
1.84577e-05
1.84577e-05
1.84577e-05
1.84577e-05
1.84577e-05
1.84577e-05
1.93842e-05
1.93751e-05
1.93662e-05
1.93572e-05
1.93481e-05
1.93391e-05
1.93302e-05
1.93213e-05
1.93127e-05
1.9304e-05
1.92951e-05
1.92865e-05
1.9278e-05
1.92696e-05
1.9261e-05
1.92527e-05
1.92446e-05
1.92363e-05
1.92279e-05
1.92197e-05
1.92117e-05
1.92039e-05
1.91961e-05
1.91883e-05
1.91807e-05
1.91733e-05
1.91657e-05
1.9158e-05
1.91505e-05
1.91431e-05
1.91358e-05
1.91286e-05
1.91213e-05
1.9114e-05
1.9107e-05
1.91e-05
1.90929e-05
1.90862e-05
1.90798e-05
1.9073e-05
1.9066e-05
1.90593e-05
1.90525e-05
1.9046e-05
1.90397e-05
1.90331e-05
1.90267e-05
1.90206e-05
1.90144e-05
1.90078e-05
1.90015e-05
1.89953e-05
1.89894e-05
1.89834e-05
1.89774e-05
1.89717e-05
1.89657e-05
1.89599e-05
1.89542e-05
1.89486e-05
1.89429e-05
1.89372e-05
1.89317e-05
1.89263e-05
1.8921e-05
1.89156e-05
1.89102e-05
1.8905e-05
1.88998e-05
1.88947e-05
1.88896e-05
1.88845e-05
1.88795e-05
1.88747e-05
1.88698e-05
1.88649e-05
1.886e-05
1.88552e-05
1.88505e-05
1.88458e-05
1.8841e-05
1.88363e-05
1.88317e-05
1.88272e-05
1.88227e-05
1.88181e-05
1.88137e-05
1.88095e-05
1.88053e-05
1.8801e-05
1.87968e-05
1.87926e-05
1.87884e-05
1.87842e-05
1.87801e-05
1.87762e-05
1.87723e-05
1.87685e-05
1.87645e-05
1.87608e-05
1.8757e-05
1.87532e-05
1.87496e-05
1.8746e-05
1.87422e-05
1.87387e-05
1.87352e-05
1.87317e-05
1.87281e-05
1.87246e-05
1.87212e-05
1.87178e-05
1.87146e-05
1.87113e-05
1.87081e-05
1.87049e-05
1.87017e-05
1.86985e-05
1.86953e-05
1.86922e-05
1.8689e-05
1.8686e-05
1.8683e-05
1.868e-05
1.86771e-05
1.86741e-05
1.86712e-05
1.86684e-05
1.86656e-05
1.86628e-05
1.866e-05
1.86574e-05
1.86547e-05
1.86518e-05
1.86491e-05
1.86466e-05
1.86441e-05
1.86415e-05
1.86391e-05
1.86367e-05
1.86342e-05
1.86317e-05
1.86293e-05
1.86269e-05
1.86245e-05
1.86221e-05
1.86199e-05
1.86176e-05
1.86154e-05
1.86132e-05
1.8611e-05
1.86089e-05
1.86068e-05
1.86047e-05
1.86026e-05
1.86005e-05
1.85985e-05
1.85965e-05
1.85945e-05
1.85925e-05
1.85906e-05
1.85886e-05
1.85867e-05
1.85848e-05
1.8583e-05
1.85812e-05
1.85794e-05
1.85776e-05
1.85758e-05
1.85741e-05
1.85723e-05
1.85706e-05
1.8569e-05
1.85673e-05
1.85657e-05
1.85641e-05
1.85625e-05
1.85609e-05
1.85594e-05
1.85578e-05
1.85563e-05
1.85548e-05
1.85534e-05
1.8552e-05
1.85506e-05
1.85492e-05
1.85478e-05
1.85464e-05
1.85451e-05
1.85438e-05
1.85424e-05
1.85411e-05
1.85398e-05
1.85385e-05
1.85372e-05
1.8536e-05
1.85347e-05
1.85335e-05
1.85322e-05
1.8531e-05
1.85298e-05
1.85287e-05
1.85275e-05
1.85264e-05
1.85253e-05
1.85242e-05
1.85231e-05
1.85221e-05
1.8521e-05
1.852e-05
1.8519e-05
1.8518e-05
1.8517e-05
1.8516e-05
1.85151e-05
1.85141e-05
1.85132e-05
1.85123e-05
1.85113e-05
1.85104e-05
1.85095e-05
1.85087e-05
1.85078e-05
1.8507e-05
1.85061e-05
1.85053e-05
1.85045e-05
1.85037e-05
1.85029e-05
1.85021e-05
1.85014e-05
1.85006e-05
1.84999e-05
1.84991e-05
1.84984e-05
1.84977e-05
1.8497e-05
1.84963e-05
1.84956e-05
1.8495e-05
1.84943e-05
1.84937e-05
1.8493e-05
1.84924e-05
1.84918e-05
1.84911e-05
1.84905e-05
1.84899e-05
1.84893e-05
1.84887e-05
1.84881e-05
1.84875e-05
1.8487e-05
1.84864e-05
1.84859e-05
1.84854e-05
1.84849e-05
1.84844e-05
1.84838e-05
1.84833e-05
1.84828e-05
1.84823e-05
1.84819e-05
1.84814e-05
1.84809e-05
1.84804e-05
1.848e-05
1.84796e-05
1.84791e-05
1.84787e-05
1.84782e-05
1.84778e-05
1.84774e-05
1.8477e-05
1.84766e-05
1.84763e-05
1.84759e-05
1.84755e-05
1.84751e-05
1.84747e-05
1.84744e-05
1.8474e-05
1.84737e-05
1.84733e-05
1.8473e-05
1.84726e-05
1.84723e-05
1.8472e-05
1.84717e-05
1.84714e-05
1.84711e-05
1.84708e-05
1.84705e-05
1.84702e-05
1.84699e-05
1.84696e-05
1.84693e-05
1.8469e-05
1.84688e-05
1.84685e-05
1.84682e-05
1.8468e-05
1.84677e-05
1.84675e-05
1.84672e-05
1.8467e-05
1.84668e-05
1.84666e-05
1.84663e-05
1.84661e-05
1.84659e-05
1.84657e-05
1.84655e-05
1.84653e-05
1.84651e-05
1.84649e-05
1.84647e-05
1.84645e-05
1.84643e-05
1.84641e-05
1.84639e-05
1.84638e-05
1.84636e-05
1.84634e-05
1.84632e-05
1.84631e-05
1.84629e-05
1.84627e-05
1.84626e-05
1.84624e-05
1.84623e-05
1.84621e-05
1.8462e-05
1.84619e-05
1.84617e-05
1.84616e-05
1.84615e-05
1.84613e-05
1.84612e-05
1.84611e-05
1.8461e-05
1.84608e-05
1.84607e-05
1.84606e-05
1.84605e-05
1.84604e-05
1.84603e-05
1.84602e-05
1.84601e-05
1.846e-05
1.84599e-05
1.84598e-05
1.84597e-05
1.84596e-05
1.84595e-05
1.84595e-05
1.84594e-05
1.84593e-05
1.84592e-05
1.84591e-05
1.84591e-05
1.8459e-05
1.84589e-05
1.84589e-05
1.84588e-05
1.84587e-05
1.84587e-05
1.84586e-05
1.84585e-05
1.84585e-05
1.84584e-05
1.84584e-05
1.84583e-05
1.84583e-05
1.84582e-05
1.84582e-05
1.84582e-05
1.84581e-05
1.84581e-05
1.84581e-05
1.8458e-05
1.8458e-05
1.8458e-05
1.84579e-05
1.84579e-05
1.84579e-05
1.84578e-05
1.84578e-05
1.84578e-05
1.84578e-05
1.84578e-05
1.84578e-05
1.84577e-05
1.84577e-05
1.84577e-05
1.84577e-05
1.84577e-05
1.84577e-05
1.84577e-05
1.84577e-05
1.93843e-05
1.93752e-05
1.93662e-05
1.93572e-05
1.93481e-05
1.9339e-05
1.93303e-05
1.93213e-05
1.93126e-05
1.9304e-05
1.92951e-05
1.92864e-05
1.92781e-05
1.92698e-05
1.92612e-05
1.92528e-05
1.92446e-05
1.9236e-05
1.92278e-05
1.92197e-05
1.92116e-05
1.92037e-05
1.91959e-05
1.91883e-05
1.91807e-05
1.91732e-05
1.91657e-05
1.91582e-05
1.91505e-05
1.91431e-05
1.91359e-05
1.91287e-05
1.91214e-05
1.9114e-05
1.91069e-05
1.91e-05
1.9093e-05
1.90863e-05
1.90797e-05
1.9073e-05
1.90661e-05
1.90593e-05
1.90526e-05
1.90462e-05
1.90396e-05
1.9033e-05
1.90267e-05
1.90206e-05
1.90144e-05
1.90079e-05
1.90014e-05
1.89953e-05
1.89893e-05
1.89834e-05
1.89775e-05
1.89717e-05
1.89658e-05
1.896e-05
1.89542e-05
1.89484e-05
1.89429e-05
1.89374e-05
1.89317e-05
1.89263e-05
1.8921e-05
1.89155e-05
1.89101e-05
1.89049e-05
1.88998e-05
1.88946e-05
1.88896e-05
1.88846e-05
1.88795e-05
1.88746e-05
1.88698e-05
1.88649e-05
1.886e-05
1.88552e-05
1.88504e-05
1.88457e-05
1.8841e-05
1.88363e-05
1.88317e-05
1.88272e-05
1.88227e-05
1.88182e-05
1.88139e-05
1.88094e-05
1.88051e-05
1.8801e-05
1.87967e-05
1.87925e-05
1.87884e-05
1.87842e-05
1.87802e-05
1.87763e-05
1.87724e-05
1.87685e-05
1.87646e-05
1.87608e-05
1.8757e-05
1.87533e-05
1.87496e-05
1.8746e-05
1.87423e-05
1.87387e-05
1.87351e-05
1.87316e-05
1.87282e-05
1.87246e-05
1.87212e-05
1.87179e-05
1.87145e-05
1.87113e-05
1.87081e-05
1.87049e-05
1.87017e-05
1.86985e-05
1.86953e-05
1.86921e-05
1.8689e-05
1.8686e-05
1.8683e-05
1.868e-05
1.86771e-05
1.86741e-05
1.86712e-05
1.86684e-05
1.86656e-05
1.86628e-05
1.86601e-05
1.86574e-05
1.86546e-05
1.86518e-05
1.86492e-05
1.86466e-05
1.86441e-05
1.86415e-05
1.86391e-05
1.86367e-05
1.86343e-05
1.86317e-05
1.86293e-05
1.86269e-05
1.86245e-05
1.86221e-05
1.86198e-05
1.86176e-05
1.86154e-05
1.86132e-05
1.86111e-05
1.86089e-05
1.86068e-05
1.86047e-05
1.86025e-05
1.86005e-05
1.85985e-05
1.85965e-05
1.85945e-05
1.85925e-05
1.85906e-05
1.85886e-05
1.85867e-05
1.85848e-05
1.8583e-05
1.85812e-05
1.85794e-05
1.85776e-05
1.85758e-05
1.85741e-05
1.85723e-05
1.85706e-05
1.85689e-05
1.85673e-05
1.85657e-05
1.85641e-05
1.85625e-05
1.85609e-05
1.85594e-05
1.85578e-05
1.85563e-05
1.85549e-05
1.85534e-05
1.8552e-05
1.85506e-05
1.85492e-05
1.85478e-05
1.85465e-05
1.85451e-05
1.85437e-05
1.85424e-05
1.85411e-05
1.85398e-05
1.85385e-05
1.85372e-05
1.8536e-05
1.85347e-05
1.85335e-05
1.85322e-05
1.8531e-05
1.85298e-05
1.85287e-05
1.85275e-05
1.85264e-05
1.85253e-05
1.85242e-05
1.85231e-05
1.85221e-05
1.8521e-05
1.852e-05
1.8519e-05
1.8518e-05
1.8517e-05
1.8516e-05
1.85151e-05
1.85141e-05
1.85132e-05
1.85123e-05
1.85113e-05
1.85105e-05
1.85096e-05
1.85087e-05
1.85078e-05
1.8507e-05
1.85061e-05
1.85053e-05
1.85045e-05
1.85037e-05
1.85029e-05
1.85021e-05
1.85014e-05
1.85006e-05
1.84999e-05
1.84991e-05
1.84984e-05
1.84977e-05
1.8497e-05
1.84963e-05
1.84956e-05
1.8495e-05
1.84943e-05
1.84937e-05
1.8493e-05
1.84924e-05
1.84917e-05
1.84911e-05
1.84905e-05
1.84899e-05
1.84893e-05
1.84887e-05
1.84881e-05
1.84875e-05
1.8487e-05
1.84864e-05
1.84859e-05
1.84854e-05
1.84849e-05
1.84843e-05
1.84838e-05
1.84833e-05
1.84828e-05
1.84823e-05
1.84819e-05
1.84814e-05
1.84809e-05
1.84804e-05
1.848e-05
1.84795e-05
1.84791e-05
1.84787e-05
1.84782e-05
1.84778e-05
1.84774e-05
1.8477e-05
1.84766e-05
1.84763e-05
1.84759e-05
1.84755e-05
1.84751e-05
1.84747e-05
1.84744e-05
1.8474e-05
1.84737e-05
1.84733e-05
1.8473e-05
1.84727e-05
1.84723e-05
1.8472e-05
1.84717e-05
1.84714e-05
1.84711e-05
1.84708e-05
1.84705e-05
1.84702e-05
1.84699e-05
1.84696e-05
1.84693e-05
1.8469e-05
1.84688e-05
1.84685e-05
1.84682e-05
1.8468e-05
1.84677e-05
1.84675e-05
1.84673e-05
1.8467e-05
1.84668e-05
1.84666e-05
1.84663e-05
1.84661e-05
1.84659e-05
1.84657e-05
1.84655e-05
1.84653e-05
1.84651e-05
1.84649e-05
1.84647e-05
1.84645e-05
1.84643e-05
1.84641e-05
1.84639e-05
1.84638e-05
1.84636e-05
1.84634e-05
1.84632e-05
1.84631e-05
1.84629e-05
1.84627e-05
1.84626e-05
1.84624e-05
1.84623e-05
1.84621e-05
1.8462e-05
1.84619e-05
1.84617e-05
1.84616e-05
1.84615e-05
1.84613e-05
1.84612e-05
1.84611e-05
1.8461e-05
1.84608e-05
1.84607e-05
1.84606e-05
1.84605e-05
1.84604e-05
1.84603e-05
1.84602e-05
1.84601e-05
1.846e-05
1.84599e-05
1.84598e-05
1.84597e-05
1.84596e-05
1.84595e-05
1.84595e-05
1.84594e-05
1.84593e-05
1.84592e-05
1.84591e-05
1.84591e-05
1.8459e-05
1.84589e-05
1.84589e-05
1.84588e-05
1.84587e-05
1.84587e-05
1.84586e-05
1.84585e-05
1.84585e-05
1.84584e-05
1.84584e-05
1.84583e-05
1.84583e-05
1.84582e-05
1.84582e-05
1.84582e-05
1.84581e-05
1.84581e-05
1.84581e-05
1.8458e-05
1.8458e-05
1.8458e-05
1.84579e-05
1.84579e-05
1.84579e-05
1.84578e-05
1.84578e-05
1.84578e-05
1.84578e-05
1.84578e-05
1.84578e-05
1.84577e-05
1.84577e-05
1.84577e-05
1.84577e-05
1.84577e-05
1.84577e-05
1.84577e-05
1.84577e-05
1.93844e-05
1.93753e-05
1.93662e-05
1.9357e-05
1.93479e-05
1.93389e-05
1.93301e-05
1.93213e-05
1.93124e-05
1.93037e-05
1.9295e-05
1.92867e-05
1.92782e-05
1.92698e-05
1.92612e-05
1.92528e-05
1.92445e-05
1.92361e-05
1.92278e-05
1.92196e-05
1.92117e-05
1.92037e-05
1.91959e-05
1.91884e-05
1.91806e-05
1.91731e-05
1.91658e-05
1.91582e-05
1.91504e-05
1.91431e-05
1.91359e-05
1.91287e-05
1.91214e-05
1.91141e-05
1.91069e-05
1.90999e-05
1.9093e-05
1.90864e-05
1.90798e-05
1.9073e-05
1.9066e-05
1.90592e-05
1.90526e-05
1.90461e-05
1.90396e-05
1.90331e-05
1.90268e-05
1.90205e-05
1.90142e-05
1.90079e-05
1.90016e-05
1.89952e-05
1.89893e-05
1.89834e-05
1.89774e-05
1.89716e-05
1.89658e-05
1.896e-05
1.89543e-05
1.89486e-05
1.8943e-05
1.89374e-05
1.89317e-05
1.89263e-05
1.8921e-05
1.89155e-05
1.89101e-05
1.89048e-05
1.88997e-05
1.88945e-05
1.88895e-05
1.88846e-05
1.88797e-05
1.88748e-05
1.88698e-05
1.88647e-05
1.88599e-05
1.88551e-05
1.88503e-05
1.88457e-05
1.8841e-05
1.88363e-05
1.88317e-05
1.88273e-05
1.88228e-05
1.88183e-05
1.88139e-05
1.88095e-05
1.88052e-05
1.88009e-05
1.87966e-05
1.87925e-05
1.87883e-05
1.87843e-05
1.87803e-05
1.87763e-05
1.87723e-05
1.87685e-05
1.87647e-05
1.87608e-05
1.87569e-05
1.87532e-05
1.87495e-05
1.87459e-05
1.87423e-05
1.87387e-05
1.87351e-05
1.87316e-05
1.87281e-05
1.87246e-05
1.87213e-05
1.87179e-05
1.87146e-05
1.87113e-05
1.87081e-05
1.87049e-05
1.87017e-05
1.86985e-05
1.86952e-05
1.86921e-05
1.8689e-05
1.8686e-05
1.8683e-05
1.868e-05
1.86771e-05
1.86741e-05
1.86712e-05
1.86683e-05
1.86656e-05
1.86628e-05
1.86601e-05
1.86573e-05
1.86545e-05
1.86518e-05
1.86491e-05
1.86466e-05
1.86441e-05
1.86416e-05
1.86391e-05
1.86367e-05
1.86342e-05
1.86317e-05
1.86293e-05
1.86269e-05
1.86245e-05
1.86221e-05
1.86198e-05
1.86176e-05
1.86154e-05
1.86132e-05
1.8611e-05
1.86089e-05
1.86068e-05
1.86047e-05
1.86026e-05
1.86005e-05
1.85985e-05
1.85964e-05
1.85945e-05
1.85925e-05
1.85906e-05
1.85886e-05
1.85867e-05
1.85848e-05
1.8583e-05
1.85812e-05
1.85794e-05
1.85776e-05
1.85758e-05
1.85741e-05
1.85723e-05
1.85706e-05
1.8569e-05
1.85673e-05
1.85657e-05
1.85641e-05
1.85625e-05
1.85609e-05
1.85594e-05
1.85579e-05
1.85563e-05
1.85548e-05
1.85534e-05
1.8552e-05
1.85506e-05
1.85492e-05
1.85478e-05
1.85464e-05
1.85451e-05
1.85437e-05
1.85424e-05
1.85411e-05
1.85398e-05
1.85385e-05
1.85372e-05
1.8536e-05
1.85347e-05
1.85335e-05
1.85322e-05
1.8531e-05
1.85298e-05
1.85287e-05
1.85275e-05
1.85264e-05
1.85253e-05
1.85242e-05
1.85231e-05
1.85221e-05
1.8521e-05
1.852e-05
1.8519e-05
1.8518e-05
1.8517e-05
1.8516e-05
1.85151e-05
1.85141e-05
1.85132e-05
1.85123e-05
1.85114e-05
1.85105e-05
1.85096e-05
1.85087e-05
1.85078e-05
1.8507e-05
1.85061e-05
1.85053e-05
1.85045e-05
1.85037e-05
1.85029e-05
1.85021e-05
1.85014e-05
1.85006e-05
1.84999e-05
1.84991e-05
1.84984e-05
1.84977e-05
1.8497e-05
1.84963e-05
1.84956e-05
1.8495e-05
1.84943e-05
1.84937e-05
1.8493e-05
1.84924e-05
1.84917e-05
1.84911e-05
1.84905e-05
1.84899e-05
1.84893e-05
1.84887e-05
1.84881e-05
1.84875e-05
1.8487e-05
1.84865e-05
1.84859e-05
1.84854e-05
1.84849e-05
1.84843e-05
1.84838e-05
1.84833e-05
1.84828e-05
1.84824e-05
1.84819e-05
1.84814e-05
1.84809e-05
1.84804e-05
1.848e-05
1.84795e-05
1.84791e-05
1.84787e-05
1.84782e-05
1.84778e-05
1.84774e-05
1.8477e-05
1.84766e-05
1.84763e-05
1.84759e-05
1.84755e-05
1.84751e-05
1.84747e-05
1.84744e-05
1.8474e-05
1.84737e-05
1.84733e-05
1.8473e-05
1.84726e-05
1.84723e-05
1.8472e-05
1.84717e-05
1.84714e-05
1.84711e-05
1.84708e-05
1.84705e-05
1.84702e-05
1.84699e-05
1.84696e-05
1.84693e-05
1.8469e-05
1.84688e-05
1.84685e-05
1.84682e-05
1.8468e-05
1.84677e-05
1.84675e-05
1.84673e-05
1.8467e-05
1.84668e-05
1.84666e-05
1.84663e-05
1.84661e-05
1.84659e-05
1.84657e-05
1.84655e-05
1.84653e-05
1.84651e-05
1.84649e-05
1.84647e-05
1.84645e-05
1.84643e-05
1.84641e-05
1.84639e-05
1.84637e-05
1.84636e-05
1.84634e-05
1.84632e-05
1.84631e-05
1.84629e-05
1.84627e-05
1.84626e-05
1.84624e-05
1.84623e-05
1.84621e-05
1.8462e-05
1.84619e-05
1.84617e-05
1.84616e-05
1.84615e-05
1.84613e-05
1.84612e-05
1.84611e-05
1.8461e-05
1.84608e-05
1.84607e-05
1.84606e-05
1.84605e-05
1.84604e-05
1.84603e-05
1.84602e-05
1.84601e-05
1.846e-05
1.84599e-05
1.84598e-05
1.84597e-05
1.84596e-05
1.84595e-05
1.84595e-05
1.84594e-05
1.84593e-05
1.84592e-05
1.84591e-05
1.84591e-05
1.8459e-05
1.84589e-05
1.84589e-05
1.84588e-05
1.84587e-05
1.84587e-05
1.84586e-05
1.84585e-05
1.84585e-05
1.84584e-05
1.84584e-05
1.84583e-05
1.84583e-05
1.84582e-05
1.84582e-05
1.84582e-05
1.84581e-05
1.84581e-05
1.84581e-05
1.8458e-05
1.8458e-05
1.8458e-05
1.84579e-05
1.84579e-05
1.84579e-05
1.84578e-05
1.84578e-05
1.84578e-05
1.84578e-05
1.84578e-05
1.84578e-05
1.84577e-05
1.84577e-05
1.84577e-05
1.84577e-05
1.84577e-05
1.84577e-05
1.84577e-05
1.84577e-05
1.93844e-05
1.93754e-05
1.93662e-05
1.93569e-05
1.93479e-05
1.93388e-05
1.933e-05
1.93212e-05
1.93123e-05
1.93037e-05
1.92951e-05
1.92869e-05
1.92786e-05
1.92696e-05
1.92609e-05
1.92528e-05
1.92445e-05
1.92362e-05
1.9228e-05
1.92196e-05
1.92115e-05
1.92036e-05
1.91959e-05
1.91883e-05
1.91806e-05
1.91732e-05
1.91659e-05
1.91582e-05
1.91506e-05
1.91432e-05
1.91357e-05
1.91285e-05
1.91214e-05
1.91141e-05
1.91067e-05
1.90999e-05
1.90933e-05
1.90866e-05
1.90797e-05
1.90727e-05
1.9066e-05
1.90593e-05
1.90525e-05
1.90461e-05
1.90397e-05
1.90332e-05
1.90269e-05
1.90207e-05
1.90142e-05
1.90078e-05
1.90015e-05
1.89953e-05
1.89893e-05
1.89833e-05
1.89775e-05
1.89716e-05
1.89658e-05
1.896e-05
1.89542e-05
1.89486e-05
1.8943e-05
1.89375e-05
1.89318e-05
1.89264e-05
1.8921e-05
1.89155e-05
1.891e-05
1.89047e-05
1.88996e-05
1.88945e-05
1.88895e-05
1.88847e-05
1.88797e-05
1.88747e-05
1.88698e-05
1.88647e-05
1.88598e-05
1.88551e-05
1.88504e-05
1.88456e-05
1.88409e-05
1.88363e-05
1.88318e-05
1.88273e-05
1.88229e-05
1.88183e-05
1.88139e-05
1.88095e-05
1.88052e-05
1.88009e-05
1.87967e-05
1.87925e-05
1.87884e-05
1.87843e-05
1.87803e-05
1.87764e-05
1.87724e-05
1.87685e-05
1.87647e-05
1.87608e-05
1.87569e-05
1.87531e-05
1.87495e-05
1.87459e-05
1.87423e-05
1.87387e-05
1.87351e-05
1.87316e-05
1.87281e-05
1.87246e-05
1.87213e-05
1.8718e-05
1.87147e-05
1.87113e-05
1.8708e-05
1.87048e-05
1.87018e-05
1.86985e-05
1.86952e-05
1.86921e-05
1.86891e-05
1.8686e-05
1.8683e-05
1.86801e-05
1.8677e-05
1.8674e-05
1.86712e-05
1.86684e-05
1.86656e-05
1.86628e-05
1.86601e-05
1.86573e-05
1.86545e-05
1.86518e-05
1.86491e-05
1.86466e-05
1.86441e-05
1.86416e-05
1.86391e-05
1.86366e-05
1.86342e-05
1.86317e-05
1.86293e-05
1.86269e-05
1.86246e-05
1.86222e-05
1.86199e-05
1.86176e-05
1.86154e-05
1.86132e-05
1.86111e-05
1.86089e-05
1.86068e-05
1.86047e-05
1.86026e-05
1.86005e-05
1.85984e-05
1.85964e-05
1.85945e-05
1.85926e-05
1.85906e-05
1.85886e-05
1.85867e-05
1.85848e-05
1.8583e-05
1.85812e-05
1.85793e-05
1.85775e-05
1.85758e-05
1.8574e-05
1.85723e-05
1.85707e-05
1.8569e-05
1.85673e-05
1.85657e-05
1.85641e-05
1.85625e-05
1.85609e-05
1.85594e-05
1.85579e-05
1.85564e-05
1.85549e-05
1.85534e-05
1.8552e-05
1.85506e-05
1.85492e-05
1.85478e-05
1.85464e-05
1.8545e-05
1.85437e-05
1.85423e-05
1.8541e-05
1.85397e-05
1.85385e-05
1.85372e-05
1.8536e-05
1.85347e-05
1.85335e-05
1.85322e-05
1.8531e-05
1.85298e-05
1.85287e-05
1.85275e-05
1.85264e-05
1.85253e-05
1.85242e-05
1.85232e-05
1.85221e-05
1.85211e-05
1.852e-05
1.8519e-05
1.8518e-05
1.8517e-05
1.8516e-05
1.85151e-05
1.85141e-05
1.85132e-05
1.85123e-05
1.85113e-05
1.85104e-05
1.85096e-05
1.85087e-05
1.85078e-05
1.8507e-05
1.85061e-05
1.85053e-05
1.85045e-05
1.85037e-05
1.85029e-05
1.85021e-05
1.85014e-05
1.85006e-05
1.84999e-05
1.84991e-05
1.84984e-05
1.84977e-05
1.8497e-05
1.84963e-05
1.84957e-05
1.8495e-05
1.84943e-05
1.84937e-05
1.8493e-05
1.84924e-05
1.84917e-05
1.84911e-05
1.84905e-05
1.84899e-05
1.84893e-05
1.84887e-05
1.84881e-05
1.84876e-05
1.8487e-05
1.84865e-05
1.84859e-05
1.84854e-05
1.84849e-05
1.84844e-05
1.84838e-05
1.84833e-05
1.84828e-05
1.84824e-05
1.84819e-05
1.84814e-05
1.84809e-05
1.84805e-05
1.848e-05
1.84795e-05
1.84791e-05
1.84787e-05
1.84782e-05
1.84778e-05
1.84774e-05
1.8477e-05
1.84766e-05
1.84763e-05
1.84759e-05
1.84755e-05
1.84751e-05
1.84747e-05
1.84744e-05
1.8474e-05
1.84737e-05
1.84733e-05
1.8473e-05
1.84727e-05
1.84723e-05
1.8472e-05
1.84717e-05
1.84714e-05
1.84711e-05
1.84708e-05
1.84705e-05
1.84702e-05
1.84699e-05
1.84696e-05
1.84693e-05
1.8469e-05
1.84688e-05
1.84685e-05
1.84682e-05
1.8468e-05
1.84677e-05
1.84675e-05
1.84673e-05
1.8467e-05
1.84668e-05
1.84666e-05
1.84663e-05
1.84661e-05
1.84659e-05
1.84657e-05
1.84655e-05
1.84653e-05
1.84651e-05
1.84649e-05
1.84647e-05
1.84645e-05
1.84643e-05
1.84641e-05
1.84639e-05
1.84637e-05
1.84636e-05
1.84634e-05
1.84632e-05
1.84631e-05
1.84629e-05
1.84628e-05
1.84626e-05
1.84624e-05
1.84623e-05
1.84621e-05
1.8462e-05
1.84619e-05
1.84617e-05
1.84616e-05
1.84615e-05
1.84613e-05
1.84612e-05
1.84611e-05
1.8461e-05
1.84608e-05
1.84607e-05
1.84606e-05
1.84605e-05
1.84604e-05
1.84603e-05
1.84602e-05
1.84601e-05
1.846e-05
1.84599e-05
1.84598e-05
1.84597e-05
1.84596e-05
1.84595e-05
1.84595e-05
1.84594e-05
1.84593e-05
1.84592e-05
1.84591e-05
1.84591e-05
1.8459e-05
1.84589e-05
1.84589e-05
1.84588e-05
1.84587e-05
1.84587e-05
1.84586e-05
1.84585e-05
1.84585e-05
1.84584e-05
1.84584e-05
1.84583e-05
1.84583e-05
1.84583e-05
1.84582e-05
1.84582e-05
1.84581e-05
1.84581e-05
1.84581e-05
1.8458e-05
1.8458e-05
1.8458e-05
1.84579e-05
1.84579e-05
1.84579e-05
1.84578e-05
1.84578e-05
1.84578e-05
1.84578e-05
1.84578e-05
1.84578e-05
1.84577e-05
1.84577e-05
1.84577e-05
1.84577e-05
1.84577e-05
1.84577e-05
1.84577e-05
1.84577e-05
1.93844e-05
1.93755e-05
1.93664e-05
1.9357e-05
1.93479e-05
1.93388e-05
1.93298e-05
1.93209e-05
1.93123e-05
1.93039e-05
1.92952e-05
1.92868e-05
1.92783e-05
1.92696e-05
1.92611e-05
1.92526e-05
1.92443e-05
1.92362e-05
1.92281e-05
1.92199e-05
1.92117e-05
1.92037e-05
1.91958e-05
1.91883e-05
1.91807e-05
1.91731e-05
1.91657e-05
1.91582e-05
1.91508e-05
1.91433e-05
1.91357e-05
1.91285e-05
1.91213e-05
1.9114e-05
1.91068e-05
1.90999e-05
1.90933e-05
1.90865e-05
1.90797e-05
1.90727e-05
1.9066e-05
1.90592e-05
1.90526e-05
1.90462e-05
1.90397e-05
1.90332e-05
1.90269e-05
1.90206e-05
1.90143e-05
1.90079e-05
1.90014e-05
1.89953e-05
1.89894e-05
1.89833e-05
1.89774e-05
1.89716e-05
1.89658e-05
1.896e-05
1.89543e-05
1.89487e-05
1.8943e-05
1.89376e-05
1.8932e-05
1.89264e-05
1.8921e-05
1.89155e-05
1.89099e-05
1.89047e-05
1.88996e-05
1.88945e-05
1.88896e-05
1.88846e-05
1.88796e-05
1.88746e-05
1.88697e-05
1.88647e-05
1.88598e-05
1.8855e-05
1.88503e-05
1.88456e-05
1.8841e-05
1.88363e-05
1.88318e-05
1.88273e-05
1.88229e-05
1.88184e-05
1.8814e-05
1.88096e-05
1.88051e-05
1.88008e-05
1.87967e-05
1.87926e-05
1.87884e-05
1.87843e-05
1.87803e-05
1.87763e-05
1.87724e-05
1.87686e-05
1.87646e-05
1.87608e-05
1.87569e-05
1.87531e-05
1.87495e-05
1.87459e-05
1.87423e-05
1.87387e-05
1.87352e-05
1.87317e-05
1.87282e-05
1.87246e-05
1.87212e-05
1.87179e-05
1.87147e-05
1.87113e-05
1.8708e-05
1.87048e-05
1.87017e-05
1.86986e-05
1.86953e-05
1.86921e-05
1.86891e-05
1.8686e-05
1.8683e-05
1.868e-05
1.8677e-05
1.86741e-05
1.86712e-05
1.86684e-05
1.86656e-05
1.86628e-05
1.86601e-05
1.86572e-05
1.86545e-05
1.86518e-05
1.86492e-05
1.86466e-05
1.8644e-05
1.86416e-05
1.86391e-05
1.86366e-05
1.86342e-05
1.86318e-05
1.86294e-05
1.86269e-05
1.86245e-05
1.86222e-05
1.86199e-05
1.86176e-05
1.86154e-05
1.86132e-05
1.86111e-05
1.86089e-05
1.86068e-05
1.86046e-05
1.86025e-05
1.86005e-05
1.85985e-05
1.85965e-05
1.85945e-05
1.85926e-05
1.85906e-05
1.85886e-05
1.85867e-05
1.85848e-05
1.85829e-05
1.85811e-05
1.85793e-05
1.85775e-05
1.85758e-05
1.85741e-05
1.85724e-05
1.85707e-05
1.8569e-05
1.85673e-05
1.85657e-05
1.85641e-05
1.85625e-05
1.8561e-05
1.85594e-05
1.85579e-05
1.85564e-05
1.85549e-05
1.85534e-05
1.8552e-05
1.85506e-05
1.85492e-05
1.85477e-05
1.85464e-05
1.8545e-05
1.85437e-05
1.85423e-05
1.8541e-05
1.85398e-05
1.85385e-05
1.85372e-05
1.8536e-05
1.85348e-05
1.85335e-05
1.85322e-05
1.8531e-05
1.85298e-05
1.85287e-05
1.85275e-05
1.85264e-05
1.85253e-05
1.85242e-05
1.85232e-05
1.85221e-05
1.85211e-05
1.852e-05
1.8519e-05
1.8518e-05
1.8517e-05
1.8516e-05
1.85151e-05
1.85141e-05
1.85132e-05
1.85122e-05
1.85113e-05
1.85104e-05
1.85096e-05
1.85087e-05
1.85078e-05
1.8507e-05
1.85061e-05
1.85053e-05
1.85045e-05
1.85037e-05
1.85029e-05
1.85021e-05
1.85014e-05
1.85006e-05
1.84999e-05
1.84991e-05
1.84984e-05
1.84977e-05
1.8497e-05
1.84963e-05
1.84956e-05
1.8495e-05
1.84943e-05
1.84937e-05
1.8493e-05
1.84924e-05
1.84917e-05
1.84911e-05
1.84905e-05
1.84899e-05
1.84893e-05
1.84887e-05
1.84881e-05
1.84876e-05
1.8487e-05
1.84865e-05
1.84859e-05
1.84854e-05
1.84849e-05
1.84844e-05
1.84838e-05
1.84833e-05
1.84828e-05
1.84823e-05
1.84819e-05
1.84814e-05
1.84809e-05
1.84804e-05
1.848e-05
1.84795e-05
1.84791e-05
1.84787e-05
1.84782e-05
1.84778e-05
1.84775e-05
1.8477e-05
1.84766e-05
1.84762e-05
1.84759e-05
1.84755e-05
1.84751e-05
1.84747e-05
1.84744e-05
1.8474e-05
1.84737e-05
1.84733e-05
1.8473e-05
1.84727e-05
1.84723e-05
1.8472e-05
1.84717e-05
1.84714e-05
1.84711e-05
1.84708e-05
1.84705e-05
1.84702e-05
1.84699e-05
1.84696e-05
1.84693e-05
1.8469e-05
1.84688e-05
1.84685e-05
1.84682e-05
1.8468e-05
1.84677e-05
1.84675e-05
1.84673e-05
1.8467e-05
1.84668e-05
1.84666e-05
1.84663e-05
1.84661e-05
1.84659e-05
1.84657e-05
1.84655e-05
1.84653e-05
1.84651e-05
1.84649e-05
1.84647e-05
1.84645e-05
1.84643e-05
1.84641e-05
1.84639e-05
1.84637e-05
1.84636e-05
1.84634e-05
1.84632e-05
1.84631e-05
1.84629e-05
1.84627e-05
1.84626e-05
1.84624e-05
1.84623e-05
1.84621e-05
1.8462e-05
1.84619e-05
1.84617e-05
1.84616e-05
1.84615e-05
1.84613e-05
1.84612e-05
1.84611e-05
1.8461e-05
1.84608e-05
1.84607e-05
1.84606e-05
1.84605e-05
1.84604e-05
1.84603e-05
1.84602e-05
1.84601e-05
1.846e-05
1.84599e-05
1.84598e-05
1.84597e-05
1.84596e-05
1.84595e-05
1.84595e-05
1.84594e-05
1.84593e-05
1.84592e-05
1.84591e-05
1.84591e-05
1.8459e-05
1.84589e-05
1.84589e-05
1.84588e-05
1.84587e-05
1.84587e-05
1.84586e-05
1.84585e-05
1.84585e-05
1.84584e-05
1.84584e-05
1.84583e-05
1.84583e-05
1.84583e-05
1.84582e-05
1.84582e-05
1.84581e-05
1.84581e-05
1.84581e-05
1.8458e-05
1.8458e-05
1.8458e-05
1.84579e-05
1.84579e-05
1.84579e-05
1.84578e-05
1.84578e-05
1.84578e-05
1.84578e-05
1.84578e-05
1.84578e-05
1.84577e-05
1.84577e-05
1.84577e-05
1.84577e-05
1.84577e-05
1.84577e-05
1.84577e-05
1.84577e-05
1.93845e-05
1.93755e-05
1.93664e-05
1.93572e-05
1.93481e-05
1.93389e-05
1.93297e-05
1.93208e-05
1.93122e-05
1.93037e-05
1.92952e-05
1.92868e-05
1.92782e-05
1.92694e-05
1.92609e-05
1.92526e-05
1.92444e-05
1.92362e-05
1.92281e-05
1.92201e-05
1.92118e-05
1.92037e-05
1.9196e-05
1.91884e-05
1.91808e-05
1.91731e-05
1.91656e-05
1.91581e-05
1.91507e-05
1.91433e-05
1.91357e-05
1.91283e-05
1.91212e-05
1.9114e-05
1.9107e-05
1.91001e-05
1.90932e-05
1.90864e-05
1.90796e-05
1.90728e-05
1.90661e-05
1.90592e-05
1.90526e-05
1.90462e-05
1.90397e-05
1.90332e-05
1.90269e-05
1.90206e-05
1.90143e-05
1.90079e-05
1.90015e-05
1.89954e-05
1.89894e-05
1.89833e-05
1.89774e-05
1.89716e-05
1.89658e-05
1.896e-05
1.89543e-05
1.89487e-05
1.89431e-05
1.89376e-05
1.8932e-05
1.89262e-05
1.89208e-05
1.89155e-05
1.891e-05
1.89046e-05
1.88995e-05
1.88946e-05