/*--------------------------------*- C++ -*----------------------------------*\
  =========                 |
  \\      /  F ield         | OpenFOAM: The Open Source CFD Toolbox
   \\    /   O peration     | Website:  https://openfoam.org
    \\  /    A nd           | Version:  7
     \\/     M anipulation  |
\*---------------------------------------------------------------------------*/
FoamFile
{
    version     2.0;
    format      ascii;
    class       volScalarField;
    location    "1000";
    object      muTotal;
}
// * * * * * * * * * * * * * * * * * * * * * * * * * * * * * * * * * * * * * //

dimensions      [1 -1 -1 0 0 0 0];

internalField   nonuniform List<scalar> 
160000
(
0.000324033
0.000325506
0.000251131
0.00028716
0.00026467
0.000261317
0.000312427
0.00037608
0.000303508
0.000313063
0.00030227
0.000290605
0.000284214
0.000316022
0.000319544
0.000301194
0.00030243
0.000332463
0.000390289
0.000353056
0.000294257
0.000297346
0.000343565
0.000322684
0.000275716
0.000276765
0.000353814
0.000359981
0.000361321
0.000362655
0.000348208
0.000307356
0.000308502
0.000309641
0.000310722
0.000311808
0.000388219
0.000389541
0.000390845
0.000392116
0.000288606
0.000285928
0.000338127
0.00038989
0.000391133
0.000392416
0.000393669
0.000318962
0.000319954
0.000320965
0.000339003
0.000400513
0.000401716
0.000402912
0.000348436
0.000339357
0.00034035
0.000341341
0.000353414
0.000381854
0.000382962
0.000384052
0.00038511
0.00038058
0.000381558
0.000363069
0.000346661
0.000347586
0.00034848
0.000387825
0.000388838
0.000389814
0.000390793
0.000391733
0.000392686
0.000393632
0.000394579
0.000399492
0.000400427
0.000393964
0.000398948
0.000399886
0.000372649
0.000373474
0.00037642
0.000386833
0.000387396
0.000388194
0.000392981
0.000369929
0.000370702
0.000410983
0.000408891
0.000382934
0.000383698
0.000389187
0.000422476
0.000423282
0.000424082
0.000424861
0.000421497
0.000400743
0.000409019
0.000409768
0.000416291
0.0003939
0.000394578
0.000435397
0.000436174
0.000436896
0.000437674
0.000430463
0.000416957
0.000412342
0.000412981
0.000406627
0.000407253
0.000452848
0.000453549
0.00044103
0.000430411
0.000455556
0.000465199
0.000465867
0.000466533
0.000434859
0.000401901
0.000402454
0.000409535
0.000394781
0.000395301
0.000409369
0.000451859
0.00041328
0.000409859
0.00041037
0.000418496
0.000410789
0.000411274
0.000411739
0.000412139
0.00041262
0.000413095
0.000461834
0.00046238
0.00046291
0.000462366
0.000416135
0.000416582
0.000417019
0.00043162
0.000432065
0.000432498
0.000421271
0.000421692
0.000450219
0.000450673
0.000451101
0.000451552
0.000432577
0.000415687
0.000418872
0.000430485
0.000430856
0.000431272
0.000457558
0.000457966
0.000458355
0.000452383
0.000439086
0.000439443
0.000433662
0.000434013
0.000435297
0.000435644
0.000443479
0.000458726
0.000459067
0.000459413
0.000453221
0.000453539
0.000486129
0.000444407
0.000444708
0.000446668
0.000456297
0.000458345
0.000458653
0.000445695
0.000445989
0.000416924
0.00041718
0.00041743
0.000417693
0.000417959
0.000418207
0.000478384
0.000478687
0.000478951
0.000432246
0.000430661
0.000430906
0.000456535
0.000464103
0.000479031
0.000470742
0.000452286
0.000499702
0.00049995
0.000500192
0.00047326
0.000473498
0.000473722
0.000476377
0.000472704
0.000472919
0.000473268
0.000473503
0.000473689
0.000473923
0.000474098
0.000474347
0.000474528
0.000483883
0.000484063
0.000484721
0.000468285
0.000445405
0.000440857
0.000441021
0.000441177
0.000476982
0.000472581
0.000474439
0.000474628
0.000474766
0.000474946
0.000475077
0.000473235
0.000481066
0.000481241
0.000482899
0.000460048
0.000460187
0.000469305
0.000443603
0.000443697
0.000443859
0.000443964
0.000444112
0.000450755
0.000450895
0.00041448
0.000437928
0.000474987
0.000475101
0.000448245
0.000443115
0.000465123
0.000465238
0.000465351
0.000462298
0.000459677
0.000459778
0.000485825
0.000485933
0.000486038
0.000457894
0.000434757
0.000434846
0.000434933
0.000476809
0.000476903
0.000476994
0.000477083
0.000478945
0.000480156
0.000480246
0.000443915
0.000477909
0.000477982
0.000490759
0.000490836
0.000477303
0.000452578
0.00047742
0.00047749
0.000475323
0.000493423
0.000432112
0.000430204
0.000430263
0.000497409
0.00049748
0.000497549
0.000497617
0.000462766
0.000462826
0.000462884
0.000462941
0.000478582
0.000480829
0.000484754
0.000484809
0.000462579
0.000438724
0.000440711
0.000440764
0.000475813
0.000482313
0.000482342
0.000481307
0.000481352
0.000465426
0.000437363
0.000458526
0.00045857
0.000456007
0.000452233
0.000443087
0.000443128
0.000458514
0.000458553
0.00045859
0.000458632
0.000474129
0.000474165
0.000474201
0.000468777
0.00045668
0.000445841
0.000445874
0.000440161
0.000438122
0.00043815
0.000443859
0.000414655
0.00039303
0.000393093
0.000393038
0.000393129
0.000393103
0.000393151
0.00042783
0.000567198
0.000567223
0.000567297
0.000567277
0.000567414
0.000567286
0.000502492
0.000463381
0.000459735
0.000459754
0.000494354
0.000494372
0.000475128
0.000459156
0.000459184
0.00045919
0.00047827
0.00047828
0.00047459
0.000462525
0.000462448
0.000458575
0.000489686
0.000489683
0.000489825
0.00048927
0.000492592
0.000492643
0.000492616
0.000492665
0.000487737
0.000479191
0.000479213
0.000482458
0.000482463
0.000489317
0.000486326
0.000467363
0.000461147
0.000465139
0.000465111
0.000465197
0.000465125
0.000465214
0.000465152
0.000466093
0.000466099
0.00045949
0.000448414
0.000446996
0.000471365
0.000484111
0.000354785
0.000307806
0.000307773
0.000307772
0.000282186
0.000266894
0.000358668
0.000255308
0.00025645
0.000271735
0.000284552
0.000285802
0.000305149
0.000306472
0.000294838
0.000318699
0.000330489
0.000334036
0.000335471
0.000318617
0.000302402
0.000315513
0.000306897
0.000293114
0.000294279
0.000334633
0.000343586
0.000344926
0.000307953
0.000356115
0.000357496
0.000358878
0.000326842
0.000325149
0.000318333
0.000319468
0.000320633
0.000313996
0.000310725
0.000365212
0.00036652
0.000360812
0.000390776
0.000317749
0.000284986
0.000285928
0.000290691
0.00037805
0.000391126
0.000392419
0.000369294
0.000335042
0.00031994
0.000320968
0.000321979
0.00039544
0.000401717
0.000402387
0.000348421
0.000405249
0.000387327
0.000352901
0.000367824
0.000368857
0.000378611
0.000375566
0.000350767
0.00037786
0.000378141
0.000352259
0.000384533
0.00038585
0.000386852
0.000387824
0.000372135
0.000354814
0.000355669
0.000389826
0.000373374
0.000374279
0.000375166
0.000376056
0.000393552
0.000392927
0.000389399
0.000390296
0.000402507
0.000403406
0.0004043
0.000391919
0.000387393
0.000407622
0.000408461
0.000409344
0.000410163
0.000411038
0.000405806
0.000382934
0.000383685
0.000401717
0.000391961
0.000381386
0.000381663
0.000382363
0.000386481
0.000387195
0.000435216
0.000438798
0.000432241
0.000437603
0.000438351
0.000407557
0.000408234
0.000408956
0.000409619
0.000410309
0.000436975
0.000437669
0.000438351
0.000433387
0.000427409
0.000437881
0.000453551
0.000454248
0.000419819
0.000420446
0.00042104
0.000421651
0.00042225
0.000434519
0.000423304
0.000439816
0.00044041
0.000428743
0.000395298
0.000426986
0.000463503
0.000464135
0.000464752
0.000465313
0.000462739
0.000410794
0.000437847
0.000456555
0.0004571
0.000457657
0.000458209
0.000458724
0.000408085
0.000408546
0.000459112
0.000443496
0.000430569
0.000430946
0.000411245
0.000411675
0.000448869
0.000449333
0.000449781
0.00045024
0.000450671
0.000449479
0.000417276
0.00043265
0.000415776
0.000398328
0.000398694
0.000399333
0.000431326
0.000457557
0.000457962
0.000441432
0.000430467
0.00041228
0.000412667
0.000412991
0.00046464
0.000474926
0.000475363
0.000475946
0.000458724
0.000459071
0.000481101
0.000471096
0.000500492
0.000500839
0.00046114
0.000477629
0.000477935
0.000455497
0.000421055
0.000421314
0.000496321
0.000496643
0.000496968
0.000463284
0.000479848
0.000480148
0.000475708
0.000478105
0.000478404
0.000478672
0.000454599
0.000430396
0.000430655
0.000430898
0.00046892
0.000478773
0.000479028
0.000437795
0.00043724
0.000437488
0.000437683
0.000437918
0.00043811
0.000475766
0.000476399
0.000476609
0.000476441
0.000483461
0.000443141
0.000430214
0.000430419
0.000430588
0.000450954
0.000477358
0.00049356
0.000493735
0.000494007
0.000494126
0.000494396
0.000454114
0.000483033
0.000483215
0.000483383
0.000476983
0.000421998
0.000422168
0.000422295
0.000474775
0.000462825
0.000462999
0.000463133
0.000463302
0.000463429
0.00049319
0.000493332
0.000493125
0.000477322
0.00048414
0.000484305
0.000484426
0.000475034
0.000455172
0.000432163
0.000424853
0.000411731
0.000411839
0.000474983
0.000452192
0.000441673
0.000443108
0.000443222
0.000443337
0.000443448
0.000474359
0.000474475
0.000474589
0.000424544
0.00042464
0.000424729
0.000491907
0.000492012
0.000492116
0.00044003
0.000418039
0.000418121
0.000418197
0.000475483
0.000479488
0.000430322
0.000430401
0.000430477
0.000458617
0.000448517
0.000448568
0.00044859
0.000448716
0.000448736
0.000448858
0.000448913
0.000453016
0.000493432
0.000493546
0.000489568
0.000455801
0.000420319
0.000420421
0.000420435
0.00050283
0.000502902
0.000502974
0.000510914
0.000510978
0.000469115
0.000436988
0.000437043
0.000437092
0.00043714
0.000437187
0.000449503
0.000449551
0.000449601
0.000482291
0.00046863
0.000481304
0.000449467
0.000437294
0.000437377
0.000437377
0.000448151
0.00049724
0.000497268
0.000497341
0.000484376
0.000465557
0.000476496
0.000476544
0.000461398
0.000473432
0.000470729
0.000449086
0.000449135
0.000509644
0.000485536
0.000419267
0.000448456
0.000448483
0.00044851
0.000462728
0.000498201
0.000460191
0.000429214
0.000455222
0.000433049
0.000393153
0.000393149
0.000462181
0.000567149
0.000554438
0.000467777
0.000472595
0.000445073
0.000445125
0.000445125
0.000488995
0.000499902
0.000464756
0.000464423
0.000494382
0.000496028
0.000496069
0.000496065
0.000496108
0.00049293
0.000471829
0.000471848
0.000493438
0.000493439
0.000458568
0.000458591
0.000458624
0.000458622
0.00045866
0.000458673
0.000458695
0.000477792
0.000485603
0.000488412
0.000488405
0.000489311
0.00048929
0.000489329
0.000489307
0.000489442
0.000456929
0.000442884
0.00044297
0.000459005
0.000440097
0.000440104
0.000450915
0.000465746
0.000465776
0.000464006
0.000464017
0.000446994
0.000446996
0.00048775
0.000484128
0.000368673
0.00032988
0.000307771
0.000307735
0.000282168
0.000297013
0.000358673
0.000357794
0.000335379
0.000280967
0.000321038
0.000315972
0.000303603
0.000314309
0.000315708
0.000317079
0.000317611
0.000334005
0.000335447
0.000332027
0.000307639
0.000282811
0.000303727
0.0003252
0.000326509
0.000327798
0.000318539
0.000332659
0.000353663
0.000355558
0.000355465
0.000358836
0.000360204
0.000328478
0.000333486
0.000336731
0.000317912
0.000309648
0.000310742
0.000362671
0.000365234
0.000360793
0.000358939
0.000347011
0.000351161
0.000350935
0.00034775
0.000349575
0.000320734
0.000321788
0.000344473
0.000360902
0.000362022
0.000363193
0.000335201
0.000336218
0.000367172
0.000402879
0.000404071
0.000405256
0.000406425
0.000356465
0.000336964
0.000337913
0.000355754
0.000375542
0.000342565
0.000343488
0.000351313
0.000352269
0.000353205
0.00035412
0.00036032
0.000387831
0.000388703
0.000371119
0.000355674
0.000356519
0.000387739
0.000388685
0.000389629
0.000390539
0.000391481
0.000387576
0.000397459
0.000387358
0.000365867
0.000366671
0.000404302
0.00039946
0.00040983
0.000379697
0.000367507
0.000397925
0.000394866
0.000388666
0.000397948
0.00039004
0.000383674
0.000401706
0.000402483
0.00040324
0.000404018
0.000404765
0.000423917
0.000424687
0.000425476
0.000438798
0.000439591
0.000393964
0.000394653
0.000401882
0.000435073
0.00043581
0.000436548
0.000437249
0.000416235
0.000435024
0.000430704
0.000431378
0.00043205
0.000422917
0.000398771
0.000393725
0.0003981
0.000431959
0.000432587
0.00043321
0.000425788
0.000426242
0.000440275
0.000440878
0.000439396
0.000427306
0.00043483
0.000435417
0.000435999
0.000436581
0.000456057
0.000456621
0.000461035
0.000447136
0.000402862
0.000417231
0.000449668
0.000403185
0.000403638
0.000449188
0.000415622
0.000408548
0.000457472
0.000457957
0.000457919
0.000458402
0.000455785
0.000412088
0.000437343
0.000411653
0.000412095
0.000412482
0.000466736
0.000415396
0.000400614
0.000400992
0.000425981
0.000473095
0.000473533
0.000473958
0.000459737
0.000426207
0.000424796
0.000425159
0.00045852
0.000412329
0.000412595
0.000413007
0.000413264
0.000413663
0.000445016
0.000479999
0.000480376
0.000480747
0.000481104
0.000471956
0.000424906
0.00044571
0.000478191
0.000478521
0.000477932
0.000488949
0.000489283
0.00048961
0.000489936
0.000411445
0.000411738
0.000438499
0.00046916
0.000466815
0.000475703
0.000434108
0.000434377
0.000471853
0.000458613
0.000430383
0.000440305
0.000440565
0.000435348
0.00043559
0.000435814
0.000443679
0.0004439
0.000452363
0.000452626
0.000442268
0.00047215
0.000446829
0.000446211
0.000446418
0.000483239
0.000483448
0.000455363
0.000430236
0.00044049
0.000482382
0.000485684
0.000485896
0.000489804
0.000493751
0.000493933
0.000494168
0.000494318
0.000488253
0.000455968
0.000456143
0.000472181
0.000476984
0.000455344
0.000422522
0.000422309
0.000422447
0.000422592
0.000470517
0.000492715
0.000492859
0.000493054
0.000493182
0.00049335
0.00044896
0.000423726
0.000423857
0.000430025
0.000430162
0.000430292
0.000460856
0.000450164
0.000412742
0.000411731
0.000423455
0.000447871
0.000441565
0.000441673
0.000470141
0.000464997
0.000466758
0.000487812
0.000456557
0.00045666
0.000480429
0.000480537
0.000480643
0.0004258
0.000425549
0.000425639
0.000449189
0.000492068
0.00049222
0.000492261
0.000492441
0.000492445
0.000492606
0.000482145
0.000430402
0.000449811
0.000449867
0.000448493
0.000448514
0.000448643
0.000456853
0.000490137
0.000494862
0.000494952
0.000495023
0.000495108
0.00049718
0.000497258
0.000456226
0.000460987
0.000485372
0.000485529
0.000485514
0.000485706
0.0005088
0.000510915
0.000464084
0.000439483
0.000437001
0.000500271
0.000526838
0.000448121
0.000425567
0.000425614
0.000425659
0.000453586
0.000444279
0.000439177
0.000459142
0.00044675
0.000437335
0.000437362
0.000497134
0.000497202
0.000497224
0.000497289
0.000497311
0.000497384
0.000497392
0.000476527
0.000428344
0.000428397
0.000428411
0.000428463
0.000449086
0.000481348
0.000510161
0.000510209
0.000419214
0.0004152
0.000415225
0.000415258
0.000493185
0.000531688
0.000519164
0.000516638
0.000489832
0.000446329
0.000495659
0.000505289
0.000460047
0.000460057
0.000450149
0.000445054
0.000445054
0.000445094
0.00049982
0.00049985
0.000499881
0.000499907
0.000464404
0.000464418
0.000484455
0.000429644
0.00042966
0.000429676
0.000452015
0.000493372
0.000493398
0.000493422
0.000493446
0.000435979
0.00043647
0.000540829
0.000534273
0.000505778
0.000528157
0.000512413
0.000478392
0.00044567
0.000425947
0.000426014
0.000425973
0.000426032
0.000429193
0.000471117
0.000440701
0.00044075
0.000482485
0.000482555
0.000470241
0.000458992
0.000479846
0.000479908
0.000479857
0.000463289
0.000438609
0.000472565
0.00048774
0.000487782
0.000487747
0.000487816
0.000422467
0.000363626
0.000307767
0.000307734
0.000307733
0.000292937
0.000294846
0.000302655
0.000307965
0.000309364
0.000322896
0.000324316
0.000304904
0.000294033
0.000295441
0.000296716
0.00029824
0.000299493
0.000311357
0.000327125
0.000291311
0.000285094
0.000282806
0.000306429
0.000310668
0.000326503
0.000322798
0.000315751
0.000332641
0.000330692
0.000331942
0.00035207
0.000330905
0.000292191
0.000303718
0.000338115
0.000340067
0.000350226
0.000355789
0.00035708
0.000358324
0.000340136
0.00034127
0.000360003
0.000361242
0.000362495
0.000328681
0.000327435
0.000339009
0.000334442
0.00032176
0.00032277
0.000323764
0.000332444
0.000363189
0.000364326
0.000346633
0.000340218
0.00034858
0.000327383
0.000328329
0.000331422
0.000349559
0.000364189
0.000365213
0.00036623
0.000352948
0.000331711
0.000353389
0.000374054
0.000382546
0.000385495
0.000422698
0.000423791
0.000349258
0.000350135
0.000363449
0.000391163
0.000392108
0.000381356
0.000342318
0.000343128
0.000343928
0.000344748
0.000387586
0.000397467
0.000398425
0.000370058
0.000399512
0.000408025
0.000408937
0.000409827
0.000406233
0.000367485
0.000360791
0.000361534
0.000388647
0.000389459
0.000390039
0.000397654
0.000364964
0.000340638
0.000399957
0.000403985
0.000404768
0.000367822
0.000426354
0.0004271
0.000427888
0.00043994
0.000406869
0.00039465
0.000405457
0.000433521
0.000426159
0.000432394
0.00042997
0.000389823
0.00039044
0.000434934
0.000435616
0.000436275
0.000406209
0.000393132
0.000393727
0.000398097
0.000396669
0.000372312
0.000372842
0.000425787
0.000407424
0.00040671
0.000407267
0.000431974
0.000427304
0.000409527
0.000425231
0.000424622
0.000487892
0.000488642
0.000489235
0.000452439
0.00040123
0.000401765
0.000402181
0.000402717
0.000403151
0.000458122
0.000458632
0.000459214
0.00045969
0.000442658
0.000443109
0.000457915
0.000421117
0.00040651
0.000406943
0.00040734
0.000448149
0.000470303
0.000470802
0.000471231
0.000471738
0.000472137
0.00047262
0.000443634
0.000449062
0.000466997
0.000434694
0.000407162
0.00044695
0.000473533
0.000513454
0.000513889
0.000451471
0.000412676
0.000412992
0.000453211
0.000453569
0.000436119
0.000436177
0.000436512
0.000436839
0.000475669
0.000460569
0.00039965
0.00039993
0.000476564
0.000488259
0.000488601
0.000488939
0.000469146
0.000455785
0.000417743
0.000408964
0.000471271
0.000476094
0.000476391
0.000419281
0.000419554
0.000419804
0.000449908
0.000450184
0.000430139
0.000430382
0.000412592
0.000503036
0.000503349
0.000493437
0.000449422
0.000425308
0.000425496
0.000425737
0.000425922
0.000452528
0.000478226
0.000478487
0.00047869
0.000478953
0.000460896
0.000461143
0.000471562
0.000463677
0.000453415
0.000479605
0.000434934
0.000425811
0.00042595
0.000426118
0.000451465
0.00046615
0.000466337
0.000477419
0.000474094
0.000474788
0.000447942
0.000396423
0.000445318
0.000494651
0.000538332
0.000538533
0.000519315
0.000417908
0.000418054
0.000418184
0.000418316
0.000468072
0.000496279
0.000496462
0.000503154
0.000503736
0.000503886
0.000455727
0.000450332
0.000460853
0.000463618
0.000463736
0.000411727
0.000458888
0.000459017
0.000469909
0.000470026
0.000470141
0.000468237
0.000454145
0.00048782
0.000489822
0.000489934
0.00045577
0.000439033
0.000452285
0.000495874
0.000530439
0.00053059
0.000451261
0.000451395
0.000451478
0.000451577
0.000479427
0.000492461
0.000492535
0.000492671
0.000492121
0.000442979
0.000443055
0.000458445
0.000466539
0.000466613
0.000440747
0.000426305
0.000426374
0.000484207
0.000495026
0.000495097
0.000494173
0.00049705
0.000506316
0.000506425
0.000461362
0.000412468
0.000412512
0.00049441
0.000508797
0.000433744
0.000399767
0.000450658
0.000548841
0.000548907
0.000548982
0.000498692
0.000498703
0.000470551
0.000436548
0.00045357
0.000439132
0.000439181
0.000486504
0.0004373
0.00043726
0.000437377
0.000437342
0.000437457
0.000486783
0.000491166
0.000438376
0.000462805
0.000457043
0.000464924
0.000453449
0.000470795
0.000482808
0.000475993
0.000482896
0.000482907
0.000462538
0.000510221
0.000510276
0.000517925
0.000543358
0.000543346
0.00054347
0.000543413
0.000495764
0.000446113
0.000446143
0.000446174
0.000431259
0.00051521
0.000515239
0.000515266
0.000467319
0.000445725
0.000445074
0.000445074
0.000446924
0.000446946
0.000466512
0.000502062
0.00050211
0.000502105
0.000502171
0.000492545
0.000492578
0.000446901
0.000431899
0.000431914
0.000449272
0.000430063
0.000472594
0.00043362
0.000393153
0.00054089
0.000569892
0.000569859
0.000569956
0.000462027
0.00045405
0.000451431
0.000426005
0.000425964
0.000426022
0.000425981
0.000467362
0.000471707
0.000440743
0.000440707
0.000452992
0.000482504
0.000482648
0.000482313
0.000458984
0.000458636
0.000438628
0.000438568
0.000438635
0.00043859
0.000438642
0.000481704
0.000487804
0.00048775
0.000448843
0.000435015
0.000431005
0.000309582
0.000307697
0.000301647
0.000350616
0.000313537
0.000312053
0.000313468
0.000303406
0.00029606
0.000297875
0.00028719
0.000288423
0.000300334
0.000300377
0.00030543
0.000288499
0.000289747
0.000318075
0.000319391
0.000320709
0.000322037
0.00030959
0.000310863
0.000313249
0.000315751
0.000316952
0.000318167
0.000332724
0.000352048
0.000296889
0.000291775
0.000292837
0.000291878
0.000292919
0.000342005
0.00029502
0.000351487
0.000373712
0.000374949
0.000363708
0.000345271
0.000346472
0.000358229
0.000356914
0.000327443
0.000334909
0.000365744
0.00036692
0.000351851
0.000352942
0.000333162
0.000334225
0.000355411
0.000339209
0.000340225
0.000342937
0.000373494
0.000374591
0.000356337
0.000358171
0.000359202
0.000360205
0.000366214
0.000355001
0.00033167
0.000332569
0.00033343
0.000334348
0.000335254
0.000416194
0.000424933
0.000426036
0.000419009
0.000413978
0.000396145
0.000364826
0.00038689
0.000342327
0.000343144
0.000361889
0.000344731
0.000345541
0.000346333
0.000422854
0.000423802
0.000424731
0.000405582
0.000391703
0.000392559
0.000398487
0.000388699
0.000382032
0.000362543
0.000385141
0.000410399
0.000409235
0.000405288
0.000395967
0.000338997
0.000321336
0.000321925
0.000371086
0.000323128
0.00041758
0.00046644
0.000467216
0.000468108
0.000468862
0.000424358
0.000401532
0.00040222
0.000394114
0.000394526
0.000427018
0.000393196
0.000388008
0.000388614
0.00038922
0.000436274
0.000396407
0.000393133
0.000421821
0.000396087
0.000396671
0.000420924
0.000421524
0.000397982
0.000398561
0.00040963
0.000439027
0.000439611
0.000420111
0.000363253
0.000363768
0.000364231
0.000364723
0.000488047
0.000489395
0.000477715
0.000485113
0.000444564
0.000402238
0.000402667
0.000403184
0.000403611
0.000404121
0.000432052
0.000421307
0.00042175
0.00045022
0.000450702
0.000418258
0.000437295
0.000443657
0.00041368
0.000407094
0.000407561
0.000407906
0.000408363
0.000408732
0.000453413
0.000472569
0.000388029
0.000358969
0.000359259
0.00035963
0.00035991
0.00036026
0.000360544
0.000500347
0.000513907
0.000514338
0.000493536
0.000418546
0.000418895
0.000453573
0.000459389
0.000459744
0.000460093
0.00044022
0.000440544
0.000455803
0.000422509
0.000399922
0.000400196
0.000400463
0.000439143
0.00048893
0.000489239
0.000442109
0.0003965
0.000396753
0.000397005
0.000441379
0.000424309
0.000418673
0.000438368
0.000449623
0.000449899
0.000450177
0.000437083
0.000398413
0.000367807
0.000495144
0.000503328
0.000503621
0.000436928
0.000425294
0.000441256
0.0004739
0.000474138
0.000474366
0.000450966
0.00044029
0.0004405
0.000440694
0.000440884
0.00047635
0.000476566
0.000476783
0.000476989
0.000477213
0.000455838
0.000468692
0.000448787
0.000426121
0.000432707
0.000474969
0.000484128
0.000485825
0.000482745
0.000480644
0.000457672
0.000371354
0.000432302
0.000400404
0.000532964
0.000538532
0.000538713
0.000517904
0.000500107
0.000497394
0.000433276
0.000433435
0.00043498
0.000458304
0.000468592
0.000442399
0.000409995
0.000410117
0.000448489
0.000452732
0.000452856
0.000474479
0.000461252
0.000445434
0.000463394
0.000463515
0.000465062
0.000425619
0.000410513
0.000410609
0.000416874
0.0004642
0.000447941
0.000385576
0.000385658
0.000385746
0.000385839
0.0004907
0.000534561
0.000534731
0.000534766
0.000534556
0.000534629
0.000534748
0.000463587
0.00049254
0.000487523
0.000450934
0.000442979
0.000443055
0.000453807
0.000453881
0.000453957
0.000454051
0.000454122
0.000427983
0.000421764
0.000421829
0.00046333
0.000492952
0.000506241
0.000506353
0.000506389
0.000506497
0.000493845
0.000412473
0.000378884
0.000378923
0.000378981
0.000379034
0.000379079
0.000536717
0.000548918
0.000548982
0.000528259
0.00046333
0.000477573
0.000486666
0.000486699
0.000486773
0.000486804
0.000486944
0.000486905
0.000487042
0.000486998
0.000487137
0.000451007
0.000451142
0.0004608
0.000436175
0.000436295
0.00043626
0.000436368
0.00043638
0.000482763
0.000482803
0.000482856
0.000482883
0.00038149
0.000381494
0.000381533
0.000381546
0.000381588
0.000381621
0.000532226
0.000543388
0.000543535
0.000543447
0.000530135
0.000522293
0.000495933
0.00043122
0.000431282
0.000431316
0.000431347
0.000472864
0.000472889
0.000472913
0.000472933
0.000472953
0.000465058
0.000465078
0.000497742
0.000497662
0.000495292
0.000502125
0.000486377
0.000457748
0.000431901
0.0004319
0.000431914
0.000441946
0.000410931
0.000351539
0.000351597
0.000351661
0.000351671
0.000569013
0.000569954
0.000569875
0.000569973
0.000470589
0.000426009
0.000425946
0.000429103
0.000480862
0.000480874
0.000480888
0.000482557
0.000482484
0.000482573
0.000482499
0.000482652
0.000476443
0.000468459
0.0005022
0.000502256
0.000502211
0.000444933
0.000443869
0.000448751
0.000438619
0.000438652
0.000438632
0.000455209
0.000487728
0.000486811
0.000412048
0.000307697
0.000307695
0.000280246
0.000337266
0.000305561
0.000282152
0.000284598
0.000303931
0.00029599
0.000297292
0.000323306
0.000324676
0.000320594
0.000306142
0.000329012
0.000330459
0.000331874
0.00030335
0.000304608
0.000312696
0.000313701
0.000313615
0.000334166
0.000289966
0.000287692
0.00028876
0.000329548
0.000313275
0.000314432
0.000316229
0.000336313
0.000337566
0.000291868
0.000292923
0.000293969
0.000295024
0.000370252
0.0003737
0.000374975
0.00037622
0.000377543
0.000378821
0.000380125
0.000372316
0.000339071
0.000364564
0.000365739
0.000366919
0.000334515
0.00033556
0.000352102
0.00034481
0.000331741
0.00033274
0.000353697
0.000351902
0.000352928
0.000376215
0.000377307
0.000368205
0.000372587
0.000373629
0.000359577
0.000369906
0.000349065
0.00033256
0.000333452
0.000334347
0.00033527
0.000388801
0.000424964
0.000426002
0.000427083
0.000428093
0.000359891
0.000338766
0.000387729
0.000388684
0.000389628
0.000365315
0.000347899
0.000380361
0.000381871
0.000382725
0.000383604
0.000401658
0.000412142
0.000413057
0.000413954
0.000414851
0.000356268
0.000356312
0.000357028
0.000409567
0.000410395
0.000359313
0.000346438
0.000343646
0.000340731
0.000350792
0.000321932
0.000322528
0.000323123
0.000465411
0.000466412
0.000467284
0.000414699
0.00040642
0.000407054
0.00042503
0.000425764
0.000425695
0.000392043
0.000392681
0.000414746
0.00043397
0.00039212
0.000389199
0.000389806
0.000438502
0.000460044
0.000452865
0.000453537
0.000454201
0.000412426
0.000396989
0.000397572
0.000421772
0.000422355
0.000422891
0.000425372
0.000383512
0.000363282
0.000363738
0.000364248
0.000364705
0.000488781
0.000489415
0.000489861
0.000490442
0.000451125
0.000437325
0.000427437
0.000449362
0.000450778
0.000404093
0.000404592
0.000439608
0.000440094
0.000440573
0.000417823
0.000418261
0.000435582
0.000443677
0.00044412
0.000444612
0.000445019
0.000426753
0.000464304
0.000473856
0.000471697
0.00046982
0.000438332
0.000421853
0.000377281
0.000359581
0.000359944
0.000360236
0.000360552
0.000462467
0.000513921
0.000514337
0.000485125
0.000469127
0.000434575
0.000419502
0.000419832
0.000454525
0.00048193
0.000463228
0.00047104
0.000471376
0.000408056
0.000399926
0.000417148
0.000435918
0.000439137
0.00043495
0.000435253
0.000435551
0.000448302
0.000480139
0.000418118
0.000418168
0.000418415
0.000418679
0.000418917
0.000436152
0.00038656
0.000367131
0.000367367
0.000367575
0.000367808
0.000490085
0.000503369
0.000457909
0.000436905
0.000448302
0.000438864
0.00043875
0.000438969
0.000462881
0.0004631
0.000453443
0.000451236
0.000449853
0.000440873
0.000426557
0.000409594
0.000409777
0.000409956
0.000424279
0.000451728
0.000486744
0.000487076
0.000487276
0.000453483
0.000469859
0.000489413
0.000490732
0.000490918
0.000434374
0.000371334
0.000370718
0.000383299
0.000356183
0.000461842
0.000538579
0.000536669
0.000479004
0.000433285
0.000426431
0.000426563
0.000485044
0.000491358
0.000491504
0.000480273
0.000466408
0.00042612
0.000410115
0.000414958
0.000485917
0.000507082
0.000507214
0.000453115
0.000445432
0.000445546
0.00044727
0.000446637
0.000445292
0.000463577
0.000466693
0.000466799
0.000466911
0.000458792
0.000394073
0.000385647
0.000385741
0.000385835
0.000506281
0.000534625
0.000534667
0.000534842
0.000534869
0.000487786
0.000425104
0.000425198
0.000439233
0.0004401
0.0004841
0.000511658
0.000511747
0.000511832
0.00051134
0.000474416
0.000425318
0.000425387
0.000429752
0.000478078
0.000480507
0.00042863
0.000421327
0.000417635
0.000409326
0.000408322
0.00040838
0.000422506
0.000416244
0.000409489
0.000378933
0.000378986
0.000403891
0.000403922
0.000548333
0.000548921
0.000548993
0.000500601
0.000463327
0.000463379
0.000484806
0.000430208
0.000430325
0.000430283
0.000430413
0.000430371
0.000430499
0.00043927
0.000485568
0.000492897
0.000492928
0.000472222
0.000453487
0.000436284
0.000464611
0.000470883
0.000474186
0.000437419
0.000437454
0.000437487
0.00049291
0.000492433
0.000425794
0.00041436
0.000395549
0.000381591
0.000381608
0.000534494
0.000543452
0.000543414
0.000543507
0.000540552
0.000454069
0.000429031
0.00042906
0.000474731
0.000474741
0.000474782
0.000464437
0.00047289
0.000472914
0.000469383
0.000443671
0.000461137
0.000466371
0.000466389
0.000445918
0.000450593
0.000450617
0.000484185
0.000453904
0.000431913
0.000453824
0.000489074
0.000462509
0.000374276
0.000351549
0.000351613
0.00035162
0.000351679
0.000563775
0.000569878
0.00057
0.000569895
0.000570112
0.000569933
0.000570097
0.000457666
0.000431468
0.000431476
0.000431485
0.000482477
0.00048255
0.000456244
0.000442115
0.000442137
0.000468454
0.000468456
0.000468467
0.000502206
0.000502262
0.000502215
0.000502271
0.000502217
0.00050228
0.000502222
0.000485353
0.000487727
0.000487717
0.000440121
0.000307681
0.000307695
0.000307664
0.000311748
0.000280637
0.000272292
0.000279304
0.000302826
0.000303917
0.000297323
0.000319293
0.000323325
0.000322931
0.000310645
0.000311946
0.000285852
0.000287102
0.000310477
0.000317549
0.00032135
0.000321224
0.000333438
0.000340723
0.000342146
0.000314995
0.000332187
0.000339333
0.000340626
0.000334855
0.000315832
0.000325739
0.000326946
0.000337576
0.000293164
0.000292946
0.000293983
0.000295027
0.000372395
0.000373688
0.000374957
0.000340465
0.000341587
0.000378805
0.000380085
0.000381398
0.000342734
0.000347192
0.000335857
0.000336944
0.000345804
0.000353459
0.000352111
0.000353219
0.000354344
0.000336215
0.000353694
0.000354763
0.000355807
0.000376213
0.000377299
0.000350094
0.000347233
0.000348206
0.000355032
0.000369892
0.000339843