/*--------------------------------*- C++ -*----------------------------------*\
  =========                 |
  \\      /  F ield         | OpenFOAM: The Open Source CFD Toolbox
   \\    /   O peration     | Website:  https://openfoam.org
    \\  /    A nd           | Version:  7
     \\/     M anipulation  |
\*---------------------------------------------------------------------------*/
FoamFile
{
    version     2.0;
    format      ascii;
    class       volScalarField;
    location    "1000";
    object      nuTotal;
}
// * * * * * * * * * * * * * * * * * * * * * * * * * * * * * * * * * * * * * //

dimensions      [0 2 -1 0 0 0 0];

internalField   nonuniform List<scalar> 
160000
(
5.93777e-07
5.96428e-07
6.10283e-07
6.07025e-07
6.13585e-07
6.17099e-07
6.12274e-07
6.08506e-07
6.1893e-07
6.20547e-07
6.24852e-07
6.29311e-07
6.33105e-07
6.31545e-07
6.33869e-07
6.3899e-07
6.41566e-07
6.40519e-07
6.37685e-07
6.43805e-07
6.53762e-07
6.56e-07
6.52803e-07
6.57845e-07
6.6739e-07
6.69887e-07
6.6228e-07
6.64253e-07
6.66696e-07
6.69106e-07
6.73074e-07
6.8063e-07
6.83117e-07
6.85587e-07
6.87932e-07
6.90285e-07
6.84359e-07
6.86673e-07
6.88904e-07
6.91133e-07
7.05997e-07
7.08961e-07
7.04029e-07
7.0107e-07
7.03271e-07
7.05536e-07
7.07753e-07
7.18192e-07
7.20394e-07
7.22632e-07
7.22637e-07
7.1869e-07
7.20845e-07
7.22929e-07
7.3056e-07
7.33851e-07
7.35966e-07
7.38074e-07
7.38755e-07
7.37865e-07
7.39953e-07
7.42049e-07
7.44027e-07
7.46511e-07
7.48403e-07
7.52376e-07
7.56372e-07
7.58361e-07
7.60283e-07
7.57951e-07
7.5981e-07
7.61712e-07
7.63552e-07
7.65386e-07
7.67191e-07
7.69017e-07
7.70834e-07
7.72248e-07
7.74026e-07
7.76487e-07
7.77872e-07
7.79677e-07
7.84226e-07
7.85932e-07
7.87414e-07
7.88145e-07
7.89842e-07
7.91458e-07
7.92663e-07
7.96764e-07
7.9837e-07
7.96071e-07
7.97975e-07
8.02177e-07
8.03758e-07
8.04781e-07
8.03301e-07
8.04814e-07
8.06313e-07
8.07774e-07
8.09588e-07
8.12957e-07
8.13693e-07
8.15166e-07
8.16049e-07
8.19598e-07
8.20986e-07
8.18786e-07
8.20182e-07
8.21566e-07
8.22942e-07
8.2489e-07
8.27402e-07
8.29195e-07
8.30458e-07
8.32383e-07
8.33651e-07
8.31132e-07
8.32408e-07
8.34709e-07
8.36878e-07
8.36138e-07
8.36659e-07
8.37849e-07
8.39027e-07
8.42705e-07
8.46925e-07
8.48063e-07
8.48551e-07
8.51172e-07
8.52278e-07
8.52027e-07
8.49545e-07
8.53983e-07
8.55469e-07
8.56521e-07
8.56847e-07
8.58627e-07
8.59626e-07
8.60586e-07
8.61583e-07
8.62636e-07
8.63616e-07
8.60547e-07
8.6155e-07
8.62524e-07
8.63534e-07
8.68334e-07
8.69258e-07
8.70154e-07
8.6977e-07
8.70648e-07
8.71507e-07
8.73406e-07
8.74267e-07
8.72727e-07
8.73567e-07
8.74414e-07
8.75251e-07
8.77671e-07
8.80037e-07
8.80575e-07
8.80352e-07
8.81138e-07
8.81894e-07
8.8052e-07
8.81295e-07
8.82036e-07
8.83254e-07
8.8508e-07
8.85795e-07
8.87056e-07
8.87747e-07
8.88363e-07
8.89072e-07
8.89099e-07
8.88559e-07
8.89208e-07
8.89867e-07
8.91047e-07
8.91664e-07
8.89896e-07
8.9368e-07
8.94265e-07
8.94711e-07
8.9455e-07
8.94998e-07
8.95573e-07
8.97191e-07
8.97754e-07
9.00924e-07
9.01482e-07
9.02025e-07
9.02575e-07
9.03135e-07
9.03657e-07
8.99233e-07
8.99759e-07
9.00285e-07
9.04534e-07
9.05215e-07
9.05711e-07
9.0406e-07
9.03965e-07
9.03352e-07
9.04446e-07
9.06346e-07
9.03352e-07
9.03796e-07
9.04235e-07
9.06553e-07
9.06985e-07
9.07403e-07
9.07631e-07
9.08325e-07
9.08729e-07
9.09106e-07
9.09494e-07
9.099e-07
9.10287e-07
9.10672e-07
9.11047e-07
9.11408e-07
9.11103e-07
9.1146e-07
9.11779e-07
9.13344e-07
9.1552e-07
9.16257e-07
9.16598e-07
9.16912e-07
9.14411e-07
9.1507e-07
9.15265e-07
9.15576e-07
9.15886e-07
9.16183e-07
9.16478e-07
9.16912e-07
9.16636e-07
9.16918e-07
9.17085e-07
9.19085e-07
9.19359e-07
9.18933e-07
9.21274e-07
9.21546e-07
9.21804e-07
9.22067e-07
9.22322e-07
9.22028e-07
9.22278e-07
9.25803e-07
9.23869e-07
9.21119e-07
9.21347e-07
9.23691e-07
9.24349e-07
9.22784e-07
9.23008e-07
9.23233e-07
9.2369e-07
9.2411e-07
9.24311e-07
9.22568e-07
9.2277e-07
9.22967e-07
9.25281e-07
9.27434e-07
9.2763e-07
9.27812e-07
9.24602e-07
9.24776e-07
9.24946e-07
9.25114e-07
9.25151e-07
9.25238e-07
9.25409e-07
9.28438e-07
9.25908e-07
9.26063e-07
9.2531e-07
9.25462e-07
9.26585e-07
9.28661e-07
9.26877e-07
9.27018e-07
9.27322e-07
9.2617e-07
9.3115e-07
9.31468e-07
9.31597e-07
9.26451e-07
9.26578e-07
9.26703e-07
9.26828e-07
9.29498e-07
9.29614e-07
9.29729e-07
9.29844e-07
9.28772e-07
9.28721e-07
9.28552e-07
9.28661e-07
9.30437e-07
9.32526e-07
9.32456e-07
9.32555e-07
9.29836e-07
9.29459e-07
9.29557e-07
9.29727e-07
9.29817e-07
9.31108e-07
9.33528e-07
9.31832e-07
9.31916e-07
9.32207e-07
9.32599e-07
9.33455e-07
9.33532e-07
9.32331e-07
9.32406e-07
9.32483e-07
9.32556e-07
9.31429e-07
9.31501e-07
9.31571e-07
9.32052e-07
9.33073e-07
9.34039e-07
9.34101e-07
9.34658e-07
9.349e-07
9.34959e-07
9.34521e-07
9.37275e-07
9.396e-07
9.39653e-07
9.39718e-07
9.3976e-07
9.39816e-07
9.39864e-07
9.36399e-07
9.26793e-07
9.26839e-07
9.26879e-07
9.26925e-07
9.26962e-07
9.27012e-07
9.30853e-07
9.33722e-07
9.34054e-07
9.34093e-07
9.31567e-07
9.31603e-07
9.33019e-07
9.34291e-07
9.34324e-07
9.34357e-07
9.32924e-07
9.32955e-07
9.33261e-07
9.34219e-07
9.34255e-07
9.34594e-07
9.32285e-07
9.32313e-07
9.3233e-07
9.32393e-07
9.32184e-07
9.32203e-07
9.32226e-07
9.32245e-07
9.3261e-07
9.33246e-07
9.33263e-07
9.33044e-07
9.33061e-07
9.32588e-07
9.32815e-07
9.34236e-07
9.34737e-07
9.34436e-07
9.3445e-07
9.34455e-07
9.34471e-07
9.34475e-07
9.34489e-07
9.34423e-07
9.34431e-07
9.34959e-07
9.35874e-07
9.35999e-07
9.34048e-07
9.3311e-07
9.45968e-07
9.53475e-07
9.53483e-07
9.53484e-07
5.99303e-07
6.04628e-07
5.9591e-07
6.1238e-07
6.15069e-07
6.1523e-07
6.1606e-07
6.18725e-07
6.18774e-07
6.21414e-07
6.25899e-07
6.25568e-07
6.26934e-07
6.29317e-07
6.31973e-07
6.36695e-07
6.4151e-07
6.42549e-07
6.46513e-07
6.51265e-07
6.5381e-07
6.51195e-07
6.52841e-07
6.55346e-07
6.62441e-07
6.59319e-07
6.61808e-07
6.64328e-07
6.70474e-07
6.73257e-07
6.76686e-07
6.79068e-07
6.81497e-07
6.84976e-07
6.87926e-07
6.83995e-07
6.86403e-07
6.89354e-07
6.88814e-07
6.99168e-07
7.06662e-07
7.08962e-07
7.10647e-07
7.02141e-07
7.03258e-07
7.05547e-07
7.10054e-07
7.16104e-07
7.20357e-07
7.2264e-07
7.24879e-07
7.19156e-07
7.20817e-07
7.22996e-07
7.30574e-07
7.27124e-07
7.30934e-07
7.36667e-07
7.37193e-07
7.39224e-07
7.40378e-07
7.42837e-07
7.47638e-07
7.46771e-07
7.48772e-07
7.53653e-07
7.52289e-07
7.54185e-07
7.56104e-07
7.57969e-07
7.6152e-07
7.6541e-07
7.67244e-07
7.65558e-07
7.69098e-07
7.70933e-07
7.72757e-07
7.74539e-07
7.74668e-07
7.76591e-07
7.78807e-07
7.80578e-07
7.8126e-07
7.82952e-07
7.84661e-07
7.87653e-07
7.89849e-07
7.8964e-07
7.91253e-07
7.92869e-07
7.94504e-07
7.96103e-07
7.98258e-07
8.0218e-07
8.03729e-07
8.03541e-07
8.06057e-07
8.08711e-07
8.10272e-07
8.11735e-07
8.12843e-07
8.14318e-07
8.11469e-07
8.12683e-07
8.14724e-07
8.15738e-07
8.17112e-07
8.21203e-07
8.22592e-07
8.23968e-07
8.25344e-07
8.26655e-07
8.25724e-07
8.27016e-07
8.2829e-07
8.30027e-07
8.31848e-07
8.32303e-07
8.32406e-07
8.33674e-07
8.37787e-07
8.38995e-07
8.40178e-07
8.41366e-07
8.42546e-07
8.42744e-07
8.44935e-07
8.4474e-07
8.45868e-07
8.48009e-07
8.52273e-07
8.50432e-07
8.4868e-07
8.49833e-07
8.50937e-07
8.51963e-07
8.53229e-07
8.58635e-07
8.5728e-07
8.56812e-07
8.57805e-07
8.58831e-07
8.59828e-07
8.60798e-07
8.6614e-07
8.67105e-07
8.63781e-07
8.65968e-07
8.67998e-07
8.68885e-07
8.71608e-07
8.72502e-07
8.70158e-07
8.71023e-07
8.71892e-07
8.72745e-07
8.73584e-07
8.74551e-07
8.78176e-07
8.77652e-07
8.80016e-07
8.82568e-07
8.83365e-07
8.84111e-07
8.81885e-07
8.80519e-07
8.81289e-07
8.83386e-07
8.85077e-07
8.87503e-07
8.88219e-07
8.88943e-07
8.85286e-07
8.85254e-07
8.85945e-07
8.8659e-07
8.88565e-07
8.89221e-07
8.88281e-07
8.89672e-07
8.88302e-07
8.88917e-07
8.92339e-07
8.91728e-07
8.92316e-07
8.94614e-07
8.98167e-07
8.9874e-07
8.93457e-07
8.94028e-07
8.94607e-07
8.97574e-07
8.96918e-07
8.97465e-07
8.98348e-07
8.98722e-07
8.99244e-07
8.99769e-07
9.02128e-07
9.04704e-07
9.05213e-07
9.05707e-07
9.03102e-07
9.02871e-07
9.03348e-07
9.07085e-07
9.07604e-07
9.08041e-07
9.08485e-07
9.08924e-07
9.09358e-07
9.06812e-07
9.07204e-07
9.0762e-07
9.0805e-07
9.07962e-07
9.11487e-07
9.13026e-07
9.13422e-07
9.1381e-07
9.12462e-07
9.10816e-07
9.10057e-07
9.10419e-07
9.10772e-07
9.11132e-07
9.11478e-07
9.14804e-07
9.12968e-07
9.13303e-07
9.13623e-07
9.14408e-07
9.19298e-07
9.19626e-07
9.19938e-07
9.15884e-07
9.17098e-07
9.17392e-07
9.17679e-07
9.17961e-07
9.18246e-07
9.16365e-07
9.16644e-07
9.16949e-07
9.18339e-07
9.18124e-07
9.18396e-07
9.18662e-07
9.19608e-07
9.21406e-07
9.23626e-07
9.24552e-07
9.26072e-07
9.26305e-07
9.21121e-07
9.23131e-07
9.24246e-07
9.2435e-07
9.24572e-07
9.24794e-07
9.25009e-07
9.22764e-07
9.22971e-07
9.23171e-07
9.27553e-07
9.27759e-07
9.27953e-07
9.22755e-07
9.22951e-07
9.23142e-07
9.27359e-07
9.29559e-07
9.29737e-07
9.29905e-07
9.25231e-07
9.2511e-07
9.29292e-07
9.29464e-07
9.29623e-07
9.27383e-07
9.2837e-07
9.28525e-07
9.28681e-07
9.28828e-07
9.2898e-07
9.29119e-07
9.2926e-07
9.29063e-07
9.26171e-07
9.26306e-07
9.2672e-07
9.29395e-07
9.32659e-07
9.32785e-07
9.32913e-07
9.26479e-07
9.26604e-07
9.26721e-07
9.26324e-07
9.26439e-07
9.29482e-07
9.32239e-07
9.32348e-07
9.32454e-07
9.32559e-07
9.32661e-07
9.31705e-07
9.31805e-07
9.319e-07
9.29461e-07
9.30576e-07
9.29726e-07
9.323e-07
9.33442e-07
9.33528e-07
9.33616e-07
9.32772e-07
9.29148e-07
9.29229e-07
9.29308e-07
9.30292e-07
9.31775e-07
9.31022e-07
9.31099e-07
9.32337e-07
9.31481e-07
9.31759e-07
9.33561e-07
9.33627e-07
9.29245e-07
9.30946e-07
9.36516e-07
9.33946e-07
9.34007e-07
9.34068e-07
9.3297e-07
9.30439e-07
9.33289e-07
9.36003e-07
9.33805e-07
9.35763e-07
9.3981e-07
9.39864e-07
9.33457e-07
9.26794e-07
9.27515e-07
9.33163e-07
9.32841e-07
9.35096e-07
9.35135e-07
9.35178e-07
9.31818e-07
9.3111e-07
9.33697e-07
9.33763e-07
9.31602e-07
9.31527e-07
9.31561e-07
9.31596e-07
9.31626e-07
9.31877e-07
9.33437e-07
9.33467e-07
9.31937e-07
9.31967e-07
9.34594e-07
9.3462e-07
9.34645e-07
9.34672e-07
9.34693e-07
9.34715e-07
9.34736e-07
9.33287e-07
9.32741e-07
9.32563e-07
9.32583e-07
9.32538e-07
9.32557e-07
9.32571e-07
9.32589e-07
9.32595e-07
9.35062e-07
9.36251e-07
9.36257e-07
9.34934e-07
9.3653e-07
9.36541e-07
9.35627e-07
9.34442e-07
9.34448e-07
9.34594e-07
9.346e-07
9.35994e-07
9.35999e-07
9.32847e-07
9.33109e-07
9.44134e-07
9.49668e-07
9.53483e-07
9.53491e-07
5.99265e-07
5.99971e-07
5.95919e-07
5.98813e-07
6.03886e-07
6.13773e-07
6.11149e-07
6.14621e-07
6.19008e-07
6.20409e-07
6.23118e-07
6.25774e-07
6.28436e-07
6.29259e-07
6.31929e-07
6.35071e-07
6.40824e-07
6.47331e-07
6.46985e-07
6.46957e-07
6.49514e-07
6.52035e-07
6.55839e-07
6.56728e-07
6.5702e-07
6.59397e-07
6.61994e-07
6.64258e-07
6.66765e-07
6.72876e-07
6.74793e-07
6.76939e-07
6.81841e-07
6.85578e-07
6.87962e-07
6.84263e-07
6.8648e-07
6.8933e-07
6.91869e-07
6.95584e-07
6.9761e-07
7.0009e-07
7.02863e-07
7.05006e-07
7.10942e-07
7.13237e-07
7.12714e-07
7.13152e-07
7.15328e-07
7.17608e-07
7.23183e-07
7.2535e-07
7.24072e-07
7.22934e-07
7.25042e-07
7.27116e-07
7.29202e-07
7.36218e-07
7.40736e-07
7.42794e-07
7.42783e-07
7.42797e-07
7.48601e-07
7.5058e-07
7.51666e-07
7.53668e-07
7.55654e-07
7.57564e-07
7.5884e-07
7.57989e-07
7.59853e-07
7.63545e-07
7.67238e-07
7.69052e-07
7.67649e-07
7.69489e-07
7.71305e-07
7.73094e-07
7.74911e-07
7.77144e-07
7.78033e-07
7.80852e-07
7.84943e-07
7.86636e-07
7.84651e-07
7.86884e-07
7.877e-07
7.92341e-07
7.95372e-07
7.93937e-07
7.95932e-07
7.98244e-07
7.98998e-07
8.01431e-07
8.03709e-07
8.03517e-07
8.05024e-07
8.06538e-07
8.08048e-07
8.09543e-07
8.09383e-07
8.10851e-07
8.12285e-07
8.12677e-07
8.14114e-07
8.19609e-07
8.21008e-07
8.21749e-07
8.20271e-07
8.21659e-07
8.23014e-07
8.24336e-07
8.27485e-07
8.27225e-07
8.28912e-07
8.30192e-07
8.3145e-07
8.33555e-07
8.37117e-07
8.38942e-07
8.39802e-07
8.37997e-07
8.39198e-07
8.40392e-07
8.4225e-07
8.43451e-07
8.43502e-07
8.44646e-07
8.45952e-07
8.48117e-07
8.48623e-07
8.49735e-07
8.50865e-07
8.51976e-07
8.51565e-07
8.52602e-07
8.53339e-07
8.55477e-07
8.60417e-07
8.60081e-07
8.58373e-07
8.63515e-07
8.64525e-07
8.61535e-07
8.65425e-07
8.6711e-07
8.63912e-07
8.64831e-07
8.65777e-07
8.66666e-07
8.678e-07
8.72449e-07
8.7109e-07
8.74291e-07
8.75183e-07
8.76028e-07
8.72368e-07
8.77497e-07
8.79793e-07
8.80608e-07
8.79081e-07
8.76157e-07
8.76958e-07
8.77735e-07
8.79573e-07
8.83122e-07
8.84044e-07
8.84786e-07
8.82771e-07
8.875e-07
8.88236e-07
8.88943e-07
8.89654e-07
8.90338e-07
8.88257e-07
8.86287e-07
8.86966e-07
8.87636e-07
8.8828e-07
8.89597e-07
8.94083e-07
8.92925e-07
8.91064e-07
8.91661e-07
8.9232e-07
8.92167e-07
8.9275e-07
8.93323e-07
8.93891e-07
9.00872e-07
9.01445e-07
8.99578e-07
8.97701e-07
8.98441e-07
8.9834e-07
9.02201e-07
9.02732e-07
9.00271e-07
9.0182e-07
9.04711e-07
9.04366e-07
9.04857e-07
9.05811e-07
9.06291e-07
9.06761e-07
9.06576e-07
9.07026e-07
9.06792e-07
9.07243e-07
9.0855e-07
9.06628e-07
9.09056e-07
9.09555e-07
9.09965e-07
9.07562e-07
9.07964e-07
9.10488e-07
9.13031e-07
9.12535e-07
9.09666e-07
9.09828e-07
9.10204e-07
9.10312e-07
9.1042e-07
9.1078e-07
9.11132e-07
9.11481e-07
9.12246e-07
9.15007e-07
9.15342e-07
9.14437e-07
9.14414e-07
9.16406e-07
9.19586e-07
9.1993e-07
9.20242e-07
9.20538e-07
9.16814e-07
9.1552e-07
9.15807e-07
9.16091e-07
9.16368e-07
9.16645e-07
9.20269e-07
9.22773e-07
9.2304e-07
9.22754e-07
9.23022e-07
9.23275e-07
9.20953e-07
9.22073e-07
9.25713e-07
9.26066e-07
9.25176e-07
9.23251e-07
9.24023e-07
9.24246e-07
9.22181e-07
9.22806e-07
9.22896e-07
9.21571e-07
9.24136e-07
9.24344e-07
9.22744e-07
9.22947e-07
9.23149e-07
9.27854e-07
9.28082e-07
9.28274e-07
9.26392e-07
9.23329e-07
9.23503e-07
9.23681e-07
9.23845e-07
9.24021e-07
9.24183e-07
9.25095e-07
9.29463e-07
9.27939e-07
9.28097e-07
9.28372e-07
9.2853e-07
9.28679e-07
9.28161e-07
9.25819e-07
9.25642e-07
9.25783e-07
9.25921e-07
9.26057e-07
9.26056e-07
9.2619e-07
9.29362e-07
9.29115e-07
9.27417e-07
9.27537e-07
9.27669e-07
9.27783e-07
9.2634e-07
9.26325e-07
9.29757e-07
9.31909e-07
9.32241e-07
9.27483e-07
9.25907e-07
9.31609e-07
9.33718e-07
9.33818e-07
9.33916e-07
9.31569e-07
9.32449e-07
9.3299e-07
9.31414e-07
9.3253e-07
9.3344e-07
9.33529e-07
9.28985e-07
9.29066e-07
9.29149e-07
9.29228e-07
9.29309e-07
9.29385e-07
9.29465e-07
9.31023e-07
9.3509e-07
9.35161e-07
9.35233e-07
9.35303e-07
9.3356e-07
9.31113e-07
9.29211e-07
9.29274e-07
9.36522e-07
9.36978e-07
9.37039e-07
9.37098e-07
9.30724e-07
9.28323e-07
9.29141e-07
9.29356e-07
9.31188e-07
9.34598e-07
9.30892e-07
9.30299e-07
9.33626e-07
9.33674e-07
9.34531e-07
9.35009e-07
9.35055e-07
9.35095e-07
9.30989e-07
9.3103e-07
9.3107e-07
9.31109e-07
9.33725e-07
9.33763e-07
9.32299e-07
9.36789e-07
9.36825e-07
9.36859e-07
9.34942e-07
9.31846e-07
9.31877e-07
9.31907e-07
9.31937e-07
9.3648e-07
9.36465e-07
9.29049e-07
9.29455e-07
9.31247e-07
9.29867e-07
9.30865e-07
9.33221e-07
9.35836e-07
9.37622e-07
9.37636e-07
9.3766e-07
9.37673e-07
9.37397e-07
9.33902e-07
9.36397e-07
9.36408e-07
9.33105e-07
9.33114e-07
9.34042e-07
9.34935e-07
9.33348e-07
9.33354e-07
9.33368e-07
9.34634e-07
9.367e-07
9.33935e-07
9.32832e-07
9.32835e-07
9.32843e-07
9.32842e-07
9.38214e-07
9.44783e-07
9.53483e-07
9.5349e-07
9.53491e-07
5.97687e-07
6.00263e-07
6.02064e-07
6.04249e-07
6.06951e-07
6.08186e-07
6.10814e-07
6.16038e-07
6.20381e-07
6.23015e-07
6.25655e-07
6.28182e-07
6.30775e-07
6.31969e-07
6.32851e-07
6.40378e-07
6.44115e-07
6.47319e-07
6.46607e-07
6.48814e-07
6.49507e-07
6.52652e-07
6.56209e-07
6.56693e-07
6.59587e-07
6.62036e-07
6.62324e-07
6.67318e-07
6.75285e-07
6.7614e-07
6.74239e-07
6.76553e-07
6.77976e-07
6.79968e-07
6.8239e-07
6.84723e-07
6.89171e-07
6.91426e-07
6.91723e-07
6.94063e-07
6.96436e-07
7.02732e-07
7.05303e-07
7.06239e-07
7.09174e-07
7.13183e-07
7.15381e-07
7.17555e-07
7.18779e-07
7.17599e-07
7.1982e-07
7.24124e-07
7.2709e-07
7.28296e-07
7.33164e-07
7.35248e-07
7.37022e-07
7.36996e-07
7.37555e-07
7.39603e-07
7.41616e-07
7.45215e-07
7.49974e-07
7.49396e-07
7.49205e-07
7.5045e-07
7.52257e-07
7.51017e-07
7.52891e-07
7.62141e-07
7.63996e-07
7.64366e-07
7.63466e-07
7.65296e-07
7.68291e-07
7.74653e-07
7.76446e-07
7.78231e-07
7.80057e-07
7.77146e-07
7.78031e-07
7.79809e-07
7.84462e-07
7.83278e-07
7.84278e-07
7.86008e-07
7.87692e-07
7.89772e-07
7.9536e-07
7.97846e-07
7.99464e-07
7.98232e-07
7.99831e-07
8.01419e-07
8.0228e-07
8.073e-07
8.11906e-07
8.06833e-07
8.08009e-07
8.0953e-07
8.14883e-07
8.10728e-07
8.12163e-07
8.1357e-07
8.14073e-07
8.18371e-07
8.21015e-07
8.21422e-07
8.20408e-07
8.22453e-07
8.23326e-07
8.24901e-07
8.29987e-07
8.31285e-07
8.28576e-07
8.29841e-07
8.31095e-07
8.35058e-07
8.37696e-07
8.38946e-07
8.39789e-07
8.41196e-07
8.45059e-07
8.4624e-07
8.42241e-07
8.45155e-07
8.46451e-07
8.47594e-07
8.46554e-07
8.48112e-07
8.50864e-07
8.50619e-07
8.5185e-07
8.48211e-07
8.49284e-07
8.50314e-07
8.53975e-07
8.59512e-07
8.60515e-07
8.61515e-07
8.62527e-07
8.63524e-07
8.59812e-07
8.60804e-07
8.6178e-07
8.62764e-07
8.6508e-07
8.65994e-07
8.65758e-07
8.69745e-07
8.72062e-07
8.72944e-07
8.73818e-07
8.71129e-07
8.70354e-07
8.712e-07
8.72048e-07
8.72891e-07
8.73702e-07
8.74504e-07
8.77572e-07
8.77975e-07
8.77432e-07
8.80811e-07
8.84124e-07
8.81364e-07
8.80132e-07
8.78273e-07
8.79001e-07
8.84094e-07
8.88238e-07
8.88942e-07
8.8617e-07
8.86864e-07
8.89002e-07
8.89691e-07
8.90366e-07
8.91025e-07
8.88651e-07
8.90433e-07
8.96522e-07
8.97139e-07
8.91176e-07
8.90977e-07
8.91577e-07
8.92171e-07
8.94182e-07
8.95803e-07
8.99683e-07
9.01129e-07
8.96405e-07
8.96628e-07
8.97182e-07
9.02439e-07
9.02966e-07
9.03491e-07
9.01414e-07
9.01949e-07
9.04202e-07
9.04716e-07
9.06896e-07
9.00227e-07
9.00708e-07
9.0186e-07
9.05609e-07
9.08178e-07
9.08632e-07
9.09079e-07
9.09533e-07
9.07693e-07
9.06178e-07
9.06615e-07
9.07046e-07
9.07451e-07
9.09221e-07
9.09621e-07
9.09242e-07
9.10248e-07
9.11457e-07
9.09859e-07
9.13805e-07
9.15018e-07
9.15391e-07
9.15758e-07
9.13936e-07
9.13145e-07
9.13491e-07
9.13017e-07
9.13611e-07
9.13904e-07
9.16343e-07
9.21544e-07
9.17233e-07
9.13842e-07
9.1146e-07
9.1176e-07
9.13199e-07
9.21283e-07
9.2157e-07
9.21856e-07
9.22141e-07
9.18176e-07
9.16445e-07
9.16722e-07
9.1656e-07
9.16802e-07
9.17073e-07
9.2084e-07
9.21544e-07
9.20955e-07
9.20995e-07
9.21242e-07
9.26062e-07
9.22109e-07
9.22342e-07
9.21733e-07
9.21957e-07
9.22183e-07
9.22558e-07
9.23892e-07
9.2157e-07
9.21648e-07
9.21856e-07
9.24628e-07
9.26245e-07
9.25334e-07
9.22291e-07
9.2031e-07
9.20496e-07
9.26217e-07
9.264e-07
9.26578e-07
9.26746e-07
9.24764e-07
9.24017e-07
9.24188e-07
9.24355e-07
9.24566e-07
9.28516e-07
9.28674e-07
9.27558e-07
9.27081e-07
9.27233e-07
9.29505e-07
9.30958e-07
9.31101e-07
9.26533e-07
9.2592e-07
9.26058e-07
9.26264e-07
9.26203e-07
9.25724e-07
9.25851e-07
9.29217e-07
9.33693e-07
9.3382e-07
9.27174e-07
9.2634e-07
9.3218e-07
9.35628e-07
9.30958e-07
9.24423e-07
9.24529e-07
9.24634e-07
9.27805e-07
9.27909e-07
9.30027e-07
9.32921e-07
9.31569e-07
9.32895e-07
9.32989e-07
9.29353e-07
9.33348e-07
9.33447e-07
9.33527e-07
9.33619e-07
9.33695e-07
9.29872e-07
9.29648e-07
9.33864e-07
9.31912e-07
9.32452e-07
9.31906e-07
9.32902e-07
9.31606e-07
9.30791e-07
9.31363e-07
9.3093e-07
9.31e-07
9.32603e-07
9.29273e-07
9.29336e-07
9.28916e-07
9.2747e-07
9.27533e-07
9.27585e-07
9.27646e-07
9.30665e-07
9.34507e-07
9.34559e-07
9.34611e-07
9.35978e-07
9.29659e-07
9.29709e-07
9.29758e-07
9.33152e-07
9.34951e-07
9.35052e-07
9.35096e-07
9.34982e-07
9.35023e-07
9.33479e-07
9.30965e-07
9.31003e-07
9.31042e-07
9.31075e-07
9.31766e-07
9.318e-07
9.35336e-07
9.36689e-07
9.3672e-07
9.35235e-07
9.36953e-07
9.33442e-07
9.36692e-07
9.4077e-07
9.29046e-07
9.27504e-07
9.2753e-07
9.27549e-07
9.34447e-07
9.35113e-07
9.35352e-07
9.37616e-07
9.37641e-07
9.37655e-07
9.37678e-07
9.34173e-07
9.33857e-07
9.36393e-07
9.36412e-07
9.35384e-07
9.33117e-07
9.33121e-07
9.33157e-07
9.34947e-07
9.34985e-07
9.3668e-07
9.36695e-07
9.36697e-07
9.36709e-07
9.36711e-07
9.33271e-07
9.32839e-07
9.32847e-07
9.35851e-07
9.37055e-07
9.37421e-07
9.53149e-07
9.53498e-07
5.965e-07
5.93814e-07
6.00679e-07
6.03777e-07
6.06464e-07
6.1062e-07
6.14435e-07
6.17012e-07
6.21431e-07
6.24052e-07
6.25137e-07
6.27815e-07
6.29853e-07
6.35227e-07
6.37915e-07
6.36747e-07
6.39317e-07
6.41931e-07
6.44522e-07
6.48942e-07
6.51533e-07
6.53901e-07
6.56206e-07
6.58637e-07
6.61124e-07
6.61906e-07
6.62292e-07
6.71848e-07
6.75287e-07
6.77728e-07
6.80515e-07
6.82901e-07
6.78887e-07
6.87711e-07
6.83037e-07
6.83212e-07
6.85457e-07
6.88942e-07
6.93357e-07
6.95733e-07
6.96887e-07
6.9946e-07
7.05325e-07
7.06749e-07
7.05656e-07
7.07891e-07
7.11799e-07
7.1397e-07
7.1869e-07
7.20946e-07
7.20792e-07
7.2497e-07
7.27104e-07
7.28994e-07
7.27866e-07
7.29967e-07
7.34054e-07
7.36023e-07
7.38108e-07
7.40135e-07
7.41601e-07
7.44948e-07
7.49931e-07
7.5192e-07
7.53852e-07
7.55853e-07
7.57876e-07
7.51592e-07
7.52846e-07
7.5472e-07
7.57216e-07
7.59508e-07
7.63006e-07
7.68096e-07
7.67753e-07
7.7466e-07
7.76482e-07
7.76123e-07
7.8002e-07
7.81816e-07
7.83582e-07
7.77676e-07
7.79396e-07
7.81082e-07
7.84481e-07
7.87585e-07
7.89279e-07
7.90461e-07
7.93142e-07
7.95536e-07
7.99346e-07
7.98574e-07
7.97846e-07
7.99602e-07
8.01556e-07
8.04031e-07
8.12106e-07
8.16189e-07
8.17666e-07
8.1292e-07
8.20693e-07
8.11528e-07
8.09195e-07
8.106e-07
8.12015e-07
8.13424e-07
8.18289e-07
8.21778e-07
8.23149e-07
8.2538e-07
8.26738e-07
8.25125e-07
8.296e-07
8.31533e-07
8.32854e-07
8.34097e-07
8.31079e-07
8.35997e-07
8.37693e-07
8.36296e-07
8.3998e-07
8.41201e-07
8.40186e-07
8.41374e-07
8.44834e-07
8.46041e-07
8.4618e-07
8.44801e-07
8.4592e-07
8.48741e-07
8.55791e-07
8.56913e-07
8.58053e-07
8.59158e-07
8.49332e-07
8.50317e-07
8.52155e-07
8.52691e-07
8.56701e-07
8.61514e-07
8.62529e-07
8.63512e-07
8.6451e-07
8.65488e-07
8.63942e-07
8.65905e-07
8.66855e-07
8.65414e-07
8.66319e-07
8.70011e-07
8.69276e-07
8.6967e-07
8.73206e-07
8.74752e-07
8.7561e-07
8.76468e-07
8.77312e-07
8.78141e-07
8.7509e-07
8.74492e-07
8.82791e-07
8.8706e-07
8.8787e-07
8.88648e-07
8.89402e-07
8.9014e-07
8.90923e-07
8.79124e-07
8.79022e-07
8.79744e-07
8.81794e-07
8.88399e-07
8.89106e-07
8.86854e-07
8.87109e-07
8.87782e-07
8.88442e-07
8.90721e-07
8.91367e-07
8.90793e-07
8.94281e-07
8.97135e-07
8.9774e-07
8.98333e-07
8.95333e-07
8.92169e-07
8.92767e-07
8.96929e-07
9.01811e-07
9.0238e-07
9.02943e-07
8.99339e-07
9.01413e-07
9.02503e-07
9.01274e-07
9.00874e-07
9.01408e-07
9.01944e-07
9.03593e-07
9.07808e-07
9.11819e-07
9.00754e-07
9.00712e-07
9.01187e-07
9.06658e-07
9.08174e-07
9.07236e-07
9.05128e-07
9.05574e-07
9.06008e-07
9.08268e-07
9.09616e-07
9.10036e-07
9.10449e-07
9.10851e-07
9.0847e-07
9.08876e-07
9.09272e-07
9.09659e-07
9.1004e-07
9.12056e-07
9.11444e-07
9.13399e-07
9.15756e-07
9.15533e-07
9.12481e-07
9.12181e-07
9.12415e-07
9.12983e-07
9.13475e-07
9.15548e-07
9.24419e-07
9.18363e-07
9.21788e-07
9.11776e-07
9.11765e-07
9.12058e-07
9.13589e-07
9.15021e-07
9.155e-07
9.20756e-07
9.21034e-07
9.21184e-07
9.19514e-07
9.18997e-07
9.2139e-07
9.24676e-07
9.24941e-07
9.21698e-07
9.21606e-07
9.21853e-07
9.20422e-07
9.21679e-07
9.23211e-07
9.21995e-07
9.22224e-07
9.22335e-07
9.25912e-07
9.27603e-07
9.2782e-07
9.27424e-07
9.23529e-07
9.25054e-07
9.31372e-07
9.31576e-07
9.31775e-07
9.31978e-07
9.22859e-07
9.20271e-07
9.20447e-07
9.20633e-07
9.20824e-07
9.20995e-07
9.21167e-07
9.26136e-07
9.24189e-07
9.24715e-07
9.27678e-07
9.28517e-07
9.28673e-07
9.27931e-07
9.28085e-07
9.28237e-07
9.28383e-07
9.28529e-07
9.30949e-07
9.31684e-07
9.31823e-07
9.28382e-07
9.26346e-07
9.25592e-07
9.25722e-07
9.25855e-07
9.25981e-07
9.26957e-07
9.33821e-07
9.37615e-07
9.37734e-07
9.37848e-07
9.37963e-07
9.3808e-07
9.25111e-07
9.24532e-07
9.24635e-07
9.2593e-07
9.3048e-07
9.29499e-07
9.28944e-07
9.29044e-07
9.29139e-07
9.29235e-07
9.29323e-07
9.29424e-07
9.29507e-07
9.296e-07
9.29677e-07
9.32533e-07
9.32606e-07
9.31905e-07
9.3406e-07
9.34132e-07
9.34216e-07
9.34285e-07
9.34361e-07
9.30719e-07
9.30791e-07
9.30861e-07
9.3093e-07
9.40348e-07
9.40416e-07
9.40477e-07
9.40542e-07
9.40605e-07
9.40666e-07
9.28176e-07
9.2759e-07
9.2764e-07
9.27703e-07
9.2853e-07
9.29059e-07
9.30819e-07
9.35981e-07
9.36028e-07
9.36077e-07
9.36124e-07
9.32728e-07
9.32773e-07
9.32817e-07
9.3286e-07
9.32901e-07
9.3355e-07
9.33591e-07
9.31256e-07
9.31301e-07
9.31501e-07
9.31078e-07
9.32199e-07
9.34403e-07
9.36654e-07
9.36689e-07
9.3672e-07
9.3586e-07
9.38796e-07
9.45894e-07
9.45918e-07
9.45939e-07
9.45966e-07
9.27549e-07
9.27526e-07
9.27554e-07
9.27572e-07
9.33805e-07
9.37595e-07
9.37622e-07
9.37348e-07
9.33123e-07
9.33141e-07
9.33158e-07
9.33053e-07
9.33075e-07
9.33084e-07
9.33104e-07
9.33107e-07
9.33576e-07
9.34191e-07
9.31787e-07
9.31794e-07
9.31807e-07
9.36142e-07
9.36241e-07
9.35833e-07
9.36713e-07
9.36716e-07
9.36723e-07
9.3532e-07
9.32852e-07
9.3292e-07
9.39239e-07
9.53497e-07
9.53498e-07
5.99524e-07
5.9509e-07
6.01599e-07
6.07863e-07
6.10386e-07
6.10565e-07
6.14518e-07
6.17174e-07
6.16638e-07
6.19205e-07
6.22484e-07
6.27045e-07
6.27006e-07
6.29721e-07
6.32363e-07
6.38733e-07
6.41326e-07
6.42943e-07
6.45531e-07
6.48317e-07
6.48586e-07
6.57198e-07
6.60256e-07
6.6267e-07
6.59683e-07
6.64367e-07
6.66777e-07
6.69135e-07
6.69246e-07
6.71706e-07
6.80513e-07
6.82912e-07
6.85309e-07
6.87727e-07
6.81104e-07
6.83205e-07
6.85457e-07
6.87743e-07
6.90072e-07
6.92431e-07
6.94741e-07
6.97906e-07
7.03876e-07
7.03415e-07
7.05648e-07
7.0789e-07
7.1383e-07
7.16019e-07
7.16415e-07
7.19631e-07
7.23618e-07
7.25762e-07
7.25506e-07
7.27972e-07
7.30066e-07
7.29788e-07
7.31875e-07
7.34977e-07
7.36672e-07
7.38702e-07
7.42315e-07
7.43296e-07
7.47731e-07
7.51915e-07
7.53859e-07
7.55872e-07
7.57907e-07
7.54026e-07
7.52848e-07
7.54721e-07
7.56557e-07
7.58382e-07
7.66744e-07
7.71236e-07
7.67698e-07
7.69562e-07
7.71403e-07
7.7577e-07
7.79653e-07
7.77874e-07
7.79564e-07
7.81321e-07
7.83028e-07
7.83064e-07
7.8391e-07
7.8562e-07
7.87297e-07
7.88974e-07
7.96661e-07
7.98395e-07
7.99977e-07
7.96223e-07
7.97836e-07
8.04718e-07
8.07903e-07
8.09886e-07
8.11869e-07
8.12151e-07
8.17698e-07
8.19191e-07
8.20681e-07
8.07793e-07
8.09197e-07
8.10624e-07
8.16195e-07
8.18405e-07
8.19793e-07
8.19634e-07
8.21032e-07
8.22497e-07
8.27e-07
8.28296e-07
8.27561e-07
8.27302e-07
8.32474e-07
8.34091e-07
8.35332e-07
8.32232e-07
8.31925e-07
8.33783e-07
8.35005e-07
8.36232e-07
8.40942e-07
8.43673e-07
8.44902e-07
8.43864e-07
8.45016e-07
8.46166e-07
8.47121e-07
8.52326e-07
8.55802e-07
8.56944e-07
8.58065e-07
8.59152e-07
8.49269e-07
8.50323e-07
8.51361e-07
8.52362e-07
8.56196e-07
8.5835e-07
8.60237e-07
8.59452e-07
8.60366e-07
8.65488e-07
8.66457e-07
8.64306e-07
8.65253e-07
8.66187e-07
8.69117e-07
8.70011e-07
8.69418e-07
8.69672e-07
8.70562e-07
8.71439e-07
8.72304e-07
8.74732e-07
8.72551e-07
8.72713e-07
8.73713e-07
8.74695e-07
8.78014e-07
8.80305e-07
8.85685e-07
8.88643e-07
8.89412e-07
8.90173e-07
8.90942e-07
8.81766e-07
8.79029e-07
8.79739e-07
8.82353e-07
8.84203e-07
8.87679e-07
8.89766e-07
8.90452e-07
8.8818e-07
8.86834e-07
8.88872e-07
8.8896e-07
8.89611e-07
8.9566e-07
8.97129e-07
8.96062e-07
8.94992e-07
8.95342e-07
8.96331e-07
8.96923e-07
8.97506e-07
8.97023e-07
8.95188e-07
9.00842e-07
9.01412e-07
9.01956e-07
9.02499e-07
9.03022e-07
9.02e-07
9.07427e-07
9.10284e-07
9.1081e-07
9.11328e-07
9.11828e-07
9.01096e-07
9.00707e-07
9.04437e-07
9.06654e-07
9.06168e-07
9.07437e-07
9.07917e-07
9.08363e-07
9.06875e-07
9.07312e-07
9.0852e-07
9.09133e-07
9.09677e-07
9.10847e-07
9.12526e-07
9.14568e-07
9.14975e-07
9.15365e-07
9.14383e-07
9.12387e-07
9.10134e-07
9.10492e-07
9.10861e-07
9.13768e-07
9.12859e-07
9.11809e-07
9.12071e-07
9.12409e-07
9.17161e-07
9.24072e-07
9.24485e-07
9.23332e-07
9.27047e-07
9.16564e-07
9.11765e-07
9.12174e-07
9.16184e-07
9.20158e-07
9.21083e-07
9.21368e-07
9.1694e-07
9.16788e-07
9.17064e-07
9.18138e-07
9.19449e-07
9.23122e-07
9.24942e-07
9.24724e-07
9.19089e-07
9.17916e-07
9.18158e-07
9.22328e-07
9.23211e-07
9.23442e-07
9.23535e-07
9.23821e-07
9.24167e-07
9.22911e-07
9.22895e-07
9.23114e-07
9.23322e-07
9.24169e-07
9.3042e-07
9.31576e-07
9.31781e-07
9.31988e-07
9.21816e-07
9.20266e-07
9.20451e-07
9.20625e-07
9.20802e-07
9.23981e-07
9.29241e-07
9.29416e-07
9.28325e-07
9.28425e-07
9.2513e-07
9.23439e-07
9.23596e-07
9.2375e-07
9.23939e-07
9.2664e-07
9.30893e-07
9.31041e-07
9.30788e-07
9.26976e-07
9.26944e-07
9.31327e-07
9.32152e-07
9.32646e-07
9.33609e-07
9.33849e-07
9.33977e-07
9.32716e-07
9.33449e-07
9.34249e-07
9.37732e-07
9.37847e-07
9.35191e-07
9.3531e-07
9.24455e-07
9.24532e-07
9.24634e-07
9.27676e-07
9.30478e-07
9.30576e-07
9.29075e-07
9.33593e-07
9.33684e-07
9.33786e-07
9.33872e-07
9.33974e-07
9.34056e-07
9.3336e-07
9.29788e-07
9.2936e-07
9.29443e-07
9.31021e-07
9.3258e-07
9.34133e-07
9.31852e-07
9.31447e-07
9.31274e-07
9.34342e-07
9.34416e-07
9.34486e-07
9.30223e-07
9.30326e-07
9.35761e-07
9.36929e-07
9.38953e-07
9.40604e-07
9.40668e-07
9.28043e-07
9.27588e-07
9.27648e-07
9.27699e-07
9.27922e-07
9.33895e-07
9.36129e-07
9.3618e-07
9.32438e-07
9.32489e-07
9.32537e-07
9.33375e-07
9.32772e-07
9.32815e-07
9.33129e-07
9.3526e-07
9.33859e-07
9.3349e-07
9.3353e-07
9.35234e-07
9.34879e-07
9.34915e-07
9.32355e-07
9.34716e-07
9.36653e-07
9.34793e-07
9.32146e-07
9.34158e-07
9.42879e-07
9.45892e-07
9.45916e-07
9.45945e-07
9.45966e-07
9.27822e-07
9.2753e-07
9.27548e-07
9.27576e-07
9.27588e-07
9.27619e-07
9.27632e-07
9.34882e-07
9.3715e-07
9.37169e-07
9.37186e-07
9.33059e-07
9.3307e-07
9.35103e-07
9.36304e-07
9.36316e-07
9.34179e-07
9.34191e-07
9.34202e-07
9.31797e-07
9.31804e-07
9.31816e-07
9.31821e-07
9.31832e-07
9.31834e-07
9.31844e-07
9.33013e-07
9.32848e-07
9.32853e-07
9.36603e-07
9.53498e-07
9.53497e-07
9.53504e-07
5.95191e-07
6.02257e-07
6.06441e-07
6.08235e-07
6.07745e-07
6.10533e-07
6.14355e-07
6.14368e-07
6.16674e-07
6.19471e-07
6.23723e-07
6.26289e-07
6.32795e-07
6.35512e-07
6.35015e-07
6.3687e-07
6.39131e-07
6.41881e-07
6.43141e-07
6.45023e-07
6.47678e-07
6.53649e-07
6.54166e-07
6.55921e-07
6.58377e-07
6.61692e-07
6.66629e-07
6.67971e-07
6.70397e-07
6.71719e-07
6.80305e-07
6.82962e-07
6.8534e-07
6.87724e-07
6.80846e-07
6.83149e-07
6.85471e-07
6.91517e-07
6.93835e-07
6.92393e-07
6.94712e-07
6.97047e-07
7.03438e-07
7.05265e-07
7.0898e-07
7.11238e-07
7.125e-07
7.13956e-07
7.16434e-07
7.18654e-07
7.20909e-07
7.2531e-07
7.25494e-07
7.2765e-07
7.29758e-07
7.29785e-07
7.31859e-07
7.36935e-07
7.39417e-07
7.41457e-07
7.42788e-07
7.43267e-07
7.48829e-07