/*--------------------------------*- C++ -*----------------------------------*\
  =========                 |
  \\      /  F ield         | OpenFOAM: The Open Source CFD Toolbox
   \\    /   O peration     | Website:  https://openfoam.org
    \\  /    A nd           | Version:  7
     \\/     M anipulation  |
\*---------------------------------------------------------------------------*/
FoamFile
{
    version     2.0;
    format      ascii;
    class       volScalarField;
    location    "1000";
    object      p;
}
// * * * * * * * * * * * * * * * * * * * * * * * * * * * * * * * * * * * * * //

dimensions      [1 -1 -2 0 0 0 0];

internalField   nonuniform List<scalar> 
160000
(
129934
129933
129931
129927
129924
129919
129913
129906
129896
129888
129880
129870
129859
129850
129838
129824
129809
129794
129781
129767
129750
129729
129707
129685
129663
129640
129621
129601
129579
129554
129522
129492
129471
129449
129418
129387
129360
129333
129298
129261
129232
129203
129174
129139
129102
129073
129040
128996
128957
128925
128889
128856
128821
128782
128747
128708
128673
128638
128582
128529
128498
128468
128422
128365
128302
128261
128223
128185
128142
128073
128030
127987
127937
127884
127829
127780
127731
127678
127628
127582
127538
127500
127459
127407
127358
127314
127263
127198
127133
127081
127027
126975
126936
126897
126846
126776
126708
126646
126583
126513
126448
126382
126322
126273
126214
126149
126084
126022
125969
125917
125865
125797
125733
125675
125601
125536
125471
125404
125353
125307
125254
125182
125110
125048
124992
124949
124907
124847
124778
124716
124648
124574
124521
124483
124439
124375
124311
124248
124164
124069
124006
123962
123906
123838
123789
123735
123669
123607
123541
123467
123389
123316
123233
123167
123099
123023
122954
122896
122839
122780
122720
122650
122576
122505
122430
122359
122306
122244
122168
122086
122016
121959
121890
121845
121804
121734
121659
121586
121533
121483
121409
121337
121272
121176
121083
121001
120918
120832
120741
120670
120610
120543
120472
120418
120370
120309
120234
120179
120127
120078
120034
119983
119927
119874
119822
119768
119697
119628
119569
119509
119451
119398
119338
119265
119205
119147
119071
119011
118963
118908
118859
118810
118745
118677
118609
118541
118473
118395
118317
118243
118135
118046
117979
117913
117837
117763
117680
117593
117503
117419
117343
117260
117188
117114
117030
116959
116892
116815
116749
116691
116635
116583
116523
116438
116343
116270
116196
116105
116022
115967
115921
115868
115804
115729
115655
115588
115519
115450
115388
115331
115258
115160
115074
114988
114909
114835
114768
114705
114623
114534
114456
114379
114306
114234
114155
114063
113987
113910
113849
113800
113744
113662
113562
113475
113395
113330
113268
113180
113088
113004
112900
112804
112730
112662
112590
112507
112425
112345
112251
112178
112111
112024
111941
111864
111771
111666
111578
111491
111406
111326
111231
111128
111040
110967
110884
110790
110719
110651
110560
110456
110356
110247
110131
110032
109937
109834
109747
109672
109608
109535
109403
109280
109181
109070
108968
108854
108686
108542
108410
108292
108185
108079
107992
107905
107789
107666
107559
107453
107324
107177
107033
106909
106799
106680
106569
106457
106329
106243
106158
106012
105823
105642
105488
105386
105276
105143
105017
104859
104686
104506
104350
104185
104033
103890
103735
103593
103464
103332
103184
103022
102851
102675
102519
102355
102133
101969
101821
101620
101485
101380
129933
129932
129930
129927
129923
129918
129912
129905
129896
129888
129880
129870
129858
129846
129835
129822
129807
129794
129782
129768
129751
129730
129709
129688
129664
129638
129618
129599
129578
129554
129526
129496
129471
129447
129416
129386
129360
129329
129290
129260
129234
129203
129172
129136
129102
129074
129040
128994
128954
128926
128895
128858
128817
128781
128747
128704
128667
128629
128584
128539
128498
128461
128418
128364
128308
128266
128222
128177
128129
128079
128035
127990
127939
127883
127828
127780
127732
127679
127630
127584
127541
127499
127453
127397
127351
127312
127264
127202
127138
127082
127032
126981
126937
126895
126839
126768
126702
126640
126580
126512
126447
126387
126319
126267
126217
126151
126085
126026
125972
125919
125866
125801
125733
125666
125596
125532
125467
125406
125352
125304
125254
125190
125119
125056
124998
124950
124901
124840
124776
124713
124641
124567
124522
124484
124435
124363
124306
124253
124163
124068
124003
123957
123905
123843
123793
123737
123670
123604
123533
123451
123388
123324
123232
123164
123101
123030
122963
122901
122837
122774
122712
122648
122581
122505
122425
122355
122302
122241
122169
122099
122028
121965
121892
121845
121796
121726
121663
121596
121534
121477
121404
121330
121254
121158
121076
121000
120918
120829
120738
120672
120615
120549
120476
120419
120366
120306
120241
120184
120133
120083
120035
119984
119924
119867
119820
119772
119704
119633
119574
119513
119453
119396
119338
119270
119203
119143
119078
119016
118963
118908
118853
118795
118732
118667
118603
118539
118472
118395
118317
118239
118134
118041
117978
117920
117848
117767
117680
117593
117501
117416
117337
117251
117185
117120
117034
116960
116897
116823
116751
116690
116631
116575
116520
116446
116350
116273
116194
116111
116038
115974
115916
115856
115792
115719
115656
115595
115524
115451
115391
115330
115245
115159
115079
114987
114905
114830
114770
114711
114622
114532
114452
114378
114306
114235
114161
114078
113997
113915
113846
113790
113727
113650
113565
113484
113402
113329
113262
113175
113086
113006
112913
112821
112742
112666
112590
112508
112424
112342
112253
112178
112105
112019
111940
111867
111783
111682
111579
111485
111400
111318
111226
111127
111039
110969
110890
110791
110715
110649
110563
110449
110354
110258
110135
110039
109949
109840
109752
109677
109602
109509
109388
109277
109180
109076
108963
108842
108706
108563
108422
108296
108184
108074
107983
107900
107792
107665
107558
107454
107327
107175
107029
106909
106802
106688
106581
106465
106344
106247
106140
105987
105827
105665
105514
105389
105268
105133
104989
104838
104672
104502
104355
104183
104048
103927
103754
103596
103462
103320
103170
103024
102855
102674
102523
102358
102147
101981
101821
101636
101493
101379
129931
129930
129927
129924
129921
129916
129910
129904
129896
129887
129879
129869
129856
129843
129833
129820
129807
129795
129782
129767
129750
129731
129711
129687
129664
129638
129615
129595
129576
129554
129524
129495
129469
129446
129418
129386
129358
129325
129286
129257
129232
129203
129170
129132
129103
129076
129036
128989
128952
128926
128898
128863
128819
128779
128741
128698
128660
128622
128585
128546
128497
128455
128416
128367
128309
128269
128229
128179
128128
128082
128032
127982
127935
127880
127827
127781
127730
127680
127635
127587
127540
127498
127451
127396
127345
127302
127254
127204
127148
127088
127038
126989
126937
126888
126829
126759
126695
126631
126570
126510
126447
126387
126324
126264
126212
126155
126093
126030
125970
125917
125861
125796
125734
125661
125593
125528
125464
125408
125358
125306
125250
125186
125122
125061
125004
124952
124897
124836
124772
124703
124633
124575
124528
124483
124430
124360
124298
124237
124157
124068
124000
123954
123906
123844
123793
123740
123671
123599
123523
123448
123385
123315
123226
123164
123108
123039
122969
122907
122839
122772
122706
122642
122577
122504
122424
122353
122295
122231
122163
122103
122040
121976
121912
121849
121781
121716
121661
121601
121533
121470
121401
121317
121228
121144
121069
120993
120912
120825
120742
120678
120620
120554
120486
120421
120361
120306
120251
120195
120143
120089
120036
119984
119928
119872
119818
119763
119695
119636
119581
119511
119450
119398
119340
119270
119203
119143
119081
119019
118957
118898
118843
118784
118721
118660
118597
118534
118465
118387
118317
118241
118141
118050
117979
117914
117846
117773
117685
117590
117491
117411
117335
117249
117184
117121
117041
116965
116902
116837
116760
116693
116629
116569
116509
116437
116357
116277
116197
116121
116050
115979
115910
115847
115782
115714
115651
115594
115531
115464
115396
115324
115243
115157
115071
114982
114904
114829
114769
114710
114620
114533
114452
114381
114314
114236
114157
114081
114003
113917
113844
113777
113713
113645
113563
113482
113403
113331
113259
113170
113093
113019
112933
112839
112751
112667
112588
112510
112427
112338
112252
112178
112101
112021
111949
111872
111782
111680
111581
111484
111395
111311
111223
111136
111053
110976
110888
110797
110717
110639
110549
110435
110345
110260
110149
110048
109958
109848
109757
109680
109594
109493
109382
109265
109167
109075
108960
108839
108723
108595
108442
108296
108182
108069
107980
107896
107778
107653
107551
107455
107342
107187
107032
106908
106808
106709
106610
106489
106356
106242
106102
105956
105821
105680
105537
105400
105268
105134
104982
104813
104644
104504
104365
104189
104056
103944
103789
103600
103447
103314
103176
103033
102862
102684
102526
102352
102163
101991
101808
101639
101505
101383
129929
129928
129926
129923
129919
129915
129909
129903
129895
129887
129878
129866
129852
129841
129831
129819
129806
129793
129779
129765
129748
129731
129711
129684
129664
129641
129613
129593
129574
129550
129522
129492
129465
129442
129417
129386
129354
129318
129281
129255
129231
129203
129171
129133
129101
129069
129030
128988
128954
128924
128896
128865
128822
128779
128742
128701
128658
128618
128579
128538
128492
128451
128413
128363
128308
128267
128228
128180
128130
128087
128038
127975
127922
127872
127829
127789
127738
127686
127638
127585
127541
127498
127446
127386
127337
127295
127249
127201
127147
127094
127043
126988
126937
126880
126812
126753
126697
126624
126557
126505
126452
126389
126325
126263
126207
126153
126097
126034
125972
125916
125850
125787
125729
125664
125596
125525
125458
125407
125362
125306
125245
125182
125121
125059
125007
124958
124900
124837
124768
124700
124633
124580
124532
124481
124425
124356
124289
124224
124150
124074
124008
123951
123895
123839
123787
123736
123674
123594
123512
123446
123384
123313
123237
123166
123103
123033
122970
122910
122834
122766
122704
122639
122576
122506
122424
122350
122289
122226
122162
122107
122048
121978
121914
121850
121782
121715
121657
121594
121522
121459
121394
121311
121212
121131
121058
120986
120909
120827
120751
120685
120621
120558
120498
120430
120362
120305
120254
120203
120152
120097
120041
119986
119931
119876
119816
119756
119690
119633
119577
119504
119450
119401
119341
119270
119203
119142
119082
119018
118951
118892
118835
118775
118715
118655
118590
118526
118458
118381
118309
118230
118148
118069
117985
117916
117845
117764
117679
117592
117498
117415
117336
117247
117180
117115
117042
116972
116911
116849
116771
116699
116630
116563
116494
116430
116361
116275
116198
116131
116061
115985
115909
115842
115777
115710
115645
115586
115530
115470
115395
115323
115255
115166
115065
114979
114902
114829
114768
114704
114625
114539
114454
114379
114306
114233
114159
114082
114004
113917
113848
113779
113700
113632
113558
113481
113407
113333
113255
113173
113100
113027
112947
112856
112767
112679
112588
112505
112421
112332
112251
112176
112095
112024
111957
111876
111784
111687
111587
111477
111393
111316
111231
111148
111064
110977
110882
110797
110713
110630
110546
110430
110333
110249
110154
110054
109962
109856
109762
109684
109591
109482
109375
109264
109157
109068
108968
108842
108720
108597
108457
108309
108194
108081
107977
107882
107763
107647
107541
107441
107336
107206
107057
106920
106810
106715
106630
106525
106382
106244
106088
105950
105825
105690
105552
105408
105259
105120
104973
104781
104619
104501
104374
104195
104066
103959
103813
103611
103442
103314
103180
103039
102888
102709
102532
102352
102161
101980
101803
101641
101500
101379
129927
129926
129924
129921
129917
129913
129907
129901
129894
129885
129874
129860
129849
129840
129831
129818
129804
129790
129775
129762
129748
129730
129709
129684
129661
129635
129609
129590
129568
129545
129522
129493
129464
129440
129416
129384
129346
129310
129281
129256
129229
129201
129171
129132
129096
129061
129021
128983
128954
128926
128896
128862
128821
128780
128739
128698
128657
128616
128576
128533
128488
128444
128402
128355
128302
128265
128229
128184
128133
128085
128032
127971
127923
127874
127829
127790
127744
127688
127634
127588
127545
127494
127439
127381
127332
127290
127244
127197
127148
127096
127039
126981
126929
126874
126806
126748
126692
126623
126555
126502
126453
126395
126324
126263
126204
126148
126093
126030
125972
125917
125849
125776
125717
125665
125607
125528
125450
125402
125359
125301
125240
125181
125119
125061
125013
124962
124898
124833
124764
124698
124633
124582
124535
124480
124422
124357
124284
124210
124143
124076
124011
123947
123890
123836
123781
123728
123665
123589
123514
123444
123374
123305
123237
123169
123102
123036
122970
122903
122824
122759
122701
122639
122576
122509
122426
122349
122293
122235
122166
122106
122042
121973
121912
121847
121780
121712
121645
121580
121510
121447
121384
121308
121218
121127
121044
120975
120906
120833
120759
120696
120633
120566
120506
120440
120362
120303
120255
120208
120158
120104
120047
119991
119934
119878
119816
119751
119686
119627
119567
119502
119452
119403
119337
119268
119198
119138
119084
119020
118955
118892
118828
118766
118708
118647
118580
118513
118445
118372
118299
118215
118144
118075
117992
117922
117850
117762
117674
117586
117493
117417
117343
117258
117181
117109
117040
116977
116922
116863
116780
116706
116635
116562
116492
116423
116354
116277
116197
116130
116063
115990
115916
115839
115771
115706
115638
115579
115530
115479
115407
115327
115248
115145
115050
114978
114906
114833
114771
114703
114627
114540
114456
114381
114305
114227
114151
114080
114009
113932
113852
113774
113696
113626
113554
113478
113403
113334
113262
113174
113095
113027
112958
112877
112785
112688
112593
112502
112406
112325
112250
112169
112088
112027
111966
111880
111781
111685
111590
111485
111396
111321
111240
111155
111068
110971
110877
110799
110714
110628
110547
110435
110323
110238
110161
110076
109969
109863
109767
109676
109570
109465
109368
109263
109159
109069
108966
108831
108705
108586
108456
108318
108206
108102
107988
107877
107755
107645
107539
107433
107327
107207
107068
106927
106808
106715
106637
106544
106412
106259
106098
105957
105826
105695
105566
105423
105240
105085
104952
104784
104616
104495
104374
104220
104081
103967
103816
103602
103435
103317
103192
103042
102891
102722
102552
102366
102136
101959
101813
101666
101510
101378
129925
129923
129921
129918
129914
129909
129905
129898
129890
129880
129870
129857
129847
129839
129828
129817
129803
129787
129771
129757
129743
129728
129708
129681
129656
129633
129609
129587
129561
129541
129521
129493
129464
129437
129411
129379
129342
129308
129280
129254
129226
129198
129166
129126
129091
129058
129019
128982
128950
128923
128895
128858
128817
128779
128738
128694
128654
128614
128570
128526
128480
128432
128392
128351
128302
128264
128230
128185
128131
128080
128026
127973
127929
127880
127830
127790
127747
127692
127637
127584
127537
127488
127432
127377
127330
127284
127236
127192
127148
127096
127032
126971
126924
126872
126805
126743
126683
126622
126562
126502
126447
126389
126325
126267
126206
126145
126082
126018
125968
125919
125853
125776
125712
125660
125602
125526
125448
125394
125349
125298
125236
125179
125117
125064
125018
124956
124893
124832
124766
124699
124636
124584
124533
124472
124413
124355
124290
124215
124142
124074
124008
123940
123884
123832
123774
123714
123653
123586
123514
123438
123369
123303
123239
123176
123107
123034
122956
122886
122816
122756
122703
122642
122572
122506
122436
122360
122299
122240
122169
122103
122035
121963
121905
121848
121780
121702
121633
121566
121499
121441
121380
121299
121209
121123
121045
120973
120908
120841
120763
120702
120642
120571
120512
120450
120369
120305
120259
120213
120164
120110
120051
119992
119934
119875
119811
119750
119688
119626
119566
119507
119452
119394
119330
119265
119192
119132
119082
119026
118960
118888
118820
118756
118695
118635
118570
118504
118431
118362
118292
118212
118130
118059
117995
117929
117851
117759
117671
117585
117501
117423
117344
117261
117184
117112
117045
116978
116927
116874
116786
116710
116639
116565
116493
116421
116350
116276
116198
116126
116053
115990
115924
115840
115766
115701
115638
115585
115535
115479
115405
115323
115235
115131
115040
114977
114913
114836
114771
114701
114628
114542
114457
114382
114306
114231
114153
114077
114003
113929
113854
113772
113697
113631
113561
113482
113405
113334
113260
113175
113092
113030
112965
112881
112792
112692
112592
112498
112395
112326
112257
112171
112092
112030
111968
111880
111780
111684
111589
111491
111402
111321
111242
111155
111057
110961
110877
110802
110720
110631
110545
110440
110321
110238
110164
110079
109975
109875
109775
109662
109549
109459
109370
109257
109150
109063
108962
108822
108685
108566
108457
108342
108215
108103
107999
107882
107759
107652
107539
107429
107319
107201
107068
106938
106812
106719
106644
106554
106426
106263
106105
105965
105831
105693
105563
105423
105238
105071
104944
104804
104631
104496
104372
104236
104087
103959
103815
103606
103445
103325
103194
103047
102898
102732
102555
102347
102102
101951
101822
101684
101525
101380
129920
129919
129917
129914
129910
129906
129901
129895
129887
129877
129866
129855
129846
129837
129826
129813
129798
129783
129767
129751
129739
129724
129701
129674
129650
129630
129608
129586
129561
129539
129518
129491
129462
129434
129404
129372
129341
129309
129278
129248
129220
129192
129160
129121
129089
129056
129018
128982
128949
128920
128890
128853
128813
128776
128735
128689
128648
128607
128561
128517
128472
128423
128388
128353
128309
128263
128227
128188
128135
128075
128018
127974
127932
127882
127834
127790
127742
127690
127635
127581
127532
127480
127422
127376
127333
127282
127232
127188
127143
127089
127024
126964
126916
126864
126799
126730
126672
126623
126570
126502
126446
126388
126329
126270
126202
126141
126077
126009
125964
125917
125845
125772
125708
125654
125593
125517
125445
125394
125346
125297
125242
125179
125113
125065
125019
124949
124884
124828
124770
124706
124638
124578
124522
124464
124411
124353
124292
124225
124141
124069
124003
123937
123877
123823
123769
123709
123646
123576
123502
123423
123366
123308
123240
123183
123112
123029
122943
122875
122809
122753
122705
122647
122569
122504
122439
122364
122298
122238
122173
122102
122035
121968
121904
121845
121776
121695
121624
121556
121489
121431
121368
121285
121202
121128
121057
120979
120911
120849
120776
120707
120639
120569
120514
120457
120382
120315
120264
120218
120170
120113
120050
119989
119929
119871
119808
119752
119694
119626
119570
119514
119449
119384
119325
119262
119189
119127
119075
119021
118956
118881
118814
118749
118683
118622
118563
118498
118424
118353
118280
118204
118119
118053
117993
117924
117843
117754
117670
117590
117510
117428
117345
117263
117190
117124
117060
116995
116928
116864
116786
116711
116641
116567
116491
116416
116348
116275
116200
116130
116058
115992
115921
115834
115764
115706
115645
115589
115534
115471
115400
115318
115227
115128
115040
114976
114910
114832
114768
114704
114631
114547
114458
114380
114306
114233
114154
114079
114002
113925
113850
113767
113698
113641
113576
113490
113406
113329
113254
113174
113097
113037
112971
112879
112788
112692
112593
112500
112405
112335
112269
112181
112094
112023
111954
111871
111779
111685
111589
111493
111407
111320
111241
111160
111057
110960
110877
110799
110719
110634
110538
110438
110340
110249
110164
110074
109977
109882
109782
109650
109537
109456
109373
109260
109147
109053
108949
108813
108671
108554
108456
108355
108238
108109
107994
107877
107762
107660
107548
107424
107306
107193
107075
106955
106827
106725
106643
106549
106427
106289
106134
105970
105827
105691
105561
105427
105261
105074
104924
104790
104650
104507
104361
104216
104073
103945
103804
103621
103467
103345
103214
103060
102901
102736
102557
102338
102127
101968
101820
101667
101504
101375
129916
129915
129912
129910
129906
129902
129897
129891
129883
129874
129863
129852
129843
129833
129822
129807
129793
129781
129765
129747
129732
129714
129693
129670
129647
129624
129606
129587
129560
129537
129514
129487
129456
129430
129403
129370
129337
129301
129269
129242
129215
129185
129152
129116
129085
129053
129017
128982
128950
128920
128885
128846
128809
128772
128729
128683
128639
128595
128549
128510
128469
128423
128386
128351
128309
128264
128225
128186
128137
128073
128018
127977
127936
127883
127832
127787
127739
127684
127624
127572
127525
127473
127424
127378
127330
127276
127225
127184
127140
127084
127018
126958
126906
126849
126789
126731
126670
126616
126566
126510
126451
126390
126330
126266
126196
126134
126068
126005
125957
125902
125834
125773
125706
125644
125579
125509
125450
125399
125347
125295
125241
125175
125111
125066
125021
124949
124875
124817
124766
124707
124635
124569
124517
124467
124413
124350
124290
124224
124134
124063
124004
123940
123870
123817
123766
123700
123627
123563
123497
123424
123362
123292
123235
123183
123113
123030
122945
122872
122804
122750
122701
122639
122567
122507
122444
122364
122288
122232
122179
122110
122030
121969
121911
121845
121766
121688
121618
121550
121477
121410
121346
121276
121207
121138
121070
120992
120916
120854
120786
120714
120643
120570
120515
120460
120392
120327
120270
120222
120174
120114
120049
119987
119926
119866
119806
119754
119700
119633
119573
119512
119443
119383
119321
119255
119185
119124
119069
119012
118949
118876
118804
118739
118677
118618
118556
118482
118414
118347
118272
118199
118122
118053
117990
117918
117837
117752
117670
117592
117511
117426
117349
117271
117195
117132
117070
117005
116931
116863
116791
116712
116638
116567
116491
116416
116350
116272
116199
116137
116067
115997
115921
115834
115764
115708
115649
115589
115530
115465
115395
115309
115221
115132
115048
114978
114906
114831
114765
114697
114631
114550
114457
114377
114304
114229
114148
114080
114010
113929
113850
113763
113698
113645
113586
113501
113407
113327
113255
113176
113104
113041
112970
112881
112783
112685
112593
112506
112423
112348
112273
112187
112092
112017
111946
111872
111786
111681
111583
111491
111408
111324
111242
111160
111060
110961
110880
110800
110720
110637
110531
110424
110341
110260
110163
110074
109979
109883
109780
109644
109535
109451
109363
109258
109142
109045
108940
108803
108662
108557
108461
108354
108244
108123
107988
107868
107767
107668
107556
107433
107307
107181
107072
106970
106859
106746
106645
106536
106412
106286
106143
105978
105830
105692
105564
105431
105272
105092
104923
104788
104657
104501
104338
104200
104074
103931
103782
103648
103508
103369
103225
103063
102900
102733
102545
102318
102149
102009
101844
101653
101485
101372
129911
129910
129909
129906
129902
129898
129894
129887
129879
129868
129859
129849
129839
129829
129816
129802
129789
129776
129759
129740
129723
129706
129688
129667
129645
129623
129603
129581
129556
129533
129508
129481
129452
129426
129399
129364
129329
129289
129262
129239
129214
129182
129146
129112
129081
129048
129015
128980
128949
128919
128880
128835
128801
128767
128722
128676
128633
128586
128542
128506
128466
128421
128382
128346
128308
128269
128226
128184
128137
128075
128018
127973
127929
127877
127831
127788
127737
127674
127613
127566
127522
127471
127422
127376
127325
127269
127219
127178
127133
127078
127015
126955
126898
126838
126780
126726
126666
126611
126562
126508
126448
126390
126331
126260
126196
126134
126067
126005
125947
125874
125820
125766
125702
125643
125577
125510
125454
125402
125345
125294
125240
125175
125115
125064
125012
124950
124879
124814
124754
124688
124627
124571
124518
124468
124413
124351
124286
124206
124127
124061
124006
123946
123871
123810
123750
123683
123619
123555
123483
123420
123360
123286
123228
123170
123105
123035
122952
122877
122804
122746
122691
122631
122574
122515
122445
122364
122288
122226
122169
122109
122039
121971
121910
121840
121757
121685
121615
121538
121452
121396
121340
121275
121214
121148
121079
121002
120926
120860
120788
120717
120650
120580
120521
120462
120399
120337
120277
120225
120176
120117
120050
119986
119924
119863
119803
119752
119699
119636
119573
119509
119444
119385
119321
119250
119180
119122
119065
119005
118941
118866
118795
118736
118676
118608
118542
118471
118404
118339
118267
118196
118125
118057
117985
117909
117832
117751
117669
117595
117519
117429
117352
117273
117197
117134
117073
117011
116940
116863
116789
116714
116638
116571
116498
116417
116350
116269
116196
116137
116074
116005
115929
115844
115771
115705
115636
115586
115535
115463
115383
115289
115216
115140
115057
114983
114905
114832
114763
114697
114629
114546
114457
114375
114304
114233
114156
114082
114006
113926
113847
113772
113701
113640
113580
113500
113410
113333
113262
113185
113106
113037
112967
112889
112794
112689
112592
112505
112431
112358
112277
112192
112098
112019
111942
111869
111787
111683
111589
111496
111407
111327
111246
111161
111069
110970
110883
110798
110711
110626
110530
110421
110338
110262
110168
110081
109994
109887
109761
109632
109525
109428
109340
109250
109134
109039
108938
108804
108666
108557
108456
108352
108250
108144
108014
107869
107763
107664
107549
107436
107311
107171
107065
106970
106873
106771
106654
106537
106415
106280
106129
105983
105849
105715
105575
105417
105250
105098
104944
104790
104646
104493
104350
104213
104080
103929
103769
103654
103540
103390
103235
103067
102893
102725
102545
102339
102168
102021
101855
101664
101504
101380
129906
129905
129905
129902
129898
129894
129889
129882
129873
129863
129854
129845
129835
129823
129811
129798
129783
129769
129751
129731
129714
129701
129686
129663
129642
129620
129597
129573
129550
129526
129501
129477
129451
129421
129388
129355
129324
129290
129257
129233
129209
129174
129139
129106
129074
129042
129011
128979
128948
128917
128875
128828
128795
128761
128715
128672
128628
128579
128538
128501
128459
128417
128379
128342
128308
128273
128229
128181
128130
128067
128010
127964
127919
127873
127829
127785
127732
127673
127616
127565
127515
127461
127417
127374
127321
127265
127214
127170
127124
127068
127010
126954
126894
126832
126767
126712
126657
126607
126561
126507
126445
126390
126330
126254
126193
126133
126068
126006
125940
125869
125811
125750
125698
125647
125580
125510
125452
125401
125346
125291
125232
125170
125116
125064
125007
124947
124879
124812
124746
124683
124625
124569
124515
124463
124406
124346
124275
124191
124130
124074
124006
123932
123856
123797
123738
123676
123615
123545
123469
123416
123362
123283
123219
123155
123098
123039
122953
122876
122805
122749
122693
122630
122573
122515
122445
122362
122289
122224
122158
122102
122039
121968
121907
121839
121755
121681
121609
121532
121455
121392
121330
121275
121220
121150
121079
121006
120937
120871
120790
120718
120653
120587
120529
120472
120406
120343
120283
120229
120176
120117
120052
119986
119924
119862
119802
119750
119698
119635
119569
119503
119439
119382
119321
119250
119181
119122
119062
119002
118937
118858
118790
118729
118664
118593
118533
118468
118396
118328
118265
118200
118124
118055
117979
117902
117830
117752
117670
117593
117513
117429
117355
117281
117203
117134
117070
117011
116943
116863
116788
116720
116650
116574
116496
116420
116348
116266
116194
116130
116071
116014
115944
115855
115778
115708
115638
115584
115527
115451
115372
115282
115215
115144
115059
114986
114908
114833
114760
114693
114625
114543
114462
114383
114311
114237
114159
114073
113998
113925
113853
113782
113706
113636
113574
113500
113412
113333
113263
113185
113108
113039
112962
112881
112797
112703
112604
112517
112436
112361
112276
112189
112107
112028
111947
111866
111779
111683
111595
111506
111406
111330
111251
111153
111068
110983
110890
110793
110704
110620
110526
110418
110337
110264
110173
110083
109997
109882
109743
109626
109511
109397
109328
109253
109141
109039
108932
108800
108675
108568
108461
108360
108256
108145
108022
107860
107754
107654
107543
107441
107311
107165
107062
106972
106879
106784
106671
106549
106424
106280
106141
106004
105859
105713
105558
105393
105243
105108
104958
104792
104642
104502
104371
104238
104094
103926
103761
103651
103543
103407
103257
103075
102890
102718
102534
102355
102188
102013
101830
101663
101525
101393
129901
129900
129899
129897
129893
129889
129883
129875
129865
129857
129848
129839
129829
129818
129805
129790
129775
129762
129744
129725
129710
129698
129682
129658
129635
129612
129589
129567
129543
129519
129498
129475
129447
129414
129378
129349
129321
129289
129255
129225
129196
129164
129130
129097
129067
129039
129010
128979
128948
128914
128872
128826
128789
128751
128709
128668
128622
128572
128535
128497
128451
128412
128377
128339
128306
128274
128224
128173
128119
128056
128002
127955
127909
127866
127824
127779
127727
127676
127625
127570
127510
127456
127415
127371
127312
127259
127211
127165
127118
127064
127007
126944
126882
126823
126756
126703
126655
126607
126558
126505
126443
126385
126325
126250
126187
126125
126062
126004
125942
125875
125811
125744
125691
125641
125579
125506
125446
125399
125347
125289
125226
125160
125114
125068
125005
124940
124875
124810
124746
124682
124622
124562
124506
124456
124404
124342
124261
124186
124129
124071
123998
123922
123850
123786
123727
123674
123617
123548
123474
123409
123344
123279
123213
123145
123089
123028
122949
122875
122808
122754
122700
122627
122567
122514
122450
122363
122287
122214
122151
122099
122039
121957
121904
121848
121755
121677
121603
121523
121460
121404
121336
121272
121213
121147
121076
121004
120939