/*--------------------------------*- C++ -*----------------------------------*\
  =========                 |
  \\      /  F ield         | OpenFOAM: The Open Source CFD Toolbox
   \\    /   O peration     | Website:  https://openfoam.org
    \\  /    A nd           | Version:  7
     \\/     M anipulation  |
\*---------------------------------------------------------------------------*/
FoamFile
{
    version     2.0;
    format      ascii;
    class       surfaceScalarField;
    location    "1000";
    object      phi;
}
// * * * * * * * * * * * * * * * * * * * * * * * * * * * * * * * * * * * * * //

dimensions      [0 3 -1 0 0 0 0];

internalField   nonuniform List<scalar> 
319200
(
9.80273e-17
1.16315e-16
2.52812e-16
7.46804e-17
4.12428e-16
1.05476e-16
5.77215e-16
9.78868e-17
7.11337e-16
1.60923e-16
8.12653e-16
1.54548e-16
8.73391e-16
1.95461e-16
9.73608e-16
8.12279e-17
1.2327e-15
-1.9515e-17
1.43304e-15
6.80229e-17
1.59207e-15
1.01487e-16
1.81017e-15
2.93226e-17
1.8415e-15
2.52561e-16
1.55358e-15
5.45869e-16
1.35862e-15
3.992e-16
1.39303e-15
1.9969e-16
1.36285e-15
2.47178e-16
1.55746e-15
8.49758e-18
1.95764e-15
-1.99239e-16
2.36944e-15
-1.91748e-16
2.70823e-15
-9.06155e-17
3.00325e-15
-5.81794e-17
3.51099e-15
-2.87369e-16
4.10194e-15
-3.42046e-16
4.43463e-15
-6.63316e-17
4.18635e-15
5.29819e-16
3.59121e-15
8.29326e-16
3.26295e-15
5.37528e-16
3.15916e-15
3.20278e-16
3.32603e-15
2.44686e-17
3.92598e-15
-4.02617e-16
4.69957e-15
-5.33867e-16
5.03553e-15
-6.11039e-17
5.01023e-15
2.65126e-16
5.03414e-15
2.07656e-16
5.03395e-15
2.42854e-16
5.19348e-15
4.48639e-17
4.93909e-15
4.71559e-16
4.13864e-15
9.68577e-16
4.07197e-15
2.52876e-16
4.52343e-15
-2.13591e-16
4.76752e-15
-5.69318e-18
4.72493e-15
2.67449e-16
4.6004e-15
2.99107e-16
4.66796e-15
1.28923e-16
4.97896e-15
-1.17209e-16
5.18833e-15
-2.29709e-17
5.10375e-15
2.8228e-16
4.79422e-15
5.33842e-16
5.1517e-15
-1.57242e-16
6.31008e-15
-9.50211e-16
6.96618e-15
-4.48784e-16
6.58179e-15
5.73422e-16
6.62297e-15
1.35682e-16
6.77822e-15
7.12511e-17
6.35608e-15
6.08969e-16
5.45432e-15
1.12925e-15
4.75302e-15
8.78032e-16
5.09255e-15
-1.74e-16
6.33204e-15
-1.07047e-15
6.56773e-15
-1.53388e-17
5.76046e-15
9.81033e-16
5.53644e-15
3.95454e-16
5.62398e-15
7.63197e-17
6.33912e-15
-5.62509e-16
7.31231e-15
-7.6553e-16
7.21919e-15
2.90737e-16
5.82947e-15
1.5949e-15
4.38587e-15
1.59804e-15
5.30953e-15
-8.04791e-16
6.54311e-15
-1.04301e-15
7.0437e-15
-3.51119e-16
7.53005e-15
-3.03755e-16
7.51416e-15
1.72567e-16
7.45521e-15
2.32149e-16
7.64725e-15
-2.82811e-17
7.94068e-15
-1.19893e-16
8.23123e-15
-1.33934e-16
8.63107e-15
-2.21842e-16
9.13558e-15
-3.42831e-16
9.85894e-15
-5.44507e-16
9.73517e-15
3.09506e-16
8.80484e-15
1.10424e-15
7.53165e-15
1.43787e-15
6.32857e-15
1.36476e-15
6.08676e-15
3.94399e-16
6.26793e-15
-2.95485e-17
6.72342e-15
-3.18686e-16
7.45024e-15
-5.78911e-16
7.78955e-15
-1.6907e-16
8.64501e-15
-7.17233e-16
9.80763e-15
-1.00009e-15
1.01563e-14
-1.82115e-16
9.92271e-15
4.0257e-16
9.14942e-15
9.29981e-16
8.23596e-15
1.04603e-15
7.62765e-15
7.4797e-16
6.98531e-15
7.7242e-16
6.6589e-15
4.57026e-16
6.63557e-15
1.41277e-16
6.74472e-15
2.57098e-17
7.42628e-15
-5.6763e-16
7.24356e-15
3.31936e-16
6.4505e-15
9.23434e-16
6.92281e-15
-3.58285e-16
7.25054e-15
-1.8457e-16
7.44627e-15
-7.98789e-17
8.26196e-15
-6.87625e-16
8.82916e-15
-4.35726e-16
9.29377e-15
-3.3557e-16
9.5321e-15
-1.03047e-16
9.96121e-15
-3.21103e-16
1.01542e-14
-4.95518e-17
9.35616e-15
9.21277e-16
8.87141e-15
6.04383e-16
8.47884e-15
5.21719e-16
8.26862e-15
3.24659e-16
8.7121e-15
-3.31616e-16
8.65757e-15
1.79821e-16
8.07854e-15
6.97194e-16
8.15703e-15
3.54761e-17
9.08376e-15
-8.27844e-16
1.0495e-14
-1.30019e-15
1.18993e-14
-1.29153e-15
1.32226e-14
-1.20654e-15
1.35618e-14
-2.02755e-16
1.25015e-14
1.19473e-15
1.17142e-14
8.99217e-16
1.15797e-14
2.54441e-16
1.12689e-14
4.32692e-16
1.06439e-14
7.37813e-16
1.04065e-14
3.44688e-16
1.11468e-14
-6.30768e-16
1.15881e-14
-3.10772e-16
1.08978e-14
8.04834e-16
9.20967e-15
1.79993e-15
8.17727e-15
1.13062e-15
8.72378e-15
-4.41266e-16
8.69162e-15
1.27719e-16
8.96341e-15
-1.83694e-16
8.82481e-15
2.48971e-16
7.94581e-15
9.92501e-16
7.92868e-15
9.59132e-17
9.02059e-15
-9.97182e-16
9.75936e-15
-6.34005e-16
9.90182e-15
-5.15392e-17
1.00067e-14
-1.1515e-17
9.71379e-15
3.93304e-16
8.68324e-15
1.12727e-15
7.24095e-15
1.52925e-15
7.08939e-15
2.30046e-16
8.02303e-15
-8.45473e-16
8.19216e-15
-9.02817e-17
8.06381e-15
2.25128e-16
8.36776e-15
-2.28734e-16
9.56807e-15
-1.11453e-15
1.09212e-14
-1.26837e-15
1.19248e-14
-9.08602e-16
1.18019e-14
2.09348e-16
1.09305e-14
9.63863e-16
9.98314e-15
1.03055e-15
9.6924e-15
3.76151e-16
1.03538e-14
-5.84997e-16
1.04186e-14
2.51062e-17
1.00873e-14
4.00138e-16
9.6187e-15
5.50555e-16
8.81037e-15
8.87628e-16
8.58206e-15
2.97523e-16
8.86225e-15
-2.05813e-16
1.02146e-14
-1.28358e-15
1.19947e-14
-1.69571e-15
1.26844e-14
-6.02252e-16
1.28361e-14
-7.9142e-17
1.28101e-14
1.16974e-16
1.17058e-14
1.18251e-15
1.07239e-14
1.04923e-15
1.14217e-14
-6.28351e-16
1.29509e-14
-1.45959e-15
1.34571e-14
-4.25971e-16
1.23593e-14
1.1748e-15
1.20343e-14
3.81959e-16
1.11239e-14
9.80319e-16
9.47372e-15
1.71242e-15
8.26393e-15
1.26808e-15
7.57694e-15
7.45312e-16
7.63559e-15
-1.24504e-18
7.71592e-15
-2.16384e-17
7.56027e-15
2.12585e-16
7.49066e-15
1.23467e-16
7.97812e-15
-4.26187e-16
8.6697e-15
-6.25976e-16
9.45952e-15
-7.3023e-16
1.02112e-14
-6.86609e-16
1.04608e-14
-1.8233e-16
9.39889e-15
1.13325e-15
9.02881e-15
4.17578e-16
1.06622e-14
-1.57819e-15
1.20564e-14
-1.33241e-15
1.31431e-14
-1.0277e-15
1.38681e-14
-6.57944e-16
1.387e-14
6.36584e-17
1.37783e-14
1.50527e-16
1.32688e-14
5.66053e-16
1.20111e-14
1.3114e-15
1.13139e-14
7.49118e-16
1.15985e-14
-2.31031e-16
1.20606e-14
-4.14517e-16
1.29892e-14
-8.80717e-16
1.36801e-14
-6.41309e-16
1.42319e-14
-5.04925e-16
1.45486e-14
-2.65169e-16
1.41187e-14
4.8096e-16
1.40451e-14
1.18141e-16
1.46645e-14
-5.73922e-16
1.44056e-14
3.08944e-16
1.38563e-14
5.94268e-16
1.48412e-14
-9.43971e-16
1.61225e-14
-1.23207e-15
1.62547e-14
-8.16036e-17
1.61628e-14
1.38002e-16
1.49062e-14
1.30619e-15
1.27489e-14
2.20171e-15
1.08727e-14
1.91417e-15
9.78005e-15
1.13159e-15
8.9815e-15
8.36644e-16
8.72534e-15
2.93653e-16
8.39687e-15
3.69577e-16
8.35964e-15
7.15459e-17
8.32687e-15
7.52643e-17
7.72041e-15
6.43803e-16
7.67845e-15
7.1203e-17
7.3284e-15
3.86893e-16
7.30398e-15
5.72578e-17
8.33255e-15
-9.93026e-16
9.37145e-15
-1.00421e-15
9.84703e-15
-4.38437e-16
9.79145e-15
8.64276e-17
9.77382e-15
5.28138e-17
9.77454e-15
2.92306e-17
9.68921e-15
1.1953e-16
9.41827e-15
3.024e-16
8.85527e-15
5.93266e-16
8.63195e-15
2.56704e-16
9.30815e-15
-6.46611e-16
9.97518e-15
-6.34265e-16
1.04795e-14
-4.71018e-16
1.1281e-14
-7.67501e-16
1.2257e-14
-9.43897e-16
1.23135e-14
-1.93446e-17
1.18729e-14
4.72734e-16
1.09045e-14
1.00295e-15
8.95092e-15
1.98577e-15
7.99332e-15
9.86358e-16
8.65206e-15
-6.32558e-16
9.68398e-15
-1.00624e-15
1.01983e-14
-4.84909e-16
1.00227e-14
2.02923e-16
1.11015e-14
-1.0536e-15
1.36917e-14
-2.56267e-15
1.52324e-14
-1.50789e-15
1.42845e-14
9.79315e-16
1.24774e-14
1.83395e-15
1.08579e-14
1.64559e-15
9.8749e-15
1.00603e-15
1.01305e-14
-2.31433e-16
1.09639e-14
-8.08797e-16
1.15421e-14
-5.53049e-16
1.20232e-14
-4.56749e-16
1.25658e-14
-5.15768e-16
1.1886e-14
7.08673e-16
1.04801e-14
1.42742e-15
1.03712e-14
1.30112e-16
1.08388e-14
-4.45926e-16
1.1051e-14
-1.91e-16
1.10609e-14
1.15353e-17
1.08194e-14
2.62274e-16
1.10547e-14
-2.13198e-16
1.11394e-14
-6.15494e-17
1.06807e-14
4.78254e-16
1.04786e-14
2.22447e-16
1.02226e-14
2.74891e-16
1.02537e-14
-1.18918e-17
1.02482e-14
2.45074e-17
1.02407e-14
2.66969e-17
1.07683e-14
-5.08526e-16
1.24369e-14
-1.65134e-15
1.41405e-14
-1.68312e-15
1.52947e-14
-1.13677e-15
1.56138e-14
-2.99136e-16
1.35975e-14
2.03806e-15
1.08068e-14
2.8112e-15
9.42174e-15
1.40009e-15
9.84022e-15
-4.02584e-16
1.09795e-14
-1.12346e-15
1.19631e-14
-9.66475e-16
1.19138e-14
6.68909e-17
1.07606e-14
1.17115e-15
1.02435e-14
5.30235e-16
1.01411e-14
1.19605e-16
1.03799e-14
-2.24583e-16
1.16065e-14
-1.21169e-15
1.39623e-14
-2.34092e-15
1.58641e-14
-1.88473e-15
1.60459e-14
-1.65433e-16
1.5483e-14
5.79351e-16
1.52117e-14
2.86412e-16
1.49993e-14
2.28462e-16
1.45422e-14
4.71957e-16
1.49675e-14
-4.12377e-16
1.52403e-14
-2.57763e-16
1.45089e-14
7.45252e-16
1.39418e-14
5.79623e-16
1.38967e-14
5.85306e-17
1.37773e-14
1.33639e-16
1.47189e-14
-9.29458e-16
1.6321e-14
-1.58868e-15
1.65395e-14
-2.04772e-16
1.60851e-14
4.66756e-16
1.54138e-14
6.84318e-16
1.43401e-14
1.0869e-15
1.3859e-14
4.92517e-16
1.39603e-14
-8.91829e-17
1.41168e-14
-1.44727e-16
1.47133e-14
-5.83711e-16
1.53984e-14
-6.73834e-16
1.55517e-14
-1.41759e-16
1.46681e-14
8.95748e-16
1.39279e-14
7.51369e-16
1.40583e-14
-1.20048e-16
1.2968e-14
1.10133e-15
1.25658e-14
4.12059e-16
1.35053e-14
-9.28903e-16
1.38832e-14
-3.67763e-16
1.51773e-14
-1.28328e-15
1.69781e-14
-1.79045e-15
1.83565e-14
-1.36789e-15
1.99045e-14
-1.5364e-15
2.13416e-14
-1.42499e-15
1.93672e-14
1.98802e-15
1.54079e-14
3.96979e-15
1.37578e-14
1.65889e-15
1.32446e-14
5.23316e-16
1.31447e-14
1.10102e-16
1.37639e-14
-6.10542e-16
1.29668e-14
8.05295e-16
1.17756e-14
1.19722e-15
1.32972e-14
-1.51511e-15
1.55235e-14
-2.2192e-15
1.69125e-14
-1.38209e-15
1.76657e-14
-7.45814e-16
1.78863e-14
-2.1244e-16
1.75421e-14
3.52378e-16
1.61212e-14
1.43029e-15
1.53653e-14
7.63495e-16
1.58333e-14
-4.60432e-16
1.58304e-14
1.03776e-17
1.55961e-14
2.42436e-16
1.56027e-14
1.15169e-18
1.58243e-14
-2.14013e-16
1.56756e-14
1.55735e-16
1.5487e-14
1.95765e-16
1.57166e-14
-2.22385e-16
1.63544e-14
-6.30132e-16
1.74641e-14
-1.10272e-15
1.98454e-14
-2.37333e-15
2.10681e-14
-1.21498e-15
2.3914e-14
-2.83924e-15
2.51526e-14
-1.23013e-15
2.21864e-14
2.9735e-15
1.94095e-14
2.78334e-15
1.98251e-14
-4.09635e-16
2.23517e-14
-2.51989e-15
2.58361e-14
-3.47774e-15
2.66005e-14
-7.56169e-16
2.55735e-14
1.03287e-15
2.38316e-14
1.74963e-15
2.00295e-14
3.80842e-15
1.72804e-14
2.75532e-15
1.5931e-14
1.35508e-15
1.55446e-14
3.9214e-16
1.61765e-14
-6.25937e-16
1.60785e-14
1.04088e-16
1.88422e-14
-2.75759e-15
2.3839e-14
-4.9902e-15
2.63897e-14
-2.54384e-15
2.70672e-14
-6.7058e-16
2.6693e-14
3.81394e-16
2.48388e-14
1.86111e-15
2.27962e-14
2.04912e-15
2.30783e-14
-2.76026e-16
2.36222e-14
-5.37441e-16
2.36203e-14
8.02179e-18
2.44465e-14
-8.19435e-16
2.4951e-14
-4.97996e-16
2.64597e-14
-1.50311e-15
2.90146e-14
-2.5479e-15
2.90061e-14
1.63469e-17
3.11061e-14
-2.09335e-15
3.3302e-14
-2.18625e-15
3.79322e-16
1.54404e-16
2.7116e-16
2.57811e-16
2.10166e-16
3.16247e-16
2.55723e-16
4.34674e-16
2.36699e-16
5.7552e-16
2.68007e-16
8.01252e-16
1.83301e-16
1.01521e-15
2.54564e-16
1.13142e-15
2.19955e-16
1.25744e-15
9.9899e-17
1.39561e-15
1.80837e-16
1.51728e-15
2.45986e-16
1.57685e-15
1.95143e-16
1.7271e-15
3.29283e-16
1.91478e-15
5.90781e-16
1.92562e-15
6.39501e-16
1.99153e-15
3.50841e-16
2.47386e-15
-6.34739e-18
2.98091e-15
-2.17731e-16
2.97209e-15
8.82735e-17
2.793e-15
2.52489e-16
2.79248e-15
1.45736e-16
3.10218e-15
-1.45803e-16
3.3188e-15
-2.68654e-16
3.11137e-15
9.7714e-17
3.18514e-15
6.82393e-17
3.96413e-15
-4.09131e-17
4.50709e-15
5.3715e-16
4.41513e-15
8.70025e-16
4.51439e-15
4.48752e-16
4.73793e-15
5.00076e-17
4.3297e-15
2.4385e-16
3.76333e-15
2.5012e-16
3.5287e-15
4.02368e-16
3.69424e-15
3.18432e-16
4.22581e-15
-1.19438e-16
4.6982e-15
-1.15966e-17
4.55311e-15
4.20828e-16
4.6872e-15
4.80648e-16
5.33576e-15
5.18427e-16
5.23551e-15
6.12234e-16
4.79918e-15
4.64683e-16
4.82768e-15
1.85775e-16
4.92116e-15
4.23794e-16
4.87349e-15
5.15345e-16
5.35453e-15
-1.55902e-16
5.63358e-15
-1.84841e-16
5.3003e-15
5.05072e-16
5.31217e-15
4.54963e-16
5.70179e-15
3.65493e-16
5.69771e-15
8.82618e-17
5.3338e-15
-3.81547e-16
5.62635e-15
-5.5756e-16
6.51698e-15
-1.4906e-16
6.41286e-15
4.50477e-16
5.84704e-15
8.00285e-16
5.80913e-15
8.23893e-16
5.69979e-15
1.43002e-15
5.5085e-15
1.24665e-15
5.56708e-15
-5.17587e-17
5.49079e-15
-8.1278e-16
5.48631e-15
1.68267e-16
5.63096e-15
1.02532e-15
5.73052e-15
4.71297e-16
6.09751e-15
-1.28857e-16
5.79601e-15
-7.99961e-17
5.64643e-15
-4.32148e-16
6.75918e-15
-6.69915e-16
8.77365e-15
-2.27679e-16
1.04107e-14
1.47599e-16
1.03105e-14
-5.04917e-16
8.91701e-15
5.50972e-16
7.39352e-15
1.3632e-15
6.6212e-15
6.24991e-16
6.6251e-15
3.33357e-16
6.94012e-15
8.27827e-17
7.21844e-15
-1.25704e-16
7.0375e-15
2.23655e-16
7.18532e-15
-1.17997e-16
8.12929e-15
-1.01275e-15
8.44468e-15
-4.80053e-16
7.93453e-15
1.36754e-16
8.07953e-15
3.25701e-16
9.01408e-15
3.28011e-16
1.03872e-14
2.21745e-16
1.05672e-14
1.36733e-15
9.14293e-15
2.00307e-15
7.71611e-15
1.54117e-15
7.82878e-15
-2.87047e-16
8.47583e-15
-1.07898e-15
9.39323e-15
-9.28778e-16
9.90314e-15
-1.06386e-15
1.0146e-14
-1.09278e-15
1.01907e-14
-5.33409e-17
9.54238e-15
1.21802e-15
9.57327e-15
1.03937e-15
9.729e-15
1.04314e-15
9.74362e-15
8.79321e-16
9.38564e-15
1.28695e-15
8.691e-15
1.30311e-15
8.73571e-15
2.29529e-16
8.83888e-15
7.72008e-17
8.4673e-15
-5.29308e-17
9.54482e-15
-6.32291e-16
9.95596e-15
6.63713e-16
8.83353e-15
8.965e-16
9.25123e-15
-4.87285e-16
1.0397e-14
-1.09117e-15
1.03134e-14
-4.55409e-16
9.7142e-15
2.99402e-16
9.1114e-15
4.06531e-16
8.25472e-15
8.86605e-16
7.44946e-15
5.95452e-16
7.57953e-15
-6.53279e-17
8.3386e-15
2.72977e-16
8.86779e-15
1.91554e-16
9.26827e-15
2.40983e-16
9.42768e-15
2.85658e-16
9.68836e-15
-4.70935e-16
1.09525e-14
-9.66274e-16
1.20385e-14
-2.58838e-16
1.14602e-14
7.48978e-16
1.02579e-14
4.90107e-16
9.55365e-15
-4.79216e-16
8.98935e-15
-6.11855e-16
8.60258e-15
-7.07376e-16
8.79958e-15
-2.85561e-16
9.52933e-15
5.79081e-16
1.01118e-14
4.17488e-16
9.99696e-15
4.81567e-16
9.62664e-15
9.06997e-16
9.77626e-15
6.98249e-16
1.17222e-14
-1.5182e-15
1.29931e-14
-1.781e-15
1.24275e-14
3.71944e-16
1.22731e-14
1.06436e-15
1.37839e-14
3.74339e-16
1.28409e-14
2.19279e-15
1.03105e-14
2.18759e-15
9.98024e-15
5.4508e-16
1.01356e-14
-2.47952e-16
1.03015e-14
1.81985e-16
1.06625e-14
7.34707e-16
1.09974e-14
-1.41157e-16
1.02877e-14
-1.8755e-16
9.50524e-15
2.58175e-16
9.59428e-15
-5.09881e-17
9.77051e-15
-9.39624e-17
9.57422e-15
6.78443e-16
9.79317e-15
9.97933e-16
1.12304e-14
1.73117e-16
1.10437e-14
5.2846e-16
9.37431e-15
9.04064e-16
8.925e-15
4.38365e-16
9.36343e-15
-1.27372e-16
1.04007e-14
-1.18186e-15
1.05095e-14
-1.13143e-15
1.03128e-14
-9.92234e-16
1.0521e-14
-1.02666e-15
1.11597e-14
-3.49437e-16
1.19833e-14
2.31644e-16
1.2536e-14
5.67326e-16
1.20846e-14
9.24538e-16
1.10343e-14
5.52943e-16
1.08773e-14
2.66152e-16
1.1482e-14
-1.27997e-16
1.22712e-14
-1.57758e-16
1.22035e-14
1.04252e-15
1.13087e-14
1.26844e-15
1.0377e-14
8.07789e-16
9.66704e-15
-4.95065e-16
9.29605e-15
-1.24772e-15
9.949e-15
-1.17947e-15
1.1865e-14
-1.93702e-15
1.2927e-14
-8.61943e-16
1.28728e-14
1.30333e-15
1.25704e-14
1.42352e-15
1.17299e-14
2.84417e-16
1.09986e-14
-6.62781e-16
1.05571e-14
8.32822e-17
1.07946e-14
1.00133e-15
1.10792e-14
1.5543e-16
1.11688e-14
9.53013e-16
1.08115e-14
2.12978e-15
1.12096e-14
9.20575e-16
1.14828e-14
5.37463e-16
1.08047e-14
7.39694e-16
1.00813e-14
7.68528e-16
9.99341e-15
3.57299e-16
1.08671e-14
-6.94693e-16
1.17651e-14
-1.26058e-15
1.18843e-14
-6.82544e-16
1.19232e-14
-7.06876e-16
1.27787e-14
-1.48633e-15
1.32135e-14
-5.51613e-16
1.34452e-14
9.58215e-16
1.39613e-14
-3.70354e-17
1.42079e-14
-1.76373e-15
1.48263e-14
-1.88862e-15
1.51249e-14
-1.26282e-15
1.51869e-14
-6.56876e-16
1.51961e-14
1.17906e-16
1.52542e-14
1.48614e-16
1.66286e-14
-7.55783e-16
1.90041e-14
-1.00871e-15
1.91406e-14
6.74957e-16
1.69673e-14
2.00428e-15
1.54419e-14
1.16342e-15
1.4954e-14
-3.40066e-16
1.51975e-14
-8.33427e-16
1.44306e-14
3.17195e-16
1.38042e-14
4.08816e-16
1.44856e-14
-1.57227e-16
1.47889e-14
-1.36907e-16
1.41877e-14
7.31073e-17
1.45987e-14
-6.07491e-17
1.52928e-14
-5.49603e-17
1.49854e-14
-5.89297e-16
1.43186e-14
-5.16284e-16
1.36524e-14
6.33557e-16
1.27164e-14
1.11625e-15
1.26508e-14
1.41355e-15
1.36921e-14
1.19439e-15
1.43209e-14
1.32589e-15
1.45946e-14
8.95568e-16
1.44978e-14
9.75883e-16
1.38875e-14
9.44088e-16
1.29461e-14
1.35345e-15
1.1859e-14
1.19583e-15
1.16546e-14
3.20284e-16
1.21237e-14
2.1118e-16
1.279e-14
-5.58072e-16
1.45184e-14
-1.30501e-15
1.48406e-14
-2.16275e-16
1.27414e-14
1.15149e-15
1.14557e-14
3.15971e-16
1.1748e-14
-6.96408e-16
1.2246e-14
-3.75816e-16
1.19734e-14
3.61851e-16
1.12282e-14
8.055e-16
1.08488e-14
5.33089e-16
1.13135e-14
-1.32325e-16
1.24798e-14
-5.43732e-16
1.29305e-14
-1.58656e-16
1.25503e-14
-2.3314e-16
1.32429e-14
-1.30035e-15
1.40245e-14
-1.21722e-15
1.43379e-14
-1.04664e-15
1.4657e-14
-1.23015e-15
1.53245e-14
-6.53149e-16
1.58596e-14
-2.68395e-17
1.63287e-14
5.67999e-16
1.68981e-14
1.45238e-15
1.56529e-14
2.26929e-15
1.38658e-14
1.18415e-15
1.38656e-14
-9.78289e-16
1.38936e-14
-4.81463e-16
1.46417e-14
-5.1875e-16
1.53836e-14
-1.7643e-15
1.44273e-14
-1.57544e-15
1.33879e-14
-4.37438e-16
1.36814e-14
7.09376e-16
1.43632e-14
1.17827e-15
1.50302e-14
1.00436e-15
1.55548e-14
5.06545e-16
1.46988e-14
6.55242e-16
1.33118e-14
6.06976e-16
1.37373e-14
-9.58153e-16
1.54426e-14
-2.13748e-15
1.53879e-14
-4.33468e-16
1.47056e-14
1.41538e-15
1.55819e-14
5.73751e-16
1.53934e-14
3.45985e-16
1.39837e-14
9.88496e-16
1.35864e-14
2.27248e-16
1.41135e-14
-4.93924e-16
1.4812e-14
-4.1452e-16
1.44288e-14
1.96695e-16
1.34162e-14
9.74584e-16
1.31333e-14
7.81429e-16
1.36042e-14
-2.28447e-16
1.40473e-14
-1.46569e-16
1.48427e-14
-7.86293e-16
1.59912e-14
-1.10208e-15
1.60498e-14
-9.04065e-18
1.49209e-14
6.41866e-16
1.36308e-14
-3.41555e-16
1.29329e-14
-9.66719e-16
1.27497e-14
-9.3595e-16
1.31468e-14
-6.79018e-16
1.38976e-14
1.30555e-15
1.42262e-14
2.49842e-15
1.49595e-14
6.85599e-16
1.43873e-14
1.89997e-16
1.26951e-14
5.88873e-16
1.19052e-14
-1.62319e-16
1.25114e-14
-5.2295e-16
1.30298e-14
6.69426e-16
1.29785e-14
5.96543e-16
1.45394e-14
-1.42641e-15
1.61159e-14
-1.78424e-15
1.6837e-14
-1.91731e-15
1.63534e-14
-1.83911e-15
1.52081e-14
-7.23065e-16
1.48085e-14
2.49701e-16
1.45865e-14
8.16527e-16
1.47168e-14
1.70222e-16
1.51381e-14
-1.78514e-16
1.51661e-14
4.58987e-16
1.48831e-14
-1.16624e-16
1.49753e-14
-3.3582e-16
1.55124e-14
2.21234e-16
1.65265e-14
-4.21405e-16
1.76826e-14
-1.08271e-15
1.79959e-14
-1.64583e-16
1.64088e-14
6.72517e-16
1.4468e-14
3.64492e-16
1.45886e-14
-3.14637e-16
1.5371e-14
-3.04542e-16
1.59194e-14
1.47914e-16
1.62772e-14
7.40648e-16
1.6525e-14
2.56342e-16
1.81614e-14
-1.71449e-15
2.10056e-14
-2.97643e-15
2.1808e-14
-1.37214e-15
2.06921e-14
4.54474e-16
2.15827e-14
-1.02097e-15
2.27429e-14
-2.51567e-16
2.1267e-14
2.24099e-15
1.93122e-14
1.84542e-15
1.86303e-14
1.79314e-15
1.71014e-14
1.95224e-15
1.59905e-14
1.92675e-16
1.68252e-14
-1.19282e-15
1.73127e-14
-1.75917e-15
1.69235e-14
-1.3908e-15
1.69971e-14
-1.43201e-15
1.69637e-14
-1.49316e-15
1.61707e-14
-6.21195e-16
1.66453e-14
1.52358e-15
1.8272e-14
2.35263e-15
1.90866e-14
8.54192e-16
1.79342e-14
1.68707e-15
1.57616e-14
2.29277e-15
1.47786e-14
3.81472e-16
1.51288e-14
4.62261e-16
1.56655e-14
6.68073e-16
1.59833e-14
-1.82505e-15
1.67852e-14
-3.01293e-15
1.70795e-14
-1.66792e-15
1.64955e-14
-1.529e-16
1.63034e-14
-1.27512e-17
1.65141e-14
1.49577e-16
1.74851e-14
4.66866e-16
1.77034e-14
5.54258e-16
1.59865e-14
1.2638e-15
1.46493e-14
1.35471e-15
1.39602e-14
9.38767e-16
1.39824e-14
-1.39957e-17
1.49621e-14
-1.18704e-15
1.61769e-14
-1.05216e-15
1.68743e-14
-4.9478e-16
1.67999e-14
-1.40218e-16
1.7232e-14
-1.05492e-15
1.93574e-14
-3.22115e-15
2.21384e-14
-5.14645e-15
2.35154e-14
-2.58443e-15
2.27864e-14
-2.10198e-15
2.05524e-14
1.01189e-15
1.91828e-14
4.34986e-15
1.77794e-14
4.19342e-15
1.65699e-14
8.06448e-16
1.60308e-14
-1.97487e-15
1.58303e-14
-3.27087e-15
1.67758e-14
-1.69581e-15
1.7985e-14
-1.696e-16
2.00041e-14
-2.63793e-16
2.31899e-14
6.29211e-16
2.27999e-14
3.15221e-15
2.10321e-14
3.12874e-15
2.17639e-14
-3.33317e-16
2.26579e-14
-1.51301e-15
2.34374e-14
-6.70237e-16
2.25065e-14
-1.81866e-15
2.00928e-14
-2.57012e-15
2.11041e-14
-3.54971e-15
2.11387e-14
-6.97844e-16
1.94919e-14
2.03465e-15
2.05547e-14
8.04346e-16
2.35646e-14
-9.5433e-16
2.47925e-14
-1.49695e-15
2.50904e-14
-8.29467e-16
2.67046e-14
-1.59972e-15
2.64214e-14
-5.29132e-16
2.51203e-14
8.09348e-16
2.57163e-14
-2.09346e-15
2.49719e-14
-1.79663e-15
2.37073e-14
1.28714e-15
2.21042e-14
-4.82363e-16
2.19519e-14
-2.02695e-15
-7.9535e-16
1.33255e-16
3.5605e-16
2.39703e-16
3.04227e-16
3.56368e-16
3.61583e-16
4.8402e-16
2.89989e-16
6.53354e-16
3.51027e-16
7.9266e-16
2.63718e-16
1.05171e-15
2.29041e-16
1.26489e-15
2.69072e-16
1.48819e-15
9.96958e-17
1.87741e-15
5.39228e-17
2.13893e-15
2.6934e-16
2.06634e-15
5.21598e-16
2.10359e-15
5.21316e-16
2.55007e-15
3.95398e-16
3.0277e-15
4.35257e-16
3.29919e-15
3.18823e-16
3.24885e-15
3.35024e-16
2.8673e-15
4.48339e-16
2.68334e-15
5.0422e-16
2.72148e-15
4.6614e-16
2.73841e-15
3.55909e-16
2.66451e-15
1.61741e-16
2.51469e-15
9.86437e-17
2.37669e-15
4.32487e-16
2.573e-15
6.27661e-17
2.89979e-15
-1.63508e-16
3.31476e-15
3.33372e-16
4.058e-15
3.38488e-16
4.37913e-15
3.76979e-16
4.12157e-15
5.34829e-16
4.21981e-15
3.60818e-16
4.26732e-15
4.32375e-16
4.16761e-15
7.39311e-16
3.93575e-15
7.97282e-16
3.75424e-15
2.619e-16
3.86047e-15
7.64069e-17
3.83592e-15
6.48546e-16
3.82921e-15
6.77862e-16
3.86858e-15
6.68466e-16
4.15126e-15
5.3131e-16
4.56548e-15
2.60428e-16
4.97193e-15
-1.27133e-17
5.62044e-15
-1.57772e-17
6.36744e-15
-3.11276e-17
5.89223e-15
5.82137e-16
4.8206e-15
1.08741e-15
4.6386e-15
8.69308e-16
5.05789e-15
2.13006e-16
5.8389e-15
-2.10229e-16
5.79658e-15
3.61495e-16
5.02258e-15
5.99995e-16
4.70443e-15
-5.34443e-17
4.85278e-15
-1.21167e-16
5.42316e-15
5.09294e-17
6.38749e-15
1.6125e-17
7.61308e-15
-2.2169e-16
8.83239e-15
4.11222e-16
9.45357e-15
8.38183e-16
8.39002e-15
1.25188e-15
6.52097e-15
1.24181e-15
6.11524e-15
7.55269e-16
6.67006e-15
6.47403e-16
6.82822e-15
5.26384e-16
6.39495e-15
4.73491e-16
6.22117e-15
2.6764e-16
5.66339e-15
3.31454e-16
4.96506e-15
1.9367e-16
4.94119e-15
-4.02827e-17
5.37423e-15
-1.4259e-16
5.63608e-15
-5.98034e-16
6.64966e-15
-3.27023e-16
7.22026e-15
9.81262e-16
6.42871e-15
1.60008e-15
5.7461e-15
1.16141e-15
6.19052e-15
-2.10516e-16
7.43041e-15
-1.19884e-15
8.64045e-15
-8.20997e-16
9.74455e-15
-1.04749e-15
9.37633e-15
-4.55909e-16
8.74357e-15
3.15939e-16
9.13362e-15
-8.18166e-17
9.54655e-15
8.97886e-17
9.17814e-15
8.80616e-16
8.30601e-15
1.24524e-15
8.10502e-15
1.73007e-15
8.86337e-15
1.39022e-15
9.42624e-15
1.14062e-15
8.58165e-15
7.28246e-16
7.472e-15
1.79298e-16
7.63374e-15
-9.5876e-16
7.33176e-15
-6.00243e-16
6.28886e-15
9.08472e-17
6.22835e-15
1.31243e-16
6.48647e-15
1.10954e-15
6.24088e-15
1.40894e-15
6.64525e-15
7.54774e-16
7.80551e-15
-1.44798e-16
8.44628e-15
7.8516e-16
8.08975e-15
1.80085e-15
7.70168e-15
7.47963e-16
8.62326e-15
-7.21595e-16
9.15542e-15
-4.42858e-16
8.91886e-15
-2.73251e-16
9.71996e-15
-6.78266e-18
9.83367e-15
9.21737e-16
8.99583e-15
4.88266e-16
8.49033e-15
-4.50392e-16
8.47003e-15
-3.16458e-16
9.09716e-15
-2.0303e-16
9.31283e-15
3.25133e-16
9.05355e-15
1.26322e-15
8.22991e-15
1.54203e-15
7.74279e-15
5.4035e-16
8.42291e-15
-3.0374e-16
9.20622e-15
-4.67605e-16
9.36502e-15
1.94541e-16
9.12302e-15
6.45767e-16
8.67431e-15
1.01106e-16
8.33914e-15
-5.07099e-16
8.12918e-15
7.27167e-17
8.3155e-15
6.73524e-16
8.4754e-15
4.35857e-16
8.00015e-15
1.06221e-16
7.37313e-15
1.20051e-16
7.25001e-15
-4.81542e-16
7.67602e-15
-6.07242e-16
8.63065e-15
-2.80202e-16
9.24025e-15
-8.54442e-17
9.38872e-15
4.38456e-16
1.01179e-14
2.74178e-16
1.11388e-14
-2.17374e-16
1.08841e-14
-1.14484e-15
1.0106e-14
-8.87639e-16
1.03689e-14
2.126e-16
1.08937e-14
6.41609e-16
1.09313e-14
4.32122e-16
1.17812e-14
1.44223e-15
1.2049e-14
2.02376e-15
1.19773e-14
7.18197e-16
1.28341e-14
-1.00562e-15
1.48925e-14
-1.77321e-15
1.52733e-14
4.85472e-16
1.35427e-14
1.69589e-15
1.25144e-14
9.39809e-16
1.12952e-14
1.5903e-15
1.04511e-14
8.90491e-16
1.05485e-14
-1.02929e-16
1.06416e-14
6.74936e-16
1.051e-14
1.21736e-15
1.0658e-14
1.06596e-16
1.13423e-14
-6.22967e-17
1.22768e-14
5.80801e-17
1.42616e-14
-1.45768e-15
1.48503e-14
-6.05326e-16
1.28863e-14
8.87012e-16
1.12145e-14
6.20114e-16
1.06219e-14
-3.14509e-16
1.00705e-14
-3.88062e-16
9.46609e-15
3.4157e-16
9.2451e-15
5.37553e-16
9.81024e-15
7.54153e-17
1.04287e-14
3.85704e-16
1.06828e-14
3.73333e-16
1.11939e-14
-1.70495e-16
1.13534e-14
-2.11918e-16
1.12226e-14
5.46462e-17
1.19089e-14
4.38235e-16
1.28245e-14
4.30315e-16
1.34555e-14
2.54889e-16
1.37139e-14
-6.64745e-16
1.33091e-14
-7.59503e-16
1.20361e-14
1.78871e-16
1.01133e-14
6.45201e-17
9.47431e-15
-1.54559e-16
1.11307e-14
-2.97331e-16
1.28096e-14
-1.87431e-16
1.26413e-14
5.25957e-16
1.13128e-14
7.35462e-16
1.04444e-14
1.01195e-15
1.01793e-14
1.33089e-15
9.92237e-15
4.76358e-16
1.10344e-14
-1.02014e-16
1.25921e-14
6.30901e-16
1.25733e-14
1.00237e-15
1.24555e-14
7.13829e-16
1.267e-14
5.85082e-16
1.33368e-14
1.60508e-16
1.40906e-14
-3.34473e-16
1.46362e-14
-1.17737e-15
1.44594e-14
-1.00559e-15
1.37728e-14
7.21915e-17
1.37825e-14
-6.55613e-16
1.42345e-14
-1.87806e-15
1.50331e-14
-1.28952e-15
1.62571e-14
-2.06836e-16
1.61988e-14
9.09454e-17
1.51217e-14
-6.26103e-16
1.45291e-14
-1.23892e-15
1.43564e-14
-1.02999e-15
1.44453e-14
-6.90766e-16
1.49628e-14
-3.43074e-16
1.54537e-14
-2.83482e-16
1.51711e-14
-4.15116e-16
1.45943e-14
-3.74827e-16
1.48172e-14
5.02671e-16
1.54976e-14
1.37732e-15
1.59824e-14
7.22521e-16
1.49859e-14
7.09959e-16
1.37366e-14
4.66493e-16
1.34037e-14
6.94048e-16
1.37747e-14
8.05441e-17
1.41435e-14
-4.75399e-16
1.40802e-14
-2.56427e-17
1.4206e-14
-1.13147e-17
1.42557e-14
-6.77103e-17
1.42498e-14
-5.35455e-18
1.39012e-14
-1.94079e-16
1.34115e-14
1.76987e-17
1.36234e-14
4.63026e-16
1.40943e-14
6.85111e-16
1.43203e-14
1.23035e-15
1.44435e-14
1.11262e-15
1.51682e-14
6.40535e-16
1.55394e-14
5.6607e-16
1.55615e-14
9.9312e-16
1.50507e-14
1.49587e-15
1.53947e-14
1.04542e-15
1.55767e-14
1.0535e-15
1.41672e-14
1.77491e-15
1.27963e-14
1.61858e-15
1.27729e-14
-5.01009e-16
1.31791e-14
-1.67439e-15
1.37392e-14
-7.35519e-16
1.53038e-14
-3.77377e-16
1.54933e-14
1.7014e-16
1.35499e-14
1.28787e-15
1.23963e-14
8.1099e-16
1.2988e-14
-1.98789e-16
1.47381e-14
-9.1324e-16
1.63601e-14
-1.05281e-15
1.7022e-14
-7.58596e-16
1.72154e-14
-7.03657e-16
1.71234e-14
-3.02962e-17
1.64829e-14
4.421e-16
1.54916e-14
-2.70221e-16
1.52845e-14
-9.75843e-16
1.54126e-14
-1.13544e-15
1.45471e-14
-3.29191e-16
1.42263e-14
-3.01744e-16
1.45561e-14
-3.25908e-16
1.48697e-14
2.85863e-16
1.49218e-14
1.43331e-15
1.50919e-14
2.13162e-15
1.51172e-14
1.18803e-15
1.48385e-14
-6.70651e-16
1.43767e-14
9.28521e-18
1.42875e-14
-4.03072e-16
1.40359e-14
-1.48511e-15
1.35521e-14
-1.06468e-15
1.35883e-14
-4.49261e-16
1.43775e-14
-5.47793e-17
1.51239e-14
4.60263e-16
1.58925e-14
2.60557e-16
1.64124e-14
1.27907e-17
1.65874e-14
5.05561e-16
1.59525e-14
1.26799e-15
1.48593e-14
1.63319e-16
1.36767e-14
-9.26975e-16
1.25414e-14
7.25412e-16
1.331e-14
6.67911e-16
1.53123e-14
-1.40846e-15
1.65403e-14
-8.59146e-16
1.70006e-14
5.50304e-16
1.74283e-14
-1.78228e-16
1.73491e-14
-3.90994e-16
1.76033e-14
-6.48016e-16
1.74301e-14
3.9455e-16
1.68325e-14
1.59633e-15
1.77301e-14
-9.63865e-17
1.82528e-14
-7.27454e-16
1.84421e-14
-3.15302e-16
1.74386e-14
2.41196e-16
1.53069e-14
1.04957e-15
1.46615e-14
6.55733e-16
1.53827e-14
-6.34878e-17
1.53033e-14
-2.42946e-16
1.47858e-14
-4.31817e-16
1.4521e-14
-6.53679e-16
1.54939e-14
-1.63437e-15
1.81313e-14
-1.31407e-15
1.90142e-14
1.63491e-15
1.74976e-14
2.22085e-15
1.70248e-14
6.80059e-16
1.74145e-14
2.16661e-16
1.78745e-14
-6.04056e-16
1.76581e-14
-2.87057e-16
1.74315e-14
9.1347e-16
1.83728e-14
-3.3025e-16
1.82491e-14
-1.2851e-15
1.69601e-14
-4.78539e-16
1.61682e-14
-1.10832e-15
1.55624e-14
-1.21863e-15
1.67089e-14
-1.85597e-15
1.8107e-14
-1.13443e-15
1.85017e-14
4.38719e-16
1.75428e-14
1.14584e-15
1.62541e-14
1.12583e-15
1.61124e-14
6.14313e-16
1.6148e-14
-1.37927e-16
1.56783e-14
1.49118e-16
1.53752e-14
5.38132e-16
1.54991e-14
-5.31688e-16
1.53004e-14
-8.69972e-16
1.50696e-14
7.9926e-17
1.54291e-14
3.24449e-16
1.63114e-14
-5.06777e-16
1.66891e-14
-6.7983e-16
1.61365e-14
2.59897e-16
1.64463e-14
-1.5053e-16
1.83306e-14
-1.13212e-15
2.01396e-14
-1.54062e-15
2.0394e-14
-1.95644e-15
1.9117e-14
-1.6864e-15
1.7736e-14
2.19178e-17
1.75333e-14
6.68332e-16
1.65747e-14
-4.99894e-17
1.58443e-14
4.9039e-16
1.6641e-14
1.45507e-15
1.80324e-14
4.64047e-16
1.9407e-14
4.28096e-16
1.89917e-14
2.37809e-15
1.73411e-14
1.85506e-15
1.66903e-14
-5.32887e-16
1.60162e-14
-1.07375e-15
1.56239e-14
-9.89148e-16
1.57847e-14
-1.58421e-15
1.60532e-14
-1.75263e-15
1.62645e-14
-8.23524e-16
1.7105e-14
6.9193e-16
1.76951e-14
1.77188e-15
1.76244e-14
9.34209e-16
1.92827e-14
3.69845e-17
1.98786e-14
1.70647e-15
1.88518e-14
1.41785e-15
2.00395e-14
-7.17049e-16
2.09697e-14
-2.52588e-16
1.85722e-14
5.82316e-16
1.56459e-14
-7.83323e-17
1.5068e-14
-1.08308e-15
1.63035e-14
-1.38117e-15
1.81042e-14
-1.80521e-15
2.00278e-14
-1.76642e-15
2.04555e-14
4.81868e-17
1.91009e-14
1.91726e-15
1.91721e-14
1.19992e-15
1.99619e-14
5.72791e-16
1.94654e-14
1.44436e-15
1.65875e-14
2.87278e-15
1.45152e-14
8.92339e-16
1.56191e-14
-2.14992e-15
1.79974e-14
-2.86619e-15
1.9899e-14
-2.03449e-15
1.96047e-14
-7.52663e-16
1.73908e-14
-9.99804e-16
1.54471e-14
-3.19479e-15
1.54005e-14
-2.53179e-15
1.65179e-14
-3.21312e-15
1.77704e-14
-2.34365e-16
2.06608e-14
1.46553e-15
2.39421e-14
9.18638e-16
2.53423e-14
-5.86843e-16
2.49341e-14
-1.55932e-15
2.41325e-14
-2.46187e-15
2.37976e-14
-1.35307e-15
2.22384e-14
1.39719e-15
2.03074e-14
1.67439e-15
2.01739e-14
7.6966e-16
2.07241e-14
2.60854e-15
2.05557e-14
3.30351e-15
1.98081e-14
4.21476e-16
1.95039e-14
-1.20277e-15
1.95477e-14
-7.07924e-16
2.0079e-14
-2.34351e-15
2.0438e-14
-2.92236e-15
1.96149e-14
-2.7205e-15
2.01083e-14
-1.18573e-15
2.14815e-14
6.68027e-16
2.24725e-14
-1.80112e-16
2.23618e-14
-8.36773e-16
2.1966e-14
-1.09466e-15
2.41923e-14
-3.0501e-15
2.60888e-14
-3.48976e-15
2.65382e-14
-9.72055e-16
2.75138e-14
-1.60298e-16
2.53077e-14
1.19121e-16
2.22483e-14
1.26956e-15
2.31607e-14
3.81211e-16
2.31314e-14
-4.44677e-16
2.0327e-14
7.85562e-16
7.08335e-16
2.90259e-16
3.57589e-16
5.03413e-16
3.76696e-16
6.67274e-16
4.82496e-16
8.59832e-16
3.82973e-16
1.08517e-15
4.12736e-16
1.21945e-15
4.02619e-16
1.41641e-15
2.84232e-16
1.62144e-15
3.52237e-16
1.71849e-15
2.72653e-16
1.68158e-15
3.76501e-16