/*--------------------------------*- C++ -*----------------------------------*\
  =========                 |
  \\      /  F ield         | OpenFOAM: The Open Source CFD Toolbox
   \\    /   O peration     | Website:  https://openfoam.org
    \\  /    A nd           | Version:  7
     \\/     M anipulation  |
\*---------------------------------------------------------------------------*/
FoamFile
{
    version     2.0;
    format      ascii;
    class       volScalarField;
    location    "1000";
    object      rho;
}
// * * * * * * * * * * * * * * * * * * * * * * * * * * * * * * * * * * * * * //

dimensions      [1 -3 0 0 0 0 0];

internalField   nonuniform List<scalar> 
160000
(
25.0234
25.0259
15.0788
19.0198
16.2575
15.7791
21.8706
33.1904
20.2927
21.3972
19.7927
18.2272
17.3674
21.0665
21.3622
18.8917
18.8935
22.5949
32.3667
25.2508
17.4417
17.6503
23.2156
20.2928
15.1697
15.1711
23.9198
24.6276
24.6287
24.6314
22.4377
17.5355
17.5374
17.5393
17.5412
17.5432
27.1222
27.1223
27.1268
27.1265
14.9212
14.6128
19.5203
25.9792
25.9809
25.9831
25.9848
17.0484
17.0495
17.0509
18.7205
26.0852
26.0845
26.0883
19.2748
18.2572
18.2583
18.2596
19.3782
22.4332
22.4358
22.4359
22.4393
21.7924
21.7935
19.6805
17.9767
17.9777
17.9788
21.9426
21.9489
21.9489
21.9525
21.9522
21.9549
21.9558
21.9573
22.4081
22.4093
21.5877
22.0369
22.0379
19.142
19.1432
19.3474
20.2912
20.265
20.2653
20.6695
18.3789
18.3812
22.3153
21.9951
19.2971
19.2978
19.75
23.1377
23.1384
23.1394
23.1401
22.681
20.4498
21.2057
21.2064
21.805
19.5295
19.5303
23.6475
23.651
23.6491
23.6539
22.7813
21.3041
20.7812
20.7821
20.1123
20.1128
24.8428
24.8432
23.344
22.1448
24.8394
25.9163
25.9168
25.9177
22.287
19.0914
19.0924
19.675
18.3429
18.3435
19.5168
23.6519
19.7712
19.418
19.4185
20.1028
19.3687
19.3692
19.3697
19.3631
19.3612
19.3616
24.0803
24.0808
24.0813
23.9674
19.4265
19.4268
19.4273
20.6968
20.6975
20.698
19.6514
19.6518
22.2698
22.2716
22.2707
22.2724
20.4373
18.9346
19.1705
20.1442
20.143
20.1469
22.585
22.5854
22.5857
21.9626
20.6839
20.684
20.1351
20.1362
20.2193
20.2191
20.8925
22.2995
22.3
22.3005
21.6734
21.6737
24.9626
20.7743
20.7751
20.926
21.7904
21.9564
21.9575
20.7345
20.7357
18.2708
18.2707
18.2706
18.2712
18.2717
18.2722
23.6523
23.6545
23.6529
19.3259
19.1748
19.1755
21.3784
22.0612
23.5003
22.6519
20.9085
25.6193
25.6195
25.6193
22.785
22.7862
22.7867
23.0263
22.6461
22.6465
22.6607
22.6638
22.6613
22.6643
22.6618
22.6668
22.6661
23.5709
23.57
23.6174
22.0031
19.9563
19.5628
19.5628
19.5631
22.7486
22.3115
22.4722
22.4747
22.4726
22.475
22.4729
22.2843
23.0216
23.024
23.1722
21.0268
21.027
21.8382
19.5888
19.5859
19.5889
19.5872
19.5891
20.1325
20.1339
17.2729
19.0504
22.2459
22.2456
19.8649
19.4342
21.3019
21.3021
21.3021
21.0218
20.7833
20.7834
23.1751
23.1753
23.1753
20.5865
18.6827
18.6825
18.6826
22.2479
22.2482
22.2485
22.2487
22.4149
22.5208
22.5208
19.344
22.286
22.2854
23.5049
23.5045
22.2003
20.0181
22.1973
22.197
21.9903
23.7161
18.3582
18.2081
18.2081
24.0881
24.0884
24.0886
24.0886
20.817
20.8171
20.8172
20.8172
22.2137
22.4178
22.783
22.7828
20.7625
18.8007
18.9527
18.9531
21.9196
22.5173
22.5152
22.4138
22.4136
20.9721
18.6639
20.3727
20.3729
20.1541
19.8379
19.0968
19.0972
20.3517
20.3518
20.3518
20.3523
21.7012
21.7012
21.7011
21.2147
20.1741
19.286
19.2862
18.8331
18.6726
18.6725
19.117
16.9353
15.4728
15.4753
15.4703
15.4748
15.4717
15.4735
17.8746
32.1609
32.1605
32.1672
32.1605
32.1762
32.1544
24.3538
20.6936
20.382
20.3819
23.5302
23.5301
21.7175
20.3255
20.3265
20.3256
21.9964
21.9958
21.6602
20.6029
20.5951
20.2666
23.0571
23.0555
23.0678
23.0134
23.3331
23.3369
23.3332
23.337
22.8617
22.063
22.0641
22.3626
22.3623
23.0082
22.7228
21.0031
20.4693
20.8096
20.8067
20.8136
20.807
20.8142
20.8084
20.8893
20.8895
20.326
19.4163
19.3027
21.349
22.5081
13.1255
10.6814
10.6798
10.6797
18.8651
16.888
31.1261
15.3922
15.394
16.9031
18.2371
18.2388
20.5052
20.5071
18.8734
21.7982
23.3022
23.6244
23.6267
21.0669
18.8934
20.3361
19.1277
17.4401
17.4416
22.1546
23.2157
23.2176
18.4341
24.4612
24.4653
24.467
20.0604
19.7224
18.819
18.8201
18.8221
17.9895
17.5417
23.884
23.886
22.9508
27.1241
17.7245
14.6117
14.6128
14.9359
24.2859
25.9808
25.9826
22.6597
18.6339
17.0497
17.0509
17.0522
25.3574
26.0867
26.0109
19.2727
26.0862
23.5066
19.4263
20.926
20.9278
21.9219
21.4507
18.7209
21.4827
21.4039
18.5973
21.9008
21.9382
21.94
21.9416
20.1334
18.3314
18.3316
21.739
19.893
19.8941
19.894
19.8962
21.6414
21.4747
21.0002
21.0011
22.2296
22.2322
22.2333
20.8101
20.2645
22.3123
22.3126
22.3174
22.3144
22.3193
21.6645
19.297
19.2979
20.9915
19.9479
18.8858
18.8459
18.8466
19.1599
19.1609
24.0603
24.3897
23.5398
24.0701
24.0709
20.7059
20.7045
20.708
20.706
20.7095
23.4196
23.4204
23.421
22.8054
22.1043
23.1474
24.8435
24.8439
21.0788
21.0807
21.0807
21.082
21.0826
22.2514
21.0689
22.6761
22.6766
21.4332
18.3435
21.1542
24.9598
24.9598
24.9611
24.9609
24.602
19.3688
21.8484
23.7369
23.7383
23.7393
23.7412
23.7408
18.851
18.8515
23.6163
21.9618
20.6817
20.6761
18.8978
18.8984
22.2679
22.2694
22.2693
22.271
22.2707
22.1101
19.1338
20.4445
18.9425
17.5083
17.5088
17.5312
20.1518
22.585
22.5853
20.9639
19.9476
18.3917
18.3958
18.3948
23.0288
24.0581
24.0648
24.0888
22.299
22.2997
24.5266
23.4351
26.6433
26.6432
22.3423
23.9788
23.9778
21.7148
18.6849
18.6841
25.8505
25.8508
25.8511
22.2894
23.9215
23.9222
23.4353
23.6517
23.6537
23.6525
21.294
19.173
19.1744
19.175
22.5471
23.5
23.5002
19.6719
19.6071
19.6101
19.6085
19.6104
19.6089
23.0091
23.0497
23.0489
23.0114
23.6933
19.932
18.852
18.8534
18.8524
20.5374
22.9605
24.5901
24.5878
24.596
24.5882
24.5964
20.7052
23.3929
23.3934
23.3933
22.7488
18.0187
18.02
18.0189
22.4735
21.3517
21.3539
21.3529
21.3551
21.3537
24.2085
24.2076
24.1707
22.5901
23.2379
23.2398
23.238
22.3209
20.5199
18.6221
18.0508
17.0744
17.0747
22.2455
20.2054
19.3256
19.4336
19.4342
19.4348
19.4355
22.1132
22.114
22.115
17.9289
17.929
17.9291
23.7459
23.746
23.7461
19.0845
17.4035
17.4037
17.4036
22.1001
22.466
18.2901
18.2901
18.2903
20.5601
19.7063
19.7044
19.7002
19.7045
19.7003
19.7046
19.7036
20.0374
23.717
23.721
23.321
20.2488
17.4652
17.4684
17.4653
24.6235
24.6239
24.6247
25.4582
25.4581
21.3541
18.681
18.6813
18.6812
18.6811
18.6811
19.6571
19.657
19.6574
22.5152
21.2654
22.4136
19.6317
18.6618
18.665
18.6619
19.5113
23.9306
23.929
23.9321
22.6652
20.9551
21.9262
21.927
20.587
21.6384
21.3936
19.5546
19.5559
25.1605
22.7399
17.2724
19.4911
19.491
19.4908
20.6706
23.9565
20.4497
17.9861
20.0287
18.2705
15.475
15.4733
20.6057
32.1541
30.4079
21.0831
21.5065
19.1887
19.1912
19.1896
23.0159
24.0866
20.8084
20.778
23.531
23.6915
23.6937
23.6915
23.6941
23.3802
21.4149
21.4153
23.425
23.4236
20.266
20.2668
20.2684
20.2673
20.2695
20.2696
20.2706
21.938
22.6606
22.926
22.9244
23.0101
23.0072
23.0102
23.0073
23.0194
20.1159
18.9812
18.9874
20.2878
18.7625
18.7626
19.6194
20.8597
20.862
20.7094
20.7101
19.3027
19.3027
22.8514
22.5097
13.9262
11.7822
10.6797
10.6779
18.865
20.6578
31.1261
30.5876
25.9583
17.9577
23.1472
22.1866
20.2997
21.5686
21.571
21.5734
21.4673
23.6244
23.6266
22.9203
19.5178
16.597
18.7554
21.2416
21.2436
21.2456
19.9302
21.5502
24.2919
24.377
24.1681
24.4664
24.4672
20.1118
20.571
20.8207
18.5265
17.5404
17.5418
23.5322
23.7119
22.95
22.555
20.9291
21.2845
21.1167
20.6075
20.6909
17.5038
17.5053
19.7428
21.4964
21.4979
21.4993
18.3318
18.3328
21.5767
26.0833
26.0847
26.0879
26.0878
19.8024
17.7497
17.7507
19.4179
21.4504
17.9294
17.9308
18.5959
18.5976
18.5981
18.5999
19.1197
21.9411
21.932
19.9366
18.3323
18.3326
21.4069
21.4084
21.4108
21.411
21.4132
20.9006
21.8708
20.6944
18.5048
18.506
22.234
21.6084
22.6563
19.431
18.2265
21.0929
20.6947
19.9958
20.8458
19.9789
19.2978
20.9917
20.9937
20.9935
20.9956
20.9953
22.9483
22.9482
22.952
24.3901
24.3917
19.5347
19.536
20.1545
23.5267
23.5264
23.5282
23.528
21.2308
23.129
22.5899
22.5906
22.5922
21.578
19.2219
18.7235
19.0563
22.2411
22.2417
22.2423
21.4299
21.4152
22.7879
22.7883
22.5707
21.2929
21.9853
21.9868
21.9869
21.988
23.9804
23.9811
24.4107
22.8468
18.6463
19.8565
22.9482
18.5557
18.5542
22.7354
19.5004
18.8514
23.4413
23.441
23.386
23.3872
23.0638
18.9337
21.1504
18.8288
18.8305
18.8296
23.9284
19.0079
17.773
17.7735
19.8158
24.3776
24.378
24.3784
22.8435
19.6714
19.5183
19.5188
22.5648
18.3955
18.3896
18.3961
18.3904
18.3967
21.0649
24.5247
24.5255
24.5263
24.527
23.5243
19.1387
20.9203
24.072
24.0729
23.9773
25.1299
25.1312
25.1325
25.1339
17.8635
17.8658
20.0275
22.8358
22.5772
23.4354
19.5646
19.5657
22.9641
21.6643
19.1718
19.9838
19.9855
19.5246
19.5255
19.5252
20.173
20.173
20.896
20.8993
19.9775
22.6771
20.3333
20.2616
20.2621
23.6924
23.6919
20.9947
18.8536
19.6768
23.4995
23.8137
23.8147
24.1967
24.5894
24.588
24.5924
24.5883
23.939
20.8534
20.8541
22.3049
22.7486
20.7417
18.0473
18.0202
18.0197
18.0204
22.0434
24.2066
24.2055
24.2097
24.2075
24.2093
20.0567
18.0283
18.0289
18.4927
18.4936
18.4945
21.0158
20.0828
17.1551
17.0746
17.9289
19.852
19.3255
19.3257
21.7653
21.2901
21.4382
23.4134
20.5227
20.5228
22.6646
22.6647
22.6648
18.0096
17.9839
17.984
19.8356
23.7319
23.7375
23.7323
23.7412
23.7325
23.7398
22.7094
18.2902
19.8253
19.8236
19.7043
19.7
19.7044
20.3837
23.42
23.8824
23.8837
23.8835
23.8847
24.0866
24.0871
20.2846
20.685
22.8948
22.9034
22.8956
22.9078
25.2382
25.4581
20.9163
18.8795
18.6819
24.3147
27.2066
19.5526
17.8008
17.8009
17.8009
19.9852
19.2244
18.8182
20.4397
19.4117
18.6649
18.6639
23.9288
23.9311
23.929
23.9312
23.929
23.9321
23.9289
21.9289
17.9539
17.9554
17.954
17.9554
19.5546
22.3529
25.2155
25.2167
17.2686
16.981
16.9808
16.9813
23.4619
27.599
26.1635
25.8819
23.1244
19.3029
23.6887
24.6614
20.4244
20.4233
19.6009
19.1903
19.1887
19.1903
24.0849
24.0857
24.0866
24.0871
20.778
20.7776
22.5774
17.9912
17.9911
17.9911
19.7314
23.4233
23.4242
23.425
23.4258
18.4599
18.4965
28.6148
27.8204
24.6587
27.1012
25.3532
21.9937
19.2073
17.7022
17.7064
17.7028
17.7065
17.9391
21.3342
18.8122
18.8155
22.3622
22.3681
21.2538
20.2867
22.1162
22.1213
22.1162
20.6488
18.6461
21.4563
22.8513
22.8549
22.8514
22.8578
17.4406
13.6307
10.6795
10.6779
10.6778
20.2797
20.3611
21.2596
21.8238
21.8257
23.6459
23.6482
20.6445
19.0805
19.0982
19.1002
19.1368
19.1386
20.4648
22.4157
17.7611
16.959
16.5971
19.071
19.4254
21.2434
20.6067
19.5954
21.5502
21.1345
21.1364
23.6792
20.7018
16.3345
17.3799
21.1395
21.2319
22.3718
22.9399
22.9421
22.9442
20.5168
20.5185
22.6953
22.6972
22.6986
18.6253
18.3846
19.5015
18.8962
17.505
17.5064
17.5075
18.2642
21.4994
21.5003
19.4021
18.636
19.3965
17.2026
17.2038
17.4061
19.0848
20.5251
20.5259
20.528
19.035
16.9305
18.8891
20.9485
21.787
22.0078
26.6308
26.6352
17.9721
17.9744
19.1663
21.9971
21.9975
20.7194
16.9043
16.9056
16.9065
16.9074
20.9015
21.8718
21.8766
18.8975
21.8044
22.6544
22.6553
22.6564
22.1584
18.2251
17.5681
17.5689
19.9946
19.9975
19.9794
20.6591
17.5594
15.5422
20.663
20.9943
20.9962
17.5132
23.1331
23.1318
23.1366
24.4338
20.774
19.5354
20.4992
23.3521
22.4689
23.0687
22.7297
18.7494
18.75
23.045
23.0465
23.0464
19.9578
18.7229
18.7236
19.0565
18.8804
16.8193
16.82
21.4302
19.6344
19.519
19.5195
21.8119
21.293
19.5782
20.9833
20.871
27.8867
27.9031
27.9028
23.4668
18.5489
18.5543
18.5501
18.5552
18.5527
23.7331
23.7309
23.7372
23.732
21.9255
21.9238
23.3867
19.7877
18.5027
18.5044
18.5034
22.1512
24.4149
24.4191
24.4159
24.4211
24.4168
24.4219
21.4245
21.9058
23.6775
20.4863
18.1189
21.5514
24.199
28.9084
28.9093
21.8383
18.3958
18.395
21.9007
21.9009
20.2623
20.2385
20.2388
20.2391
23.9477
22.3814
17.1494
17.1498
23.9011
25.1261
25.1273
25.1286
23.0116
21.686
18.3765
17.6726
23.1037
23.5633
23.5636
18.3961
18.3981
18.3986
20.9162
20.9168
19.1717
19.1715
17.7461
26.1734
26.1783
25.041
20.6951
18.6509
18.649
18.6514
18.6493
20.8715
23.2767
23.2795
23.2771
23.2818
21.5324
21.5362
22.4956
21.7327
20.787
23.2222
19.189
18.4471
18.4445
18.4443
20.519
21.821
21.822
22.8576
22.5196
22.5696
20.1301
16.1777
19.8818
24.492
29.5783
29.5813
27.1766
17.658
17.6591
17.6592
17.6594
21.7633
24.5135
24.5169
25.2115
25.2583
25.2583
20.5893
20.1174
21.0156
21.2502
21.2496
17.0744
20.8008
20.8019
21.765
21.7652
21.7652
21.5816
20.3343
23.4142
23.6019
23.602
20.4378
19.0487
20.1254
24.1576
27.9888
27.9938
20.008
20.0116
20.0113
20.0127
22.4769
23.7342
23.7326
23.7372
23.6733
19.2687
19.2688
20.5388
21.2375
21.2372
19.0615
17.9434
17.9436
22.83
23.8838
23.8836
23.7835
24.0661
25.0181
25.022
20.7119
16.8945
16.8937
23.7594
25.2378
18.4429
16.0031
19.7764
29.9312
29.9316
29.9331
24.1423
24.1379
21.4536
18.6245
19.9839
18.8182
18.8186
22.9054
18.6655
18.6591
18.665
18.6593
18.6651
22.906
23.3254
18.7276
20.7204
20.2278
20.8967
19.9226
21.4058
22.4993
21.8667
22.5008
22.4984
20.6699
25.2181
25.2202
26.0446
29.0297
29.0237
29.035
29.0237
23.7103
19.2897
19.2901
19.2906
18.1338
25.7137
25.7138
25.7138
21.045
19.2438
19.1904
19.1887
19.3345
19.3347
20.9637
24.3055
24.3082
24.3057
24.3104
23.3495
23.3509
19.3197
18.1563
18.1564
19.5064
18.0157
21.4803
18.2807
15.4502
28.6222
32.4729
32.4661
32.4778
20.5529
19.8851
19.6701
17.7064
17.7027
17.7064
17.7027
21.0057
21.3864
18.8155
18.8122
19.7913
22.3634
22.3761
22.3444
20.2856
20.256
18.6482
18.6432
18.6481
18.6444
18.6482
22.2848
22.8568
22.8514
19.4503
18.37
18.0678
10.767
10.6761
21.5031
29.7528
22.8624
22.4219
22.4243
20.7971
19.6547
19.7225
18.2533
18.2552
19.5481
19.4028
19.8789
17.7128
17.7151
20.9965
20.9997
21.0005
21.0038
19.298
19.3015
19.4404
19.5955
19.5985
19.6
21.2383
23.6787
16.9106
16.2965
16.2971
16.1027
16.1042
21.3211
16.1072
22.2042
25.0972
25.0973
23.3453
20.8587
20.8601
22.1539
21.8416
18.3845
19.0583
22.509
22.5104
20.571
20.5725
18.3365
18.3378
20.4749
18.6346
18.636
18.8113
22.0703
22.0718
19.8956
19.9843
19.9855
19.9868
20.5271
19.2442
16.9287
16.9302
16.9306
16.9333
16.9342
25.7221
26.794
26.7994
25.6813
24.8835
22.5688
19.1289
21.3131
16.9047
16.9056
18.5173
16.9074
16.9086
16.9095
24.7535
24.7543
24.7554
22.3798
20.7921
20.7932
21.3245
20.2345
19.504
17.6564
19.6545
22.1582
21.9443
21.4432
20.4153
15.4181
14.0901
14.0906
17.8504
14.0915
22.1703
28.0337
28.0287
28.0382
28.0299
22.5065
20.1212
20.1227
19.3041
19.2835
22.4149
19.0512
18.5369
18.536
18.5382
23.0472
19.0659
18.7231
21.3393
18.8798
18.8804
21.0694
21.0697
18.8468
18.8475
19.7828
22.5937
22.5938
20.6016
15.8331
15.8358
15.8344
15.836
27.8245
27.9228
26.3676
27.2202
22.528
18.5548
18.5511
18.5557
18.5526
18.5568
20.9964
19.9631
19.9613
22.6374
22.6383
19.5363
21.2291
21.7982
19.0336
18.4498
18.4551
18.4509
18.4559
18.4545
22.4583
24.4171
16.7547
14.6944
14.6921
14.6956
14.6941
14.6974
14.6954
27.2351
28.91
28.911
26.2688
18.8479
18.8492
21.9018
22.4328
22.4333
22.4339
20.54
20.5404
21.9211
18.9414
17.1494
17.1497
17.1499
20.255
25.1277
25.1255
20.4392
16.7627
16.7629
16.7631
20.2774
18.8188
18.3477
19.9484
20.9149
20.9156
20.9165
19.7511
16.7129
14.6238
25.2857
26.1756
26.1786
19.6187
18.65
19.9471
22.916
22.9164
22.9165
20.7139
19.7744
19.775
19.7745
19.7742
22.9818
22.9821
22.9829
22.9832
22.9853
20.9681
22.1283
20.3184
18.4446
18.9527
22.655
23.5391
23.6919
23.3646
23.1391
20.9754
14.5327
18.8194
16.4345
28.8873
29.5807
29.5816
26.9913
24.9834
24.6786
18.8077
18.8098
18.9221
20.8607
21.7722
19.4894
16.9977
16.998
19.9623
20.3107
20.3109
22.2326
21.0186
19.6597
21.1877
21.1882
21.3162
18.061
16.9444
16.9445
17.3891
21.1906
19.7878
15.2234
15.2232
15.2236
15.2241
23.6243
28.4787
28.4868
28.478
28.4397
28.4364
28.4387
21.0271
23.733
23.2282
19.9248
19.2687
19.2688
20.1455
20.1455
20.1456
20.1474
20.1474
18.0645
17.5973
17.5975
20.9107
23.6618
25.0177
25.0219
25.0182
25.0221
23.7162
16.891
14.6651
14.6645
14.6652
14.6656
14.6655
28.3995
29.9329
29.9332
27.3654
20.8232
22.0905
22.9403
22.9385
22.9407
22.9389
22.9476
22.939
22.9476
22.9391
22.9482
19.7438
19.7516
20.5555
18.5575
18.5639
18.5583
18.5639
18.5622
22.4986
22.4988
22.5004
22.4996
14.7542
14.7528
14.7536
14.7528
14.7538
14.7543
27.6701
29.0247
29.039
29.0238
27.409
26.5061
23.7186
18.1309
18.1338
18.1346
18.1353
21.5346
21.5348
21.5349
21.5348
21.5347
20.8395
20.8395
23.8698
23.8598
23.6226
24.3057
22.7569
20.2075
18.1576
18.1564
18.1564
18.9245
16.6417
12.9542
12.9567
12.9597
12.9597
32.347
32.4797
32.4663
32.4783
21.2935
17.7073
17.7021
17.9343
22.2166
22.2168
22.2173
22.3711
22.3635
22.3711
22.3635
22.3771
21.8071
21.097
24.2754
24.2806
24.2755
19.1401
19.0558
19.4439
18.6464
18.6487
18.647
19.9689
22.8493
22.7621
16.703
10.6761
10.676
18.6252
27.1271
21.6815
18.3955
18.5399
20.8679
19.6413
19.6434
23.0574
23.0596
22.2613
20.1277
23.0904
23.0923
23.0951
19.1458
19.1482
19.9822
19.9522
19.7862
22.2682
16.8687
16.5235
16.5249
20.9917
18.8996
18.9012
18.9735
21.2241
21.2255
16.1019
16.1041
16.1056
16.107
24.7768
25.096
25.1009
25.0991
25.1049
25.1022
25.1067
23.8368
19.6261
22.5074
22.5089
22.5104
18.6867
18.6883
20.3531
19.4359
17.9881
17.9894
20.0524
19.7458
19.7469
22.2675
22.2689
21.0854
21.4671
21.4684
19.8175
20.8237
18.5583
16.9296
16.9322
16.9326
16.9344
22.2717
26.798
26.7947
26.7999
26.7963
18.7336
16.7374
21.4033
21.4044
21.4055
18.8401
17.1801
20.1537
20.2196
20.2187
20.2226
22.0409
23.1272
23.1285
23.1298
23.131
17.2425
17.1834
17.1842
22.1589
22.1584
17.1975
16.0935
15.8235
15.55
16.2831
14.0903
14.0909
14.0915
28.0047
28.0298
28.0359
21.639
20.73
20.7245
22.5037
22.5042
22.4191
19.0582
19.0601
21.0851
23.0144
18.8442
18.5366
18.5388
23.2163
25.6205
24.6818
24.6824
24.6818
20.2561
18.8097
18.8101
20.9765
20.9771
20.9733
21.1592
17.4195
15.8348
15.8328
15.8352
15.8349
27.9217
27.9249
27.9053
27.9057
23.2113
21.7469
20.7469
22.861
22.9544
18.5546
18.5583
21.6755
21.6759
21.676
19.5359
19.5365
21.0672
21.7999
21.7987
21.8029
21.7995
20.0604
23.6687
24.6562
24.3699
24.1181
20.9275
19.4242
15.924
14.6927
14.6959
14.695
14.6954
22.9975
28.9113
28.9112
25.3003
23.5284
20.1866
18.8725
18.873
21.9269
24.6959
22.7107
23.467
23.466
17.7888
17.1498
18.4597
19.9991
20.2541
19.865
19.8663
19.8674
20.9675
24.0445
18.3641
18.3479
18.3474
18.3483
18.3479
19.7381
15.9258
14.6202
14.6217
14.6217
14.6236
24.7349
26.1804
21.4829
19.617
20.5765
19.7446
19.7166
19.7168
21.8156
21.8153
20.9145
20.7003
20.5607
19.7734
18.591
17.2829
17.283
17.2833
18.3546
20.6054
23.902
23.9158
23.916
20.6954
22.1679
24.0772
24.1945
24.1949
19.0218
14.5398
14.4932
15.2885
13.5946
21.2898
29.5867
29.3165
22.8504
18.8299
18.2836
18.2836
23.3838
24.0046
24.0044
22.8733
21.56
18.1914
16.9978
17.34
23.3583
25.5447
25.5444
20.313
19.6596
19.6598
19.7931
19.7317
19.612
21.164
21.4325
21.4321
21.4327
20.7069
15.7806
15.2225
15.2231
15.2237
25.2355
28.4867
28.4788
28.4877
28.4785
23.2896
17.9137
17.9146
18.9888
19.0513
22.8881
25.7039
25.7041
25.7041
25.6412
21.9411
17.8749
17.875
18.1981
22.2516
22.4721
18.0987
17.5517
17.2793
16.686
16.612
16.6122
17.6167
17.1589
16.6781
14.6652
14.6656
16.282
16.2806
29.8648
29.9331
29.9346
24.337
20.823
20.8233
22.7627
18.1373
18.1427
18.1363
18.1428
18.1364
18.1429
18.8121
22.7983
23.5034
23.5021
21.554
19.9381
18.563
20.8729
21.4203
21.713
18.6398
18.6398
18.6398
23.4611
23.4109
17.751
16.9257
15.6466
14.754
14.7535
27.94
29.0326
29.0237
29.0313
28.6603
19.9335
17.969
17.9694
21.7088
21.7073
21.7088
20.7952
21.535
21.5351
21.2201
19.0761
20.5039
20.9514
20.9512
19.2481
19.6225
19.623
22.5502
19.8887
18.1585
19.8795
23.0072
20.6041
14.2732
12.9547
12.9576
12.9574
12.9602
31.6096
32.4688
32.4842
32.467
32.4963
32.4688
32.4904
20.182
18.11
18.1099
18.11
22.3636
22.3697
20.0596
18.9214
18.9227
21.097
21.0967
21.0972
24.2755
24.2807
24.2754
24.2806
24.2747
24.2808
24.2746
22.6249
22.8493
22.8482
18.7617
10.6754
10.676
10.6745
23.0219
18.5219
17.3767
18.0557
20.9075
20.8682
19.8115
22.6617
23.0575
22.7961
20.8842
20.8863
17.5517
17.5536
20.1783
20.9239
21.2544
21.0669
22.5428
23.3899
23.3915
19.6494
21.6533
22.4436
22.4456
21.5097
19.058
20.0741
20.0762
21.2259
16.226
16.1042
16.1056
16.1073
25.095
25.0987
25.0973
20.4244
20.4218
25.1028
25.1034
25.1071
20.0346
20.4169
19.047
19.0484
19.892
20.6291
20.3531
20.3545
20.3558
18.3342
20.0527
20.0541
20.0555
22.2675
22.2689
19.1394
18.7524
18.7536
19.3473
20.8238
17.6781
16.9313
16.931
24.8547
17.2909
26.7934
26.7945
26.8003
26.796
26.8032
25.1671
16.7368
16.3334
16.3344
19.1443
17.4868
17.1804
17.4279
17.429
17.4304
22.0392
22.0404
21.7197
21.2183
19.7068
19.3304
19.3313
19.1844
17.1842
22.1602
18.1719
16.0473
16.0478
18.7967
20.0122
17.2847
14.0905
20.5697
14.8606
28.0268
28.0345
28.0287
28.0375
23.4532
18.9114
22.001
22.5044
18.6719
19.0577
23.6151
23.6159
23.6166
23.4821
19.3993
25.6185
25.6198
25.62
23.1185
19.3736
19.3745
19.3748
20.9752
20.9775
20.9765
20.9811
19.002
18.8845
18.8852
18.3028
15.8358
15.8344
15.836
27.7631
27.9271
27.9298
27.9082
22.1798
19.1396
19.1402
23.126
23.126
23.127
22.6097
17.6573
17.6593
17.6599
20.3935
21.0784
17.7784
17.7792
21.7994
21.7992
21.427
20.3253
23.7865
24.6554
24.6584
24.6563
21.5591
18.3125
18.311
22.6337
16.0124
15.7551
14.6954
27.5376
28.9119
28.9117
22.6735
22.6735
26.2168
26.2161
26.2198
26.2169
25.4633
22.4326
21.7446
17.3442
17.1996
17.1996
20.9218
21.4438
18.1509
18.1495
21.5409
20.8554
20.8561
24.0448
24.889
26.0917
26.0921
26.0923
22.4018
21.7118
15.9395
14.6209
14.6208
14.623
14.6228
24.552
26.177
26.1816
26.1765
22.3647
17.6829
20.8854
21.0537
21.0543
20.0091
22.8013
19.6009
19.5552
19.5554
23.2283
23.23
20.2924
17.2832
21.1631
21.637
21.6373
22.7999
23.9159
23.916
22.2966
22.2968
22.8488
22.5753
17.8064
13.5917
13.5936
13.594
13.5944
26.7966
29.5871
29.5972
29.5847
29.5996
26.0715
21.8517
21.1558
20.663
17.6839
17.6874
17.6851
17.6876
20.3723
20.372
19.3728
19.372
21.2833
21.1406
23.116
23.6528
23.6547
23.653
23.6565
22.4976
20.2345
19.2389
19.057
16.0586
15.2213
15.222
15.2226
15.2232
26.326
28.4804
28.4868
28.4788
22.3713
23.4529
23.5299
23.5314
23.2846
19.6451
19.6465
19.6467
19.6469
23.4435
23.3062
19.6408
17.8749
17.8749
17.8751
18.1767
22.5345
22.5362
22.5389
23.6724
23.6723
19.7434
19.7843
23.1027
23.1021
18.2406
14.6649
14.6652
14.6675
14.6683
27.3183
29.9346
29.9349
29.935
24.1263
22.549
19.4033
18.1428
18.139
19.7798
22.4183
22.7719
22.7719
22.0731
21.0143
21.0144
24.7045
24.7029
22.3634
19.0895
19.0903
19.7367
21.9855
23.6626
24.8355
24.8355
24.8356
15.9481
14.7539
14.7507
14.754
14.7519
14.7535
28.2434
29.0236
29.033
29.0205
29.0224
29.0163
22.0354
18.7527
20.588
21.7081
21.3204
19.5795
19.5798
21.535
21.1577
19.0757
19.0761
19.1344
19.2487
19.2484
25.0219
25.1098
22.9449
25.4282
25.4329
25.4308
25.433
24.6466
19.0364
16.9855
12.9574
12.9603
12.9602
26.1824
32.4741
32.4661
32.484
32.467
32.4803
25.9021
17.4987
18.5874
22.3631
22.3613
22.3633
21.7503
20.0646
20.5748
21.6988
21.0967
21.097
24.2737
24.2786
22.8127
19.1669
19.1754
19.1677
19.1754
19.1677
19.1754
19.1751
22.8486
17.3558
10.6755
10.6745
10.6744
19.5022
22.7753
19.1749
24.2018
24.2042
19.3836
19.3857
19.9128
20.4632
20.766
20.8822
19.6517
21.6478
21.65
21.6522
21.8574
21.8594
19.09
19.0918
19.5669
22.7715
22.6215
22.1916
18.3187
18.3204
23.4809
23.4828
18.9531
20.3276
20.3295
17.1799
17.6614
21.8816
22.0489
25.0952
21.7134
20.8035
20.6582
24.4933
20.9491
24.9112
25.1047
25.1075
25.1075
25.1099
21.2457
22.3754
22.3768
19.8772
18.705
18.7065
17.9738
17.9751
18.6709
19.8022
19.8032
22.2689
21.8285
21.8297
21.8308
17.6507
19.335
19.3361
19.2182
21.5181
25.6555
26.7916
26.7922
26.7978
26.7948
23.3146
18.601
18.6023
19.6843
23.9609
24.0184
24.0194
21.0316
21.9521
20.9903
19.4757
18.3615
18.3275
18.3284
19.3088
19.3097
22.2568
18.7332
18.7338
18.7349
22.2621
22.3119
22.313
22.3144
22.4238
22.4244
20.0114
23.3715
23.372
21.2784
15.2219
25.6468
23.5838
23.5849
27.0533
24.0035
18.9109
18.6056
17.8221
17.8232
17.8238
17.8246
19.1
21.9051
23.4821
23.4827
20.8426
18.4041
18.4057
24.0469
24.0475
20.776
21.5111
19.1914
19.1918
19.1926
20.9771
20.9789
20.9776
16.8321
16.5938
21.3221
23.2825
23.2853
27.2472
27.8982
27.9319
21.3151
21.3182
23.2986
20.8593
20.8612
23.1261
18.89
17.5764
17.577
20.4224
22.2813
22.2814
22.2137
19.107
20.9757
21.797
19.3038
19.3045
21.3194
22.2339
21.9672
24.4693
24.6583
21.9587
18.4544
23.2822
23.8109
23.812
23.8113
28.7191
28.9114
28.9124
25.9378
25.6484
25.6491
21.2715
20.5238
20.524
23.705
22.0634
19.3337
19.3342
19.4616
22.8089
22.8087
22.8128
22.809
18.5506
18.151
22.2126
25.0396
22.5512
18.7164
18.7174
23.6051
26.092
26.0924
25.2762
22.2858
20.6547
20.6581
20.6595
18.8232
20.726
26.1758
26.1812
26.1763
26.1805
23.2209
17.6812
17.6814
17.6816
18.2492
20.0089
23.2289
23.2315
23.2294
23.2336
23.2298
23.2351
22.2154
19.1775
19.1784
20.4094
24.3622
24.3607
21.0481
20.4582
22.323
22.8484
22.8486
22.8252
19.8873
16.604
18.7585
18.7584
18.7584
25.9673
23.728
21.0468
21.0481
23.2174
25.772
20.6647
19.1105
19.1108
19.5266
20.0861
21.9324
21.9327
21.4514
18.8557
18.8562
22.8526
23.4326
23.4327
23.4328
21.9878
20.7802
23.6538
23.6531
20.6265
20.6159
20.411
19.508
19.509
19.1589
15.2225
15.2231
21.6191
28.0476
28.0536
21.1057
21.1064
21.1058
23.5298
23.5313
23.5301
23.5316
22.8186
20.9152
21.9126
21.9129
21.9131
18.0848
17.8756
17.8756
21.8819
21.882
21.882
18.1768
18.1784
20.6205
23.6722
23.4313
17.7462
17.7463
17.7463
22.8472
23.8375
23.8373
23.8376
17.5799
15.0397
23.3997
29.839
29.9364
29.9351
23.4668
22.5485
23.2953
23.4707
23.4708
22.4684
21.6799
20.5933
20.5933
20.5934
23.0653
24.7054
24.7029
24.7102
24.703
24.712
21.6755
19.4017
21.9856
21.4333
18.0615
17.6104
17.3729
17.3711
22.6465
22.6598
22.6559
25.5417
27.033
29.0229
29.0316
29.023
29.0362
29.0205
19.3698
17.8999
17.9
19.959
19.9585
19.9589
22.7301
19.8679
18.4802
18.4819
19.9035
22.9795
21.4857
23.895
25.1123
25.1097
25.1124
21.7515
21.7588
21.7577
23.8808
24.0892
19.0251
18.9065
18.9059
20.2127
24.8774
32.4604
32.4731
32.4628
28.5697
28.5662
28.6631
18.8252
17.4148
17.4148
17.4148
19.3432
19.3428
19.3428
19.3433
24.0605
24.06
24.062
24.0612
24.272
24.2745
20.5936
19.1717
19.1774
22.4802
22.4801
22.4804
21.5363
21.8399
21.8396
20.9937
12.4109
10.6747
10.6744
10.673
18.4078
20.8153
18.331
18.6347
24.3335
24.1288
19.3855
19.7047
20.8387
20.8409
18.5356
17.8461
20.6286
17.5368
16.9985
20.123
20.465
19.09
22.7956
25.0263
25.0284
24.0936
24.0953
23.2986
20.89
23.4808
23.4827
18.8654
18.5706
17.1791
17.1804
17.1821
19.139
19.14
25.0954
25.1001
25.0989
25.1042
25.1016
20.0364
17.9853
17.9874
20.0905
20.0248
19.2871
19.3884
19.8438
20.5545
22.8372
22.8398
20.3941
20.8701
19.8027
17.5279
17.5292
20.9419
20.9434
20.7555
20.385
17.4846
17.486
17.898
14.88
14.2975
14.2991
14.3005
14.3019
26.7925
26.7935
26.7985
26.7951
26.8
23.7497
23.9989
24.0001
20.4504
19.4454
19.7069
24.0363
23.2456
18.3607
18.3616
19.0246
21.9786
22.4634
23.2538
24.6194
20.5646
20.2458
18.7347
18.736
22.3118
22.3127
20.708
17.3561
16.5922
16.5933
16.5941
16.5951
16.8591
15.2231
26.6076
27.0487
27.0502
27.052
23.4452
22.5827
20.2497
17.8226
19.2015
22.0223
22.0197
22.0227
21.7328
18.8115
18.4014
18.4026
18.4037
24.0462
24.0469
24.0476
23.7975
21.7539
20.4561
20.6227
19.1924
19.1935
19.2261
19.2277
20.7553
16.5912
16.5943
16.5945
16.5962
28.4268
28.4331
27.9848
20.4873
21.7905
23.2988
23.2992
22.9095
18.8901
18.8911
20.6702
24.3297
21.6298
20.2249
20.2256
22.213
20.9815
20.9771
21.2825
19.3069
21.3192
21.3192
19.9929
19.9942
19.9951
24.6349
24.6341
18.68
15.1066
15.1039
15.1071
15.1055
15.1069
28.8606
28.9126
28.9135
28.9134
25.0616
21.9056
21.4152
23.7508
23.7507
20.6546
19.3327
22.5189
22.8122
22.8084
22.8127
18.8297
18.1489
18.1507
18.1494
22.3463
25.0407
25.0409
25.0412
19.498
18.3086
18.309
18.5739
21.4999
17.5759
16.1363
16.1331
16.1363
16.134
16.136
24.9465
26.1761
26.1815
26.1745
24.8284
22.079
18.4505
17.6816
17.6821
18.2841
18.2845
18.5489
19.2323
22.6341
23.2329
23.23
23.2373
23.2304
23.2372
23.2306
19.2646
17.8498
17.8497
20.4592
21.3771
19.9409
15.8491
15.6269
15.6264
15.5526
15.5535
15.5544
15.5554
27.8888
28.1834
28.191
28.1817
28.1947
23.0006
22.1255
21.8659
24.3164
24.3165
24.3168
23.8269
19.9208
19.9205
20.0726
19.6125
19.3803
19.3706
19.3707
22.3397
20.7801
20.7805
23.6521
21.6473
16.9153
16.1792
17.6648
15.7375
15.2253
15.2248
15.2243
16.8972
15.9622
25.7943
28.0452
25.6316
26.351
26.3528
22.7106
19.8622
19.8613
19.8624
19.8616
21.1284
21.1288
19.233
20.5729
21.5949
21.595
21.595
18.7358
17.0178
17.0177
17.0179
22.1726
22.494
22.4943
23.5807
23.5805
21.0085
18.8073
18.8117
18.8077
18.813
18.8128
21.6789
16.632
28.4458
30.0922
29.9368
29.8917
29.8905
29.8892
27.2466
20.5537
18.7337
18.7342
22.6866
24.6081
24.8081
24.8079
24.8082
24.4952
18.6212
18.5939
18.5941
19.4015
19.4012
19.4016
20.6289
23.6643
23.6637
23.6646
23.6638
19.5538
14.3045
14.3037
14.3045
14.3053
14.3062
25.6294
29.0229
25.6642
22.2082
19.8065
19.0205
19.0204
22.732
25.5232
25.5236
25.5235
25.1996
24.5153
24.524
24.5259
24.5255
24.5284
18.9807
18.9853
18.9843
19.6474
19.6465
21.1083
23.8166
22.495
22.4951
26.0095
26.0099
24.1549
17.0364
17.0386
17.0392
17.0399
30.868
32.4756
32.4606
32.4765
25.3982
17.4154
17.4154
19.3077
21.4646
19.5407
23.0994
23.0994
23.4203
23.421
19.2829
18.6696
18.67
19.0222
19.0098
19.007
21.5431
22.6342
22.4223
22.2898
19.753
19.7535
19.7534
21.8399
21.8388
16.5447
18.4996
13.5661
10.672
27.535
20.3346
18.3308
21.474
24.3335
21.057
21.0593
20.3909
20.7562
18.7257
17.8443
17.8463
20.254
20.2559
16.9987
17.0002
20.6116
19.5122
18.3118
21.1735
23.8489
21.5318
18.2761
20.7131
18.2515
18.2532
18.3102
22.2371
22.2387
18.7294
23.0161
23.0182
23.0203
24.2688
25.0976
25.0973
22.8881
22.887
25.1033
19.9544
17.986
19.2795
19.2809
19.2824
19.284
22.8326
22.8356
22.8357
22.8386
21.5783
20.3942
21.2212
20.5642
17.5281
20.9394
20.941
19.2476
19.2495
20.6745
20.6757
20.6773
20.3364
19.5234
20.4027
20.404
20.3493
17.7182
24.4649
22.2967
22.2969
25.3443
22.7369
19.1045
19.1058
19.2766
19.941
19.4455
25.6693
25.6863
25.6873
23.6279
21.9129
21.9883
21.9893
21.3999
21.4006
24.6201
25.102
25.1001
21.6692
21.6705
18.6145
18.45
18.4506
18.1939
21.3312
21.3322
21.3727
21.3739
21.375
25.1827
26.6042
24.6051
24.4047
23.011
19.4462
19.4473
19.4476
21.2038
22.0193
22.0189
22.0242
22.0204
19.034
18.3981
18.3982
20.3288