/*--------------------------------*- C++ -*----------------------------------*\
  =========                 |
  \\      /  F ield         | OpenFOAM: The Open Source CFD Toolbox
   \\    /   O peration     | Website:  https://openfoam.org
    \\  /    A nd           | Version:  7
     \\/     M anipulation  |
\*---------------------------------------------------------------------------*/
FoamFile
{
    version     2.0;
    format      ascii;
    class       volScalarField;
    location    "1000";
    object      T;
}
// * * * * * * * * * * * * * * * * * * * * * * * * * * * * * * * * * * * * * //

dimensions      [0 0 0 1 0 0 0];

internalField   nonuniform List<scalar> 
160000
(
319.9
319.704
319.508
319.312
319.112
318.916
318.721
318.533
318.35
318.159
317.966
317.781
317.596
317.407
317.226
317.049
316.871
316.695
316.518
316.341
316.166
315.996
315.83
315.664
315.498
315.332
315.165
315.003
314.843
314.686
314.533
314.379
314.218
314.058
313.908
313.757
313.607
313.46
313.319
313.178
313.032
312.884
312.737
312.598
312.462
312.321
312.185
312.052
311.917
311.78
311.647
311.513
311.383
311.257
311.128
311.003
310.876
310.75
310.631
310.513
310.39
310.266
310.149
310.034
309.923
309.808
309.69
309.574
309.462
309.359
309.251
309.142
309.035
308.93
308.826
308.722
308.618
308.516
308.415
308.314
308.214
308.112
308.013
307.917
307.821
307.725
307.631
307.541
307.452
307.36
307.271
307.183
307.092
307.002
306.914
306.832
306.749
306.666
306.584
306.504
306.424
306.345
306.267
306.187
306.111
306.035
305.96
305.886
305.811
305.736
305.662
305.592
305.522
305.451
305.384
305.315
305.247
305.181
305.113
305.045
304.979
304.915
304.853
304.79
304.728
304.664
304.6
304.54
304.482
304.422
304.364
304.308
304.251
304.192
304.133
304.078
304.025
303.971
303.919
303.869
303.818
303.763
303.713
303.664
303.612
303.561
303.513
303.465
303.417
303.371
303.326
303.281
303.237
303.192
303.148
303.105
303.062
303.019
302.976
302.934
302.892
302.851
302.811
302.771
302.733
302.695
302.655
302.618
302.581
302.545
302.509
302.471
302.436
302.401
302.365
302.332
302.299
302.266
302.233
302.199
302.168
302.137
302.106
302.077
302.047
302.018
301.989
301.96
301.932
301.903
301.875
301.847
301.819
301.792
301.764
301.738
301.713
301.686
301.66
301.634
301.608
301.584
301.56
301.536
301.513
301.489
301.467
301.445
301.423
301.401
301.38
301.358
301.337
301.317
301.297
301.277
301.258
301.238
301.218
301.199
301.18
301.161
301.143
301.126
301.108
301.091
301.074
301.057
301.04
301.023
301.008
300.992
300.976
300.96
300.945
300.93
300.915
300.901
300.887
300.873
300.859
300.845
300.831
300.818
300.805
300.792
300.778
300.766
300.753
300.74
300.728
300.715
300.704
300.692
300.681
300.67
300.659
300.649
300.638
300.627
300.616
300.606
300.596
300.586
300.576
300.566
300.556
300.547
300.538
300.528
300.519
300.511
300.502
300.494
300.486
300.478
300.469
300.461
300.453
300.446
300.438
300.431
300.423
300.416
300.409
300.402
300.395
300.388
300.381
300.375
300.368
300.362
300.355
300.349
300.343
300.337
300.331
300.325
300.32
300.314
300.309
300.303
300.298
300.293
300.288
300.283
300.278
300.273
300.268
300.264
300.259
300.254
300.25
300.246
300.241
300.237
300.233
300.229
300.225
300.221
300.218
300.214
300.21
300.206
300.203
300.199
300.196
300.193
300.189
300.186
300.183
300.18
300.177
300.174
300.171
300.168
300.166
300.163
300.16
300.157
300.155
300.152
300.15
300.148
300.145
300.143
300.141
300.139
300.137
300.135
300.133
300.131
300.129
300.127
300.125
300.123
300.121
300.12
300.118
300.117
300.115
300.114
300.112
300.111
300.109
300.108
300.107
300.105
300.104
300.103
300.102
300.101
300.1
300.099
300.098
300.097
300.096
300.095
300.094
300.094
300.093
300.092
300.092
300.091
300.09
300.09
300.089
300.089
300.088
300.088
300.088
300.087
300.087
300.087
300.087
300.086
300.086
300.086
300.086
300.086
319.896
319.698
319.506
319.31
319.114
318.919
318.725
318.533
318.346
318.158
317.966
317.779
317.597
317.414
317.229
317.049
316.875
316.696
316.514
316.336
316.163
315.995
315.827
315.66
315.496
315.336
315.171
315.005
314.845
314.686
314.529
314.374
314.217
314.059
313.908
313.759
313.605
313.462
313.325
313.178
313.028
312.884
312.738
312.599
312.462
312.321
312.183
312.052
311.919
311.78
311.643
311.511
311.384
311.255
311.128
311.004
310.877
310.752
310.631
310.51
310.389
310.268
310.149
310.035
309.921
309.804
309.69
309.578
309.467
309.358
309.249
309.14
309.034
308.931
308.827
308.722
308.618
308.516
308.415
308.314
308.213
308.113
308.014
307.919
307.823
307.725
307.631
307.541
307.451
307.361
307.27
307.181
307.092
307.001
306.916
306.833
306.75
306.667
306.584
306.504
306.424
306.344
306.267
306.189
306.11
306.035
305.96
305.885
305.81
305.736
305.662
305.591
305.522
305.452
305.384
305.316
305.248
305.181
305.113
305.046
304.979
304.915
304.852
304.789
304.727
304.664
304.601
304.541
304.482
304.423
304.364
304.308
304.251
304.191
304.133
304.08
304.026
303.971
303.92
303.869
303.818
303.765
303.713
303.663
303.611
303.561
303.513
303.465
303.418
303.373
303.326
303.28
303.237
303.192
303.148
303.104
303.061
303.018
302.976
302.934
302.893
302.851
302.811
302.771
302.733
302.695
302.656
302.618
302.581
302.544
302.507
302.471
302.436
302.401
302.366
302.332
302.299
302.265
302.233
302.2
302.168
302.137
302.107
302.077
302.048
302.018
301.988
301.96
301.932
301.903
301.874
301.846
301.819
301.792
301.764
301.738
301.712
301.686
301.66
301.634
301.609
301.584
301.56
301.537
301.513
301.489
301.467
301.445
301.423
301.401
301.379
301.358
301.337
301.317
301.297
301.277
301.257
301.238
301.218
301.199
301.18
301.162
301.144
301.126
301.108
301.091
301.074
301.057
301.04
301.024
301.008
300.992
300.976
300.96
300.945
300.93
300.915
300.901
300.887
300.873
300.859
300.845
300.832
300.818
300.805
300.792
300.778
300.765
300.753
300.74
300.728
300.716
300.704
300.692
300.681
300.67
300.659
300.649
300.638
300.627
300.616
300.606
300.596
300.586
300.576
300.566
300.556
300.547
300.538
300.528
300.519
300.511
300.502
300.494
300.486
300.478
300.469
300.461
300.453
300.446
300.438
300.431
300.423
300.416
300.408
300.402
300.395
300.388
300.381
300.375
300.368
300.362
300.355
300.349
300.343
300.337
300.331
300.325
300.32
300.314
300.308
300.303
300.298
300.293
300.288
300.283
300.278
300.273
300.268
300.264
300.259
300.255
300.25
300.246
300.241
300.237
300.233
300.229
300.225
300.221
300.218
300.214
300.21
300.206
300.203
300.199
300.196
300.193
300.189
300.186
300.183
300.18
300.177
300.174
300.171
300.168
300.166
300.163
300.16
300.157
300.155
300.152
300.15
300.148
300.145
300.143
300.141
300.139
300.137
300.135
300.133
300.131
300.129
300.127
300.125
300.123
300.121
300.12
300.118
300.117
300.115
300.114
300.112
300.111
300.109
300.108
300.107
300.105
300.104
300.103
300.102
300.101
300.1
300.099
300.098
300.097
300.096
300.095
300.094
300.094
300.093
300.092
300.092
300.091
300.09
300.09
300.089
300.089
300.088
300.088
300.088
300.087
300.087
300.087
300.087
300.086
300.086
300.086
300.086
300.086
319.899
319.702
319.505
319.31
319.113
318.917
318.727
318.533
318.344
318.158
317.966
317.778
317.598
317.418
317.232
317.052
316.873
316.689
316.511
316.336
316.162
315.992
315.823
315.659
315.496
315.335
315.173
315.01
314.846
314.684
314.529
314.375
314.218
314.059
313.906
313.758
313.608
313.464
313.323
313.177
313.029
312.884
312.74
312.602
312.46
312.318
312.184
312.053
311.919
311.78
311.642
311.51
311.383
311.256
311.13
311.005
310.88
310.755
310.63
310.507
310.389
310.27
310.15
310.033
309.921
309.803
309.687
309.576
309.467
309.357
309.25
309.144
309.034
308.93
308.827
308.722
308.618
308.516
308.413
308.312
308.213
308.113
308.014
307.918
307.823
307.728
307.634
307.54
307.448
307.359
307.269
307.179
307.091
307.003
306.917
306.835
306.752
306.668
306.586
306.504
306.424
306.344
306.266
306.189
306.111
306.034
305.958
305.884
305.811
305.736
305.663
305.592
305.521
305.452
305.384
305.316
305.248
305.18
305.112
305.045
304.979
304.915
304.852
304.788
304.726
304.663
304.602
304.542
304.482
304.423
304.366
304.308
304.248
304.19
304.134
304.08
304.026
303.972
303.92
303.869
303.818
303.765
303.712
303.662
303.611
303.561
303.513
303.465
303.419
303.373
303.327
303.281
303.237
303.192
303.146
303.103
303.061
303.018
302.976
302.934
302.893
302.852
302.811
302.772
302.733
302.694
302.656
302.618
302.581
302.544
302.507
302.471
302.435
302.4
302.366
302.333
302.299
302.265
302.233
302.2
302.168
302.138
302.108
302.078
302.048
302.018
301.989
301.96
301.931
301.902
301.873
301.846
301.819
301.792
301.765
301.738
301.712
301.686
301.659
301.634
301.609
301.584
301.56
301.536
301.513
301.49
301.467
301.445
301.422
301.401
301.38
301.359
301.337
301.317
301.297
301.277
301.257
301.238
301.218
301.199
301.181
301.162
301.144
301.126
301.108
301.091
301.074
301.057
301.04
301.023
301.008
300.992
300.976
300.96
300.945
300.93
300.915
300.901
300.887
300.873
300.859
300.845
300.831
300.818
300.805
300.791
300.778
300.765
300.752
300.74
300.728
300.716
300.704
300.693
300.681
300.67
300.659
300.648
300.637
300.627
300.616
300.606
300.596
300.586
300.576
300.566
300.556
300.547
300.537
300.528
300.52
300.511
300.502
300.494
300.486
300.478
300.469
300.461
300.453
300.446
300.438
300.43
300.423
300.416
300.409
300.402
300.395
300.388
300.381
300.375
300.368
300.362
300.355
300.349
300.343
300.337
300.331
300.325
300.32
300.314
300.308
300.303
300.298
300.293
300.288
300.283
300.278
300.273
300.268
300.264
300.259
300.254
300.25
300.246
300.241
300.237
300.233
300.229
300.225
300.221
300.218
300.214
300.21
300.206
300.203
300.199
300.196
300.193
300.189
300.186
300.183
300.18
300.177
300.174
300.171
300.168
300.166
300.163
300.16
300.157
300.155
300.152
300.15
300.148
300.145
300.143
300.141
300.139
300.137
300.135
300.133
300.131
300.129
300.127
300.125
300.123
300.122
300.12
300.118
300.117
300.115
300.114
300.112
300.111
300.109
300.108
300.106
300.105
300.104
300.103
300.102
300.101
300.1
300.099
300.098
300.097
300.096
300.095
300.094
300.094
300.093
300.092
300.092
300.091
300.09
300.09
300.089
300.089
300.088
300.088
300.088
300.087
300.087
300.087
300.087
300.086
300.086
300.086
300.086
300.086
319.9
319.702
319.505
319.307
319.11
318.914
318.724
318.532
318.341
318.152
317.964
317.783
317.601
317.418
317.233
317.052
316.872
316.69
316.512
316.334
316.163
315.991
315.823
315.661
315.494
315.331
315.174
315.01
314.843
314.685
314.53
314.375
314.219
314.062
313.906
313.757
313.608
313.465
313.325
313.177
313.028
312.882
312.74
312.601
312.461
312.322
312.186
312.052
311.916
311.78
311.645
311.509
311.382
311.257
311.128
311.003
310.879
310.755
310.632
310.51
310.391
310.271
310.15
310.034
309.92
309.804
309.687
309.575
309.466
309.355
309.247
309.144
309.038
308.933
308.826
308.718
308.616
308.514
308.41
308.312
308.213
308.113
308.015
307.921
307.826
307.729
307.634
307.54
307.449
307.358
307.267
307.179
307.091
307.004
306.92
306.835
306.75
306.669
306.588
306.504
306.422
306.343
306.265
306.188
306.112
306.035
305.958
305.884
305.81
305.736
305.664
305.593
305.521
305.452
305.384
305.316
305.249
305.181
305.111
305.045
304.98
304.916
304.851
304.789
304.726
304.663
304.601
304.541
304.482
304.424
304.366
304.307
304.247
304.19
304.134
304.08
304.027
303.973
303.921
303.869
303.816
303.764
303.714
303.663
303.612
303.561
303.512
303.465
303.42
303.373
303.326
303.281
303.236
303.192
303.147
303.104
303.06
303.017
302.976
302.935
302.893
302.852
302.811
302.771
302.732
302.694
302.656
302.618
302.581
302.544
302.506
302.471
302.436
302.401
302.366
302.333
302.299
302.265
302.233
302.201
302.168
302.137
302.108
302.078
302.048
302.018
301.988
301.959
301.93
301.902
301.874
301.846
301.818
301.791
301.765
301.738
301.712
301.685
301.659
301.633
301.609
301.584
301.56
301.536
301.513
301.49
301.467
301.445
301.423
301.401
301.38
301.358
301.337
301.317
301.297
301.277
301.257
301.238
301.218
301.2
301.181
301.162
301.144
301.126
301.108
301.091
301.074
301.057
301.04
301.024
301.008
300.992
300.976
300.96
300.945
300.93
300.915
300.901
300.887
300.873
300.859
300.845
300.831
300.818
300.804
300.791
300.778
300.765
300.752
300.74
300.728
300.716
300.704
300.693
300.681
300.67
300.659
300.648
300.637
300.627
300.617
300.606
300.596
300.586
300.576
300.566
300.556
300.547
300.537
300.528
300.519
300.511
300.502
300.494
300.486
300.478
300.469
300.461
300.453
300.445
300.438
300.431
300.423
300.416
300.409
300.402
300.395
300.388
300.381
300.375
300.368
300.362
300.355
300.349
300.343
300.337
300.331
300.325
300.319
300.314
300.308
300.303
300.298
300.293
300.288
300.283
300.278
300.273
300.268
300.264
300.259
300.254
300.25
300.246
300.241
300.237
300.233
300.229
300.225
300.221
300.218
300.214
300.21
300.206
300.203
300.199
300.196
300.193
300.189
300.186
300.183
300.18
300.177
300.174
300.171
300.168
300.166
300.163
300.16
300.157
300.155
300.152
300.15
300.148
300.145
300.143
300.141
300.139
300.137
300.135
300.133
300.131
300.129
300.127
300.125
300.123
300.122
300.12
300.118
300.117
300.115
300.114
300.112
300.111
300.109
300.108
300.106
300.105
300.104
300.103
300.102
300.101
300.1
300.099
300.098
300.097
300.096
300.095
300.094
300.094
300.093
300.092
300.092
300.091
300.09
300.09
300.089
300.089
300.088
300.088
300.088
300.087
300.087
300.087
300.087
300.086
300.086
300.086
300.086
300.086
319.9
319.705
319.506
319.304
319.108
318.912
318.721
318.53
318.338
318.151
317.965
317.788
317.608
317.414
317.227
317.05
316.873
316.693
316.516
316.335
316.159
315.989
315.823
315.66
315.494
315.333
315.176
315.011
314.847
314.687
314.526
314.371
314.219
314.06
313.903
313.756
313.613
313.469
313.322
313.172
313.027
312.883
312.739
312.6
312.463
312.324
312.189
312.055
311.916
311.778
311.644
311.511
311.381
311.255
311.129
311.002
310.879
310.756
310.631
310.511
310.392
310.272
310.152
310.035
309.921
309.804
309.686
309.572
309.464
309.355
309.248
309.144
309.038
308.931
308.826
308.718
308.614
308.513
308.412
308.31
308.21
308.113
308.016
307.921
307.826
307.729
307.634
307.541
307.449
307.357
307.268
307.18
307.092
307.005
306.92
306.836
306.751
306.669
306.587
306.505
306.422
306.34
306.265
306.188
306.111
306.035
305.959
305.884
305.81
305.736
305.664
305.594
305.524
305.452
305.381
305.315
305.25
305.181
305.111
305.046
304.98
304.915
304.852
304.789
304.725
304.661
304.601
304.541
304.482
304.424
304.366
304.307
304.247
304.189
304.133
304.079
304.026
303.974
303.922
303.869
303.816
303.765
303.713
303.662
303.613
303.562
303.513
303.466
303.419
303.373
303.327
303.281
303.236
303.191
303.147
303.103
303.06
303.017
302.976
302.935
302.893
302.852
302.811
302.771
302.732
302.694
302.655
302.616
302.58
302.543
302.507
302.472
302.436
302.401
302.367
302.333
302.299
302.266
302.234
302.202
302.169
302.138
302.107
302.077
302.048
302.018
301.988
301.959
301.93
301.901
301.873
301.846
301.818
301.791
301.765
301.739
301.712
301.686
301.659
301.633
301.608
301.584
301.56
301.536
301.513
301.49
301.468
301.445
301.423
301.402
301.38
301.358
301.337
301.317
301.297
301.277
301.257
301.237
301.218
301.199
301.181
301.162
301.144
301.126
301.108
301.091
301.074
301.057
301.04
301.024
301.008
300.992
300.976
300.96
300.944
300.93
300.915
300.901
300.887
300.873
300.859
300.845
300.831
300.818
300.804
300.791
300.778
300.765
300.752
300.74
300.728
300.716
300.704
300.693
300.682
300.67
300.659
300.648
300.637
300.627
300.616
300.606
300.596
300.586
300.576
300.566
300.556
300.546
300.537
300.528
300.519
300.511
300.503
300.494
300.486
300.478
300.469
300.461
300.453
300.446
300.438
300.431
300.423
300.416
300.409
300.402
300.395
300.388
300.381
300.375
300.368
300.362
300.355
300.349
300.343
300.337
300.331
300.325
300.32
300.314
300.308
300.303
300.298
300.293
300.288
300.283
300.278
300.273
300.268
300.264
300.259
300.254
300.25
300.245
300.241
300.237
300.233
300.229
300.225
300.221
300.217
300.214
300.21
300.206
300.203
300.199
300.196
300.193
300.189
300.186
300.183
300.18
300.177
300.174
300.171
300.168
300.165
300.163
300.16
300.158
300.155
300.152
300.15
300.148
300.145
300.143
300.141
300.139
300.137
300.135
300.133
300.131
300.129
300.127
300.125
300.123
300.122
300.12
300.118
300.117
300.115
300.114
300.112
300.111
300.109
300.108
300.106
300.105
300.104
300.103
300.102
300.101
300.1
300.099
300.098
300.097
300.096
300.095
300.094
300.094
300.093
300.092
300.091
300.091
300.09
300.09
300.089
300.089
300.088
300.088
300.088
300.087
300.087
300.087
300.087
300.086
300.086
300.086
300.086
300.086
319.901
319.709
319.511
319.306
319.109
318.911
318.716
318.525
318.338
318.155
317.968
317.787
317.603
317.413
317.23
317.046
316.867
316.693
316.519
316.341
316.164
315.99
315.82
315.658
315.496
315.331
315.172
315.011
314.851
314.69
314.527
314.37
314.215
314.059
313.904
313.757
313.613
313.468
313.321
313.172
313.027
312.882
312.74
312.602
312.463
312.324
312.188
312.054
311.918
311.78
311.642
311.511
311.383
311.254
311.127
311.003
310.878
310.754
310.633
310.512
310.392
310.275
310.155
310.035
309.921
309.803
309.684
309.571
309.464
309.355
309.249
309.144
309.035
308.928
308.825
308.718
308.613
308.511
308.411
308.311
308.212
308.113
308.016
307.921
307.826
307.73
307.636
307.542
307.448
307.356
307.268
307.182
307.092
307.004
306.92
306.835
306.751
306.67
306.586
306.504
306.422
306.342
306.265
306.187
306.111
306.035
305.96
305.886
305.811
305.735
305.663
305.593
305.524
305.453
305.382
305.315
305.249
305.182
305.113
305.046
304.981
304.916
304.852
304.789
304.724
304.662
304.601
304.541
304.482
304.423
304.365
304.305
304.246
304.189
304.134
304.079
304.025
303.973
303.921
303.869
303.816
303.765
303.714
303.662
303.612
303.563
303.514
303.466
303.419
303.373
303.327
303.281
303.236
303.19
303.146
303.103
303.061
303.018
302.977
302.935
302.893
302.851
302.811
302.771
302.732
302.693
302.654
302.616
302.579
302.543
302.508
302.473
302.437
302.401
302.366
302.333
302.3
302.267
302.235
302.202
302.169
302.138
302.107
302.077
302.047
302.017
301.987
301.958
301.93
301.902
301.873
301.846
301.818
301.791
301.765
301.739
301.713
301.686
301.659
301.633
301.608
301.584
301.56
301.537
301.513
301.491
301.468
301.445
301.423
301.401
301.38
301.358
301.338
301.317
301.297
301.277
301.257
301.237
301.218
301.199
301.181
301.163
301.144
301.126
301.108
301.091
301.074
301.057
301.04
301.024
301.008
300.992
300.976
300.96
300.944
300.93
300.915
300.901
300.887
300.872
300.858
300.845
300.831
300.818
300.804
300.791
300.778
300.764
300.752
300.74
300.728
300.716
300.705
300.693
300.682
300.67
300.659
300.648
300.638
300.627
300.616
300.606
300.596
300.586
300.576
300.566
300.556
300.546
300.537
300.528
300.52
300.511
300.503
300.494
300.486
300.477
300.469
300.461
300.453
300.446
300.438
300.431
300.423
300.416
300.409
300.402
300.395
300.388
300.381
300.375
300.368
300.362
300.355
300.349
300.343
300.337
300.331
300.325
300.32
300.314
300.308
300.303
300.298
300.293
300.288
300.283
300.278
300.273
300.268
300.264
300.259
300.254
300.25
300.245
300.241
300.237
300.233
300.229
300.225
300.221
300.217
300.214
300.21
300.207
300.203
300.199
300.196
300.193
300.189
300.186
300.183
300.18
300.177
300.174
300.171
300.168
300.165
300.163
300.16
300.158
300.155
300.152
300.15
300.148
300.145
300.143
300.141
300.139
300.137
300.135
300.133
300.131
300.129
300.127
300.125
300.123
300.122
300.12
300.118
300.117
300.115
300.114
300.112
300.111
300.109
300.108
300.106
300.105
300.104
300.103
300.102
300.101
300.1
300.099
300.098
300.097
300.096
300.095
300.094
300.094
300.093
300.092
300.091
300.091
300.09
300.09
300.089
300.089
300.088
300.088
300.088
300.087
300.087
300.087
300.087
300.086
300.086
300.086
300.086
300.086
319.902
319.708
319.511
319.311
319.113
318.913
318.715
318.523
318.335
318.151
317.968
317.787
317.599
317.409
317.226
317.047
316.869
316.693
316.519
316.346
316.166
315.991
315.824
315.662
315.498
315.331
315.169
315.008
314.849
314.689
314.527
314.367
314.213
314.059
313.908
313.76
313.613
313.465
313.319
313.174
313.029
312.882
312.74
312.602
312.462
312.322
312.188
312.053
311.917
311.781
311.644
311.512
311.384
311.254
311.127
311.004
310.879
310.755
310.634
310.512
310.393
310.276
310.156
310.032
309.916
309.803
309.686
309.57
309.461
309.355
309.25
309.142
309.034
308.928
308.822
308.716
308.613
308.511
308.411
308.312
308.212
308.113
308.018
307.922
307.824
307.73
307.636
307.542
307.449
307.357
307.269
307.183
307.094
307.005
306.919
306.837
306.754
306.668
306.584
306.504
306.422
306.341
306.264
306.186
306.111
306.035
305.96
305.887
305.811
305.735
305.664
305.594
305.524
305.453
305.383
305.316
305.249
305.181
305.113
305.046
304.98
304.915
304.852
304.789
304.723
304.662
304.602
304.541
304.481
304.422
304.364
304.306
304.247
304.19
304.134
304.079
304.025
303.972
303.92
303.868
303.817
303.765
303.715
303.663
303.613
303.563
303.514
303.466
303.42
303.374
303.327
303.28
303.235
303.19
303.145
303.103
303.061
303.019
302.977
302.935
302.892
302.85
302.811
302.771
302.732
302.693
302.654
302.616
302.579
302.544
302.507
302.472
302.437
302.402
302.367
302.334
302.3
302.267
302.235
302.202
302.17
302.138
302.108
302.077
302.046
302.016
301.987
301.958
301.929
301.901
301.873
301.846
301.819
301.791
301.765
301.739
301.712
301.685
301.659
301.633
301.608
301.584
301.561
301.537
301.514
301.491
301.468
301.446
301.423
301.401
301.38
301.359
301.338
301.317
301.297
301.277
301.258
301.237
301.218
301.199
301.181
301.162
301.144
301.126
301.109
301.091
301.074
301.057
301.041
301.024
301.008
300.992
300.976
300.96
300.944
300.93
300.915
300.901
300.886
300.872
300.858
300.845
300.831
300.817
300.804
300.79
300.777
300.765
300.752
300.74
300.728
300.716
300.705
300.693
300.682
300.67
300.659
300.648
300.638
300.627
300.616
300.606
300.596
300.586
300.576
300.566
300.556
300.546
300.537
300.528
300.52
300.511
300.503
300.494
300.486
300.477
300.469
300.461
300.453
300.445
300.438
300.431
300.423
300.416
300.409
300.402
300.395
300.388
300.381
300.375
300.368
300.362
300.355
300.349
300.343
300.337
300.331
300.325
300.32
300.314
300.308
300.303
300.298
300.293
300.288
300.283
300.278
300.273
300.268
300.263
300.259
300.254
300.25
300.246
300.241
300.237
300.233
300.229
300.225
300.221
300.218
300.214
300.21
300.206
300.203
300.199
300.196
300.193
300.189
300.186
300.183
300.18
300.177
300.174
300.171
300.168
300.165
300.163
300.16
300.158
300.155
300.152
300.15
300.148
300.145
300.143
300.141
300.139
300.137
300.135
300.133
300.131
300.129
300.127
300.125
300.123
300.121
300.12
300.118
300.117
300.115
300.114
300.112
300.111
300.109
300.108
300.106
300.105
300.104
300.103
300.102
300.101
300.1
300.099
300.098
300.097
300.096
300.095
300.094
300.094
300.093
300.092
300.091
300.091
300.09
300.09
300.089
300.089
300.088
300.088
300.088
300.087
300.087
300.087
300.087
300.086
300.086
300.086
300.086
300.086
319.902
319.705
319.509
319.312
319.113
318.915
318.72
318.526
318.334
318.148
317.964
317.783
317.598
317.409
317.226
317.049
316.872
316.69
316.514
316.343
316.17
315.997
315.829
315.662
315.497
315.334
315.168
315.004
314.847
314.686
314.525
314.368
314.215
314.059
313.906
313.759
313.612
313.467
313.322
313.174
313.029
312.884
312.742
312.603
312.463
312.323
312.186
312.051
311.915
311.778
311.646
311.514
311.383
311.254
311.128
311.004
310.881
310.758
310.637
310.514
310.393
310.275
310.154
310.032
309.915
309.801
309.685
309.57
309.46
309.355
309.25
309.14
309.03
308.925
308.822
308.717
308.613
308.512
308.413
308.313
308.213
308.115
308.016
307.919
307.824
307.73
307.637
307.542
307.447
307.357
307.27
307.183
307.095
307.007
306.922
306.836
306.753
306.669
306.585
306.502
306.42
306.341
306.263
306.186
306.111
306.036
305.961
305.888
305.811
305.737
305.664
305.593
305.524
305.454
305.385
305.317
305.249
305.179
305.112
305.046
304.98
304.916
304.853
304.788
304.722
304.662
304.603
304.543
304.482
304.421
304.363
304.306
304.249
304.19
304.132
304.078
304.025
303.971
303.92
303.869
303.816
303.765
303.715
303.664
303.612
303.563
303.515
303.468
303.42
303.373
303.327
303.281
303.236
303.189
303.145
303.102
303.061
303.019
302.977
302.935
302.892
302.851
302.811
302.771
302.731
302.692
302.655
302.617
302.579
302.543
302.508
302.473
302.436
302.401
302.367
302.334
302.301
302.267
302.235
302.203
302.171
302.139
302.108
302.076
302.045
302.015
301.987
301.958
301.929
301.901
301.873
301.846
301.819
301.791
301.765
301.738
301.712
301.685
301.659
301.633
301.608
301.584
301.561
301.537
301.514
301.491
301.468
301.445
301.423
301.401
301.38
301.359
301.338
301.317
301.297
301.277
301.258
301.238
301.218
301.199
301.181
301.163
301.145
301.126
301.108
301.091
301.074
301.057
301.041
301.024
301.008
300.992
300.976
300.96
300.944
300.93
300.915
300.901
300.886
300.872
300.858
300.844
300.831
300.817
300.804
300.79
300.778
300.765
300.752
300.74
300.728
300.716
300.705
300.693
300.682
300.67
300.659
300.648
300.638
300.627
300.616
300.606
300.596
300.586
300.576
300.565
300.556
300.546
300.537
300.528
300.52
300.511
300.503
300.494
300.486
300.477
300.469
300.461
300.453
300.446
300.438
300.431
300.423
300.416
300.409
300.402
300.395
300.388
300.381
300.375
300.368
300.362
300.355
300.349
300.343
300.337
300.331
300.325
300.32
300.314
300.308
300.303
300.298
300.293
300.288
300.283
300.278
300.273
300.268
300.264
300.259
300.255
300.25
300.246
300.241
300.237
300.233
300.229
300.225
300.221
300.217
300.214
300.21
300.207
300.203
300.199
300.196
300.193
300.189
300.186
300.183
300.18
300.177
300.174
300.171
300.168
300.165
300.163
300.16
300.158
300.155
300.152
300.15
300.148
300.145
300.143
300.141
300.139
300.137
300.135
300.133
300.131
300.129
300.127
300.125
300.123
300.121
300.12
300.118
300.117
300.115
300.113
300.112
300.111
300.109
300.108
300.106
300.105
300.104
300.103
300.102
300.101
300.1
300.099
300.098
300.097
300.096
300.095
300.094
300.094
300.093
300.092
300.091
300.091
300.09
300.09
300.089
300.089
300.088
300.088
300.088
300.087
300.087
300.087
300.087
300.086
300.086
300.086
300.086
300.086
319.9
319.704
319.509
319.309
319.113
318.916
318.719
318.527
318.337
318.153
317.965
317.778
317.593
317.406
317.225
317.05
316.869
316.689
316.516
316.345
316.171
315.999
315.829
315.66
315.495
315.332
315.166
315.005
314.846
314.685
314.526
314.369
314.215
314.059
313.905
313.759
313.613
313.47
313.326
313.174
313.026
312.883
312.743
312.602
312.462
312.323
312.185
312.049
311.914
311.777
311.645
311.517
311.387
311.254
311.129
311.005
310.881
310.759
310.638
310.515
310.393
310.274
310.155
310.034
309.915
309.797
309.682
309.569
309.459
309.353
309.248
309.14
309.031
308.926
308.821
308.715
308.612
308.512
308.414
308.315
308.213
308.114
308.016
307.919
307.824
307.73
307.637
307.543
307.449
307.358
307.269
307.182
307.095
307.009
306.923
306.836
306.753
306.669
306.585
306.502
306.42
306.341
306.262
306.187
306.111
306.035
305.961
305.887
305.812
305.739
305.667
305.594
305.524
305.454
305.385
305.316
305.247
305.178
305.112
305.045
304.979
304.915
304.852
304.788
304.724
304.662
304.602
304.542
304.482
304.423
304.365
304.306
304.247
304.188
304.132
304.078
304.024
303.972
303.92
303.869
303.816
303.764
303.714
303.663
303.613
303.565
303.516
303.467
303.42
303.374
303.327
303.281
303.236
303.19
303.146
303.102
303.06
303.018
302.976
302.935
302.893
302.852
302.81
302.77
302.73
302.692
302.654
302.617
302.58
302.543
302.507
302.472
302.436
302.401
302.367
302.334
302.301
302.267
302.236
302.204
302.171
302.139
302.107
302.075
302.045
302.015
301.986
301.958
301.929
301.901
301.873
301.846
301.818
301.791
301.765
301.738
301.712
301.685
301.659
301.633
301.608
301.585
301.561
301.538
301.514
301.491
301.468
301.445
301.423
301.401
301.38
301.359
301.338
301.317
301.297
301.278
301.258
301.238
301.218
301.2
301.181
301.163
301.144
301.126
301.109
301.092
301.074
301.057
301.04
301.024
301.008
300.991
300.975
300.96
300.944
300.93
300.915
300.901
300.886
300.872
300.858
300.844
300.831
300.817
300.804
300.79
300.777
300.765
300.753
300.74
300.728
300.716
300.704
300.693
300.682
300.67
300.66
300.649
300.637
300.627
300.616
300.606
300.596
300.586
300.576
300.566
300.556
300.546
300.537
300.529
300.52
300.511
300.503
300.494
300.486
300.477
300.469
300.461
300.453
300.446
300.438
300.431
300.423
300.416
300.409
300.402
300.395
300.388
300.381
300.375
300.368
300.362
300.355
300.349
300.343
300.337
300.331
300.325
300.32
300.314
300.308
300.303
300.298
300.293
300.288
300.283
300.278
300.273
300.268
300.263
300.259
300.254
300.25
300.246
300.241
300.237
300.233
300.229
300.225
300.221
300.217
300.214
300.21
300.206
300.203
300.199
300.196
300.193
300.189
300.186
300.183
300.18
300.177
300.174
300.171
300.168
300.165
300.163
300.16
300.158
300.155
300.152
300.15
300.148
300.145
300.143
300.141
300.139
300.137
300.135
300.133
300.131
300.129
300.127
300.125
300.123
300.121
300.12
300.118
300.117
300.115
300.114
300.112
300.111
300.109
300.108
300.106
300.105
300.104
300.103
300.102
300.101
300.1
300.099
300.098
300.097
300.096
300.095
300.094
300.094
300.093
300.092
300.091
300.091
300.09
300.09
300.089
300.089
300.088
300.088
300.088
300.087
300.087
300.087
300.087
300.086
300.086
300.086
300.086
300.086
319.898
319.699
319.506
319.312
319.113
318.915
318.722
318.529
318.339
318.153
317.966
317.779
317.592
317.409
317.226
317.046
316.87
316.69
316.518
316.347
316.175
315.998
315.825
315.66
315.494
315.327
315.166
315.006
314.844
314.684
314.528
314.369
314.212
314.059
313.91
313.762
313.613
313.468
313.326
313.176
313.027
312.884
312.743
312.602
312.461
312.323
312.185
312.048
311.912
311.776
311.645
311.518
311.387
311.256
311.13
311.005
310.881
310.76
310.638
310.515
310.394
310.274
310.154
310.034
309.914
309.795
309.68
309.569
309.46
309.354
309.249
309.141
309.033
308.925
308.82
308.714
308.611
308.512
308.413
308.313
308.214
308.116
308.018
307.919
307.823
307.73
307.637
307.543
307.449
307.359
307.271
307.181
307.094
307.008
306.924
306.839
306.754
306.67
306.584
306.501
306.42
306.341
306.262
306.187
306.111
306.035
305.96