/*--------------------------------*- C++ -*----------------------------------*\
  =========                 |
  \\      /  F ield         | OpenFOAM: The Open Source CFD Toolbox
   \\    /   O peration     | Website:  https://openfoam.org
    \\  /    A nd           | Version:  7
     \\/     M anipulation  |
\*---------------------------------------------------------------------------*/
FoamFile
{
    version     2.0;
    format      ascii;
    class       surfaceScalarField;
    location    "30";
    object      alphaPhi;
}
// * * * * * * * * * * * * * * * * * * * * * * * * * * * * * * * * * * * * * //

dimensions      [0 3 -1 0 0 0 0];

internalField   nonuniform List<scalar> 
99520
(
0
0
0
0
0
0
0
0
0
0
0
0
0
0
0
0
0
0
0
0
0
0
0
0
0
0
0
0
0
0
0
0
0
0
0
0
0
0
0
0
0
0
0
0
0
0
0
0
0
0
0
0
0
0
0
0
0
0
0
0
0
0
0
0
0
0
0
0
0
0
0
0
0
0
0
0
0
0
0
0
0
0
0
0
0
0
0
0
0
0
0
0
0
0
0
0
0
0
0
0
0
0
0
0
0
0
0
0
0
0
0
0
0
0
0
0
0
0
0
0
0
0
0
0
0
0
0
0
0
0
0
0
0
0
0
0
0
0
0
0
0
0
0
0
0
0
0
0
0
0
0
0
0
0
0
0
0
0
0
0
0
0
0
0
0
0
0
0
0
0
0
0
0
0
0
0
0
0
0
0
0
0
0
0
0
0
0
0
0
0
0
0
0
0
0
0
0
0
0
0
0
0
0
0
0
0
0
0
0
0
0
0
0
0
0
0
0
0
0
0
0
0
0
0
0
0
0
0
0
0
0
0
0
0
0
0
0
0
0
0
0
0
0
0
0
0
0
0
0
0
0
0
0
0
0
0
0
0
0
0
0
0
0
0
0
0
0
0
0
0
0
0
0
0
0
0
0
0
0
0
0
0
0
0
0
0
0
0
0
0
0
0
0
0
0
0
0
0
0
0
0
0
0
0
0
0
0
0
0
0
0
0
0
0
0
0
0
0
0
0
0
0
0
0
0
0
0
0
0
0
0
0
0
0
0
0
0
0
0
0
0
0
0
0
0
0
0
0
0
0
0
0
0
0
0
0
0
0
0
0
0
0
0
0
0
0
0
0
0
0
0
0
0
0
0
0
0
0
0
0
0
0
0
0
0
0
0
0
0
0
0
0
0
0
0
0
0
0
0
0
0
0
0
0
0
0
0
0
0
0
0
0
0
0
0
0
0
0
0
0
0
0
0
0
0
0
0
0
0
0
0
0
0
0
0
0
0
0
0
0
0
0
0
0
0
0
0
0
0
0
0
0
0
0
0
0
0
0
0
0
0
0
0
0
0
0
0
0
0
0
0
0
0
0
0
0
0
0
0
0
0
0
0
0
0
0
0
0
0
0
0
0
0
0
0
0
0
0
0
0
0
0
0
0
0
0
0
0
0
0
0
0
0
0
0
0
0
0
0
0
0
0
0
0
0
0
0
0
0
0
0
0
0
0
0
0
0
0
0
0
0
0
0
0
0
0
0
0
0
0
0
0
0
0
0
0
0
0
0
0
0
0
0
0
0
0
0
0
0
0
0
0
0
0
0
0
0
0
0
0
0
0
0
0
0
0
0
0
0
0
0
0
0
0
0
0
0
0
0
0
0
0
0
0
0
0
0
0
0
0
0
0
0
0
0
0
0
0
0
0
0
0
0
0
0
0
0
0
0
0
0
0
0
0
0
0
0
0
0
0
0
0
0
0
0
0
0
0
0
0
0
0
0
0
0
0
0
0
0
0
0
0
0
0
0
0
0
0
0
0
0
0
0
0
0
0
0
0
0
0
0
0
0
0
0
0
0
0
0
0
0
0
0
0
0
0
0
0
0
0
0
0
0
0
0
0
0
0
0
0
0
0
0
0
0
0
0
0
0
0
0
0
0
0
0
0
0
0
0
0
0
0
0
0
0
0
0
0
0
0
0
0
0
0
0
0
0
0
0
0
0
0
0
0
0
0
0
0
0
0
0
0
0
0
0
0
0
0
0
0
0
0
0
0
0
0
0
0
0
0
0
0
0
0
0
0
0
0
0
0
0
0
0
0
0
0
0
0
0
0
0
0
0
0
0
0
0
0
0
0
0
0
0
0
0
0
0
0
0
0
0
0
0
0
0
0
0
0
0
0
0
0
0
0
0
0
0
0
0
0
0
0
0
0
0
0
0
0
0
0
0
0
0
0
0
0
0
0
0
0
0
0
0
0
0
0
0
0
0
0
0
0
0
0
0
0
0
0
0
0
0
0
0
0
0
0
0
0
0
0
0
0
0
0
0
0
0
0
0
0
0
0
0
0
0
0
0
0
0
0
0
0
0
0
0
0
0
0
0
0
0
0
0
0
0
0
0
0
0
0
0
0
0
0
0
0
0
0
0
0
0
0
0
0
0
0
0
0
0
0
0
0
0
0
0
0
0
0
0
0
0
0
0
0
0
0
0
0
0
0
0
0
0
0
0
0
0
0
0
0
0
0
0
0
0
0
0
0
0
0
0
0
0
0
0
0
0
0
0
0
0
0
0
0
0
0
0
0
0
0
0
0
0
0
0
0
0
0
0
0
0
0
0
0
0
0
0
0
0
0
0
0
0
0
0
0
0
0
0
0
0
0
0
0
0
0
0
0
0
0
0
0
0
0
0
0
0
0
0
0
0
0
0
0
0
0
0
0
0
0
0
0
0
0
0
0
0
0
0
0
0
0
0
0
0
0
0
0
0
0
0
0
0
0
0
0
0
0
0
0
0
0
0
0
0
0
0
0
0
0
0
0
0
0
0
0
0
0
0
0
0
0
0
0
0
0
0
0
0
0
0
0
0
0
0
0
0
0
0
0
0
0
0
0
0
0
0
0
0
0
0
0
0
0
0
0
0
0
0
0
0
0
0
0
0
0
0
0
0
0
0
0
0
0
0
0
0
0
0
0
0
0
0
0
0
0
0
0
0
0
0
0
0
0
0
0
0
0
0
0
0
0
0
0
0
0
0
0
0
0
0
0
0
0
0
0
0
0
0
0
0
0
0
0
0
0
0
0
0
0
0
0
0
0
0
0
0
0
0
0
0
0
0
0
0
0
0
0
0
0
0
0
0
0
0
0
0
0
0
0
0
0
0
0
0
0
0
0
0
0
0
0
0
0
0
0
0
0
0
0
0
0
0
0
0
0
0
0
0
0
0
0
0
0
0
0
0
0
0
0
0
0
0
0
0
0
0
0
0
0
0
0
0
0
0
0
0
0
0
0
0
0
0
0
0
0
0
0
0
0
0
0
0
0
0
0
0
0
0
0
0
0
0
0
0
0
0
0
0
0
0
0
0
0
0
0
0
0
0
0
0
0
0
0
0
0
0
0
0
0
0
0
0
0
0
0
0
0
0
0
0
0
0
0
0
0
0
0
0
0
0
0
0
0
0
0
0
0
0
0
0
0
0
0
0
0
0
0
0
0
0
0
0
0
0
0
0
0
0
0
0
0
0
0
0
0
0
0
0
0
0
0
0
0
0
0
0
0
0
0
0
0
0
0
0
0
0
0
0
0
0
0
0
0
0
0
0
0
0
0
0
0
0
0
0
0
0
0
0
0
0
0
0
0
0
0
0
0
0
0
0
0
0
0
0
0
0
0
0
0
0
0
0
0
0
0
0
0
0
0
0
0
0
0
0
0
0
0
0
0
0
0
0
0
0
0
0
0
0
0
0
0
0
0
0
0
0
0
0
0
0
0
0
0
0
0
0
0
0
0
0
0
0
0
0
0
0
0
0
0
0
0
0
0
0
0
0
0
0
0
0
0
0
0
0
0
0
0
0
0
0
0
0
0
0
0
0
0
0
0
0
0
0
0
0
0
0
0
0
0
0
0
0
0
0
0
0
0
0
0
0
0
0
0
0
0
0
0
0
0
0
0
0
0
0
0
0
0
0
0
0
0
0
0
0
0
0
0
0
0
0
0
0
0
0
0
0
0
0
0
0
0
0
0
0
0
0
0
0
0
0
0
0
0
0
0
0
0
0
0
0
0
0
0
0
0
0
0
0
0
0
0
0
0
0
0
0
0
0
0
0
0
0
0
0
0
0
0
0
0
0
0
0
0
0
0
0
0
0
0
0
0
0
0
0
0
0
0
0
0
0
0
0
0
0
0
0
0
0
0
0
0
0
0
0
0
0
0
0
0
0
0
0
0
0
0
0
0
0
0
0
0
0
0
0
0
0
0
0
0
0
0
0
0
0
0
0
0
0
0
0
0
0
0
0
0
0
0
0
0
0
0
0
0
0
0
0
0
0
0
0
0
0
0
0
0
0
0
0
0
0
0
0
0
0
0
0
0
0
0
0
0
0
0
0
0
0
0
0
0
0
0
0
0
0
0
0
0
0
0
0
0
0
0
0
0
0
0
0
0
0
0
0
0
0
0
0
0
0
0
0
0
0
0
0
0
0
0
0
0
0
0
0
0
0
0
0
0
0
0
0
0
0
0
0
0
0
0
0
0
0
0
0
0
0
0
0
0
0
0
0
0
0
0
0
0
0
0
0
0
0
0
0
0
0
0
0
0
0
0
0
0
0
0
0
0
0
0
0
0
0
0
0
0
0
0
0
0
0
0
0
0
0
0
0
0
0
0
0
0
0
0
0
1.83939e-292
2.15225e-293
0
0
0
0
0
0
0
0
0
0
0
0
0
0
0
0
0
0
0
0
0
0
0
0
0
0
0
0
0
0
0
0
0
0
0
0
0
0
0
0
0
0
0
0
0
0
0
0
0
0
0
0
0
0
0
0
0
0
0
0
0
0
0
0
0
0
0
0
0
0
0
0
0
0
0
0
0
0
0
0
0
0
0
0
0
0
0
0
0
0
0
0
0
0
0
0
0
0
0
0
0
0
0
0
0
0
0
0
0
0
0
0
0
0
0
0
0
0
0
0
0
0
0
0
0
0
0
0
0
0
0
0
0
0
0
0
0
0
0
0
0
0
0
0
0
0
0
0
0
0
0
0
0
0
0
0
0
0
-6.59122e-280
-1.40983e-231
-1.14955e-232
0
3.2565e-279
0
0
0
0
0
0
0
0
0
0
0
0
0
0
0
0
0
0
0
0
0
0
0
0
0
0
0
0
0
0
0
0
0
0
0
0
0
0
0
0
0
0
0
0
0
0
0
0
0
0
0
0
0
0
0
0
0
0
0
0
0
0
0
0
0
0
0
0
0
0
0
0
0
0
0
0
0
0
0
0
0
0
0
0
0
0
0
0
0
0
0
0
0
0
0
0
0
0
0
0
0
0
0
0
0
0
0
0
0
0
0
0
0
0
0
0
0
0
0
0
0
0
0
0
0
0
0
0
0
0
0
0
0
0
0
0
0
0
0
0
0
0
0
0
0
0
0
0
0
0
0
0
0
0
0
0
-6.97495e-269
-5.43651e-216
-2.85064e-217
0
4.37529e-268
0
0
0
0
0
0
0
0
0
0
0
0
0
0
0
0
0
0
0
0
0
0
0
0
0
0
0
0
0
0
0
0
0
0
0
0
0
0
0
0
0
0
0
0
0
0
0
0
0
0
0
0
0
0
0
0
0
0
0
0
0
0
0
0
0
0
0
0
0
0
0
0
0
0
0
0
0
0
0
0
4.94066e-324
-9.88131e-324
2.47033e-323
-4.94066e-323
1.08694e-322
-2.2233e-322
4.69362e-322
-9.58487e-322
1.92192e-321
-3.98217e-321
7.62343e-321
-1.60275e-320
2.94265e-320
-6.27167e-320
1.10621e-319
-2.39296e-319
4.06339e-319
-8.92614e-319
1.46136e-318
-3.26273e-318
5.15954e-318
-1.17136e-317
1.79212e-317
-4.13949e-317
6.14256e-317
-1.44337e-316
2.08492e-316
-4.97902e-316
7.05344e-316
-1.70561e-315
2.40737e-315
-5.83796e-315
8.51587e-315
-2.02146e-314
3.30526e-314
-7.27222e-314
1.5561e-313
-2.87848e-313
9.82044e-313
-1.38534e-312
8.3332e-312
-8.96298e-312
8.71527e-311
-7.81598e-311
1.03403e-309
-8.42522e-310
1.32738e-308
-1.03283e-308
1.80158e-307
-1.37409e-307
2.55685e-306
-1.93774e-306
3.77855e-305
-2.86658e-305
5.81334e-304
-4.42726e-304
9.34091e-303
-7.14322e-303
1.5763e-301
-1.20706e-301
2.81651e-300
-2.15034e-300
5.38183e-299
-4.06873e-299
1.11275e-297
-8.26795e-298
2.52222e-296
-1.82443e-296
6.35833e-295
-4.43318e-295
1.81894e-293
-1.2028e-293
6.22371e-292
-3.72029e-292
-1.38296e-290
3.60542e-290
1.14881e-226
-6.44726e-183
-1.77909e-184
0
-9.38781e-226
0
0
0
0
0
0
0
0
0
0
0
0
0
0
0
0
0
0
0
0
0
0
0
0
0
0
0
0
0
0
0
0
0
0
0
0
0
0
0
0
0
0
0
0
0
0
0
0
0
0
0
0
0
0
-9.35414e-320
6.27463e-320
-1.16723e-317
1.72319e-317
-3.22337e-316
5.22269e-316
-5.18241e-315
8.73913e-315
-6.06614e-314
1.04759e-313
-5.70961e-313
1.00293e-312
-4.50175e-312
8.12975e-312
-3.16851e-311
5.69881e-311
-2.00877e-310
3.64816e-310
-1.16559e-309
2.1369e-309
-6.27092e-309
1.16022e-308
-3.15777e-308
5.89774e-308
-1.50057e-307
2.82964e-307
-6.77045e-307
1.28977e-306
-2.91705e-306
5.6163e-306
-1.20532e-305
2.34718e-305
-4.79668e-305
9.45338e-305
-1.84443e-304
3.68195e-304
-6.87558e-304
1.39126e-303
-2.49112e-303
5.11409e-303
-8.79615e-303
1.83355e-302
-3.03341e-302
6.42635e-302
-1.02401e-301
2.20672e-301
-3.39011e-301
7.43861e-301
-1.1029e-300
2.4663e-300
-3.53176e-300
8.05691e-300
-1.11527e-299
2.59799e-299
-3.47823e-299
8.28234e-299
-1.07322e-298
2.61487e-298
-3.28091e-298
8.18827e-298
-9.95441e-298
2.5474e-297
-3.00155e-297
7.88506e-297
-9.01015e-297
2.43241e-296
-2.69623e-296
7.48901e-296
-8.05705e-296
2.30517e-295
-2.40755e-295
7.10393e-295
-7.20644e-295
2.19572e-294
-2.16373e-294
6.81646e-294
-6.52811e-294
2.12932e-293
-1.98181e-293
6.70254e-293
-6.06455e-293
2.13e-292
-1.87475e-292
6.84347e-292
-6.25923e-292
2.22927e-291
-1.19122e-290
7.86878e-291
-2.56101e-288
1.58966e-289
-6.72986e-286
3.64139e-287
-1.84316e-283
1.02418e-284
-5.25941e-281
3.01506e-282
-1.56656e-278
9.29244e-280
-4.8772e-276
3.00431e-277
1.02069e-274
-2.41026e-273
2.54149e-191
-4.07501e-171
-2.28038e-173
3.32477e-274
-2.8376e-190
0
-1.96133e-273
0
0
0
0
0
0
0
0
0
0
0
0
0
0
0
0
0
0
0
0
0
0
0
0
0
0
0
0
0
0
0
0
0
0
0
0
0
0
0
0
0
0
0
0
0
0
0
0
0
0
0
0
-1.58668e-305
2.43801e-305
-5.37715e-304
9.90156e-304
-8.3478e-303
1.62918e-302
-8.68198e-302
1.74878e-301
-6.98136e-301
1.43473e-300
-4.59165e-300
9.73379e-300
-2.66838e-299
5.62143e-299
-1.38499e-298
2.94466e-298
-6.54702e-298
1.40325e-297
-2.8576e-297
6.17344e-297
-1.1644e-296
2.53501e-296
-4.46523e-296
9.80107e-296
-1.62297e-295
3.59258e-295
-5.62048e-295
1.25571e-294
-1.8639e-294
4.20522e-294
-5.94085e-294
1.3549e-293
-1.82684e-293
4.21459e-293
-5.43458e-293
1.26972e-292
-1.56869e-292
3.71479e-292
-4.40299e-292
1.05809e-291
-1.2046e-291
2.94044e-291
-3.21803e-291
7.98916e-291
-8.41122e-291
2.12605e-290
-2.15431e-290
5.55132e-290
-5.41597e-290
1.42443e-289
-1.3383e-289
3.59736e-289
-3.2552e-289
8.95409e-289
-7.80367e-289
2.19969e-288
-1.84625e-288
5.34022e-288
-4.31596e-288
1.28285e-287
-9.98155e-288
3.05314e-287
-2.2865e-287
7.20793e-287
-5.19439e-287
1.69008e-286
-1.17176e-286
3.94075e-286
-2.62815e-286
9.14968e-286
-5.86947e-286
2.11819e-285
-1.3072e-285
4.897e-285
-2.90835e-285
1.1323e-284
-6.47769e-285
2.62355e-284
-1.47504e-284
6.10426e-284
-9.54039e-284
1.45685e-283
-1.45187e-281
9.90891e-283
-3.43045e-279
1.59148e-280
-8.44165e-277
3.98329e-278
-2.15796e-274
1.04252e-275
-5.7442e-272
2.84642e-273
-1.59616e-269
8.12951e-271
-4.64213e-267
2.43568e-268
-1.41628e-264
7.677e-266
-4.54271e-262
2.55254e-263
8.97638e-261
-2.39083e-259
9.05643e-177
-9.07333e-155
3.28784e-154
2.12456e-201
-1.51509e-175
-2.61847e-299
-1.55175e-200
0
1.4653e-298
0
0
0
0
0
0
0
0
0
0
0
0
0
0
0
0
0
0
0
0
0
0
0
0
0
0
0
0
0
0
0
0
0
0
0
0
0
0
0
0
0
0
0
0
0
0
0
0
-1.0635e-301
1.24109e-301
-7.18361e-300
1.2704e-299
-1.36382e-298
2.6205e-298
-1.53148e-297
3.06802e-297
-1.25682e-296
2.58044e-296
-8.32751e-296
1.73711e-295
-4.64232e-295
9.94135e-295
-2.32985e-294
4.94061e-294
-1.06096e-293
2.25989e-293
-4.45366e-293
9.52223e-293
-1.74565e-292
3.74346e-292
-6.4438e-292
1.38652e-291
-2.25778e-291
4.87486e-291
-7.54725e-291
1.63688e-290
-2.41983e-290
5.27476e-290
-7.46601e-290
1.63793e-289
-2.22537e-289
4.91773e-289
-6.42243e-289
1.43183e-288
-1.80012e-288
4.05284e-288
-4.90825e-288
1.11777e-287
-1.30508e-287
3.0097e-287
-3.38856e-287
7.92616e-287
-8.60857e-287
2.04491e-286
-2.14232e-286
5.17638e-286
-5.23131e-286
1.28743e-285
-1.25476e-285
3.1503e-285
-2.96054e-285
7.59362e-285
-6.87786e-285
1.80525e-284
-1.57535e-284
4.23755e-284
-3.56059e-284
9.83231e-284
-7.95083e-284
2.25751e-283
-1.75551e-283
5.13425e-283
-3.837e-283
1.15787e-282
-8.30841e-283
2.59167e-282
-1.78429e-282
5.7639e-282
-3.80347e-282
1.27482e-281
-8.05649e-282
2.80726e-281
-1.69723e-281
6.16009e-281
-3.56015e-281
1.34875e-280
-7.44326e-281
2.94909e-280
-1.55308e-280
6.44949e-280
-3.23861e-280
1.41212e-279
-6.86033e-280
3.10167e-279
-3.76416e-279
6.94469e-279
-5.57417e-277
4.04455e-278
-1.35733e-274
6.38261e-276
-3.45692e-272
1.66406e-273
-9.18118e-270
4.55905e-271
-2.54897e-267
1.30954e-268
-7.41463e-265
3.95428e-266
-2.26362e-262
1.25857e-263
4.2336e-261
-1.1531e-259
1.42176e-170
-3.01046e-152
3.28606e-152
1.04771e-184
6.50546e-169
6.2109e-250
-9.98001e-184
0
-4.06514e-249
0
0
0
0
0
0
0
0
0
0
0
0
0
0
0
0
0
0
0
0
0
0
0
0
0
0
0
0
0
0
0
0
0
0
0
0
0
0
0
0
0
0
0
0
0
0
-1.00287e-298
7.14699e-299
-4.89936e-296
8.00407e-296
-1.296e-294
2.35769e-294
-1.69872e-293
3.27515e-293
-1.49992e-292
2.99926e-292
-1.01968e-291
2.09127e-291
-5.66338e-291
1.20067e-290
-2.77446e-290
5.86112e-290
-1.21654e-289
2.59261e-289
-4.86977e-289
1.04485e-288
-1.80742e-288
3.89682e-288
-6.28686e-288
1.36095e-287
-2.06869e-287
4.49208e-287
-6.48155e-287
1.41176e-286
-1.946e-286
4.2504e-286
-5.62272e-286
1.23216e-285
-1.57067e-285
3.45415e-285
-4.25424e-285
9.39808e-285
-1.12111e-284
2.48951e-284
-2.88032e-284
6.43763e-284
-7.23311e-284
1.62882e-283
-1.77797e-283
4.04034e-283
-4.28645e-283
9.8425e-283
-1.01464e-282
2.35823e-282
-2.36173e-282
5.56462e-282
-5.41034e-282
1.29468e-281
-1.22133e-281
2.97324e-281
-2.71871e-281
6.74616e-281
-5.97413e-281
1.5137e-280
-1.2967e-280
3.36155e-280
-2.78275e-280
7.39468e-280
-5.90769e-280
1.6125e-279
-1.24185e-279
3.48851e-279
-2.58612e-279
7.49262e-279
-5.34007e-279
1.59898e-278
-1.09391e-278
3.39273e-278
-2.22506e-278
7.16365e-278
-4.49625e-278
1.50614e-277
-9.03442e-278
3.15617e-277
-1.80604e-277
6.59597e-277
-3.59536e-277
1.37624e-276
-7.13197e-277
2.86856e-276
-1.41112e-276
5.98046e-276
-2.78686e-276
1.24794e-275
-5.5004e-276
2.61012e-275
-1.1027e-275
5.47708e-275
-6.19916e-275
1.1729e-274
-9.93333e-273
7.07542e-274
-2.51401e-270
1.22312e-271
-6.67066e-268
3.35823e-269
-1.85143e-265
9.72587e-267
-5.38496e-263
2.96682e-264
9.55362e-262
-2.64821e-260
5.72713e-165
-1.60106e-150
1.39601e-150
2.89324e-182
-9.74376e-163
1.22572e-236
-3.93173e-181
2.32579e-316
-9.82643e-236
8.47323e-321
-1.67091e-315
0
-7.27462e-320
0
-2.47033e-323
0
0
0
0
0
0
0
0
0
0
0
0
0
0
0
0
0
0
0
0
0
0
0
0
0
0
0
0
0
0
0
0
0
0
0
0
0
0
0
0
-1.61215e-292
2.29125e-292
-6.44884e-291
1.07584e-290
-1.06272e-289
1.90127e-289
-1.06571e-288
2.02567e-288
-7.91518e-288
1.53188e-287
-4.64044e-287
9.33617e-287
-2.34065e-286
4.7219e-286
-1.03887e-285
2.12426e-285
-4.15755e-285
8.59363e-285
-1.52716e-284
3.18447e-284
-5.21418e-284
1.09555e-283
-1.67138e-283
3.53518e-283
-5.06766e-283
1.07861e-282
-1.46287e-282
3.13218e-282
-4.04058e-282
8.70391e-282
-1.07292e-281
2.32543e-281
-2.74895e-281
5.99725e-281
-6.82065e-281
1.49838e-280
-1.64354e-280
3.63805e-280
-3.85748e-280
8.60888e-280
-8.839e-280
1.9905e-279
-1.98212e-279
4.50768e-279
-4.35832e-279
1.00194e-278
-9.41554e-279
2.19031e-278
-2.00174e-278
4.71761e-278
-4.195e-278
1.00284e-277
-8.67755e-278
2.10709e-277
-1.77419e-277
4.38233e-277
-3.58926e-277
9.03302e-277
-7.19285e-277
1.84749e-276
-1.42904e-276
3.75311e-276
-2.8173e-276
7.58019e-276
-5.51485e-276
1.52334e-275
-1.07269e-275
3.04853e-275
-2.07422e-275
6.07905e-275
-3.98985e-275
1.20875e-274
-7.63726e-275
2.39783e-274
-1.45564e-274
4.74856e-274
-2.76339e-274
9.39206e-274
-5.22818e-274
1.85654e-273
-9.86084e-274
3.66929e-273
-1.85519e-273
7.25616e-273
-3.48281e-273
1.43644e-272
-6.52839e-273
2.84892e-272
-1.22232e-272
5.66409e-272
-2.28752e-272
1.12992e-271
-4.28163e-272
2.26327e-271
-8.19767e-272
4.55777e-271
-5.89111e-271
9.43964e-271
-1.11722e-268
7.38346e-270
-2.95666e-266
1.53423e-267
-8.20212e-264
4.4809e-265
1.3839e-262
-3.89038e-261
-7.27744e-151
-4.73587e-149
3.75709e-149
1.01979e-168
-3.27587e-151
1.13994e-190
-2.3924e-167
-5.23326e-250
-1.20115e-189
9.71791e-291
4.45653e-249
1.21373e-292
-9.26261e-290
7.05204e-296
-1.88458e-291
-8.22883e-295
-1.25137e-293
-1.0604e-294
-7.5516e-294
-1.20448e-294
-5.63466e-294
-1.41333e-294
-5.01171e-294
-1.8124e-294
-5.33839e-294
-2.57366e-294
-6.83584e-294
-3.87615e-294
-1.02309e-293
-5.32543e-294
-1.58942e-293
-4.93331e-294
-1.96337e-293
-2.22546e-294
-1.42122e-293
-4.01481e-295
-4.93045e-294
-2.6567e-296
-7.26883e-295
-6.91737e-298
-4.23832e-296
-1.11486e-299
-1.04356e-297
-1.8799e-301
-1.64947e-299
-3.56725e-303
-2.72416e-301
-6.50911e-305
-5.10959e-303
-8.33182e-307
-9.49141e-305
-7.95646e-310
-1.32187e-306
-3.03312e-289
3.99326e-289
-1.57162e-287
2.4034e-287
-3.25196e-286
5.3488e-286
-3.9348e-285
6.80841e-285
-3.31046e-284
5.95445e-284
-2.12087e-283
3.98158e-283
-1.13681e-282
2.15114e-282
-5.26286e-282
1.01254e-281
-2.16865e-281
4.22692e-281
-8.12438e-281
1.60035e-280
-2.8098e-280
5.58386e-280
-9.07044e-280
1.81681e-279
-2.75688e-279
5.56194e-279
-7.94146e-279
1.61347e-278
-2.18026e-278
4.46059e-278
-5.72995e-278
1.18087e-277
-1.44736e-277
3.00567e-277
-3.52514e-277
7.38145e-277
-8.30421e-277
1.75442e-276
-1.89676e-276
4.04683e-276
-4.21131e-276
9.08122e-276
-9.1071e-276
1.987e-275
-1.92231e-275
4.2478e-275
-3.96724e-275
8.88932e-275
-8.01993e-275
1.82423e-274
-1.5905e-274
3.67726e-274
-3.09945e-274
7.2928e-274
-5.94343e-274
1.42512e-273
-1.12314e-273
2.74808e-273
-2.09441e-273
5.23661e-273
-3.85937e-273
9.87455e-273
-7.03635e-273
1.84508e-272
-1.27094e-272
3.4208e-272
-2.27696e-272
6.30097e-272
-4.05113e-272
1.15456e-271
-7.1656e-272
2.10705e-271
-1.26146e-271
3.83457e-271
-2.21233e-271
6.96654e-271
-3.86908e-271
1.26493e-270
-6.75284e-271
2.29768e-270
-1.17718e-270
4.17951e-270
-2.05085e-270
7.61955e-270
-3.57307e-270
1.39346e-269
-6.22819e-270
2.55809e-269
-1.08666e-269
4.71786e-269
-1.89839e-269
8.74633e-269
-3.32161e-269
1.63114e-268
-5.82264e-269
3.06168e-268
-1.02272e-268
5.7888e-268
-1.80139e-268
1.10319e-267
-3.31472e-268
2.12204e-267
-3.97005e-267
4.29445e-267
-9.04265e-265
5.70364e-266
1.4539e-263
-4.12802e-262
-3.38811e-149
-9.70937e-148
7.46472e-148
4.4591e-163
-3.78261e-149
2.55619e-188
-3.69724e-161
-1.0531e-227
-4.0159e-187
-1.49259e-256
1.14195e-226
-1.50942e-257
1.67461e-255
-2.8837e-260
2.62263e-256
3.03252e-259
5.06045e-258
4.00958e-259
3.07527e-258
4.62012e-259
2.3123e-258
5.38415e-259
2.0464e-258
6.657e-259
2.12231e-258
8.73308e-259
2.55493e-258
1.13803e-258
3.3886e-258
1.23679e-258
4.27856e-258
8.51116e-259
4.03891e-258
2.81384e-259
2.23056e-258
3.5195e-260
5.93514e-259
1.17143e-261
6.30378e-260
-1.19186e-267
1.95131e-261
-7.41599e-298
3.09533e-264
-2.20264e-295
1.45705e-295
-6.47994e-293
4.51004e-293
-2.13462e-290
1.85375e-290
-5.1085e-288
5.79237e-288
-5.28009e-286
6.93565e-286
-2.37512e-284
3.39463e-284
-5.53422e-283
8.41095e-283
-7.80851e-282
1.24741e-281
-7.53061e-281
1.25374e-280
-5.37646e-280
9.3734e-280
-3.12428e-279
5.517e-279
-1.53522e-278
2.76495e-278
-6.52068e-278
1.20893e-277
-2.52516e-277
4.67296e-277
-8.95744e-277
1.67362e-276
-2.94911e-276
5.55546e-276
-9.10268e-276
1.72717e-275
-2.65369e-275
5.06953e-275
-7.35168e-275
1.41375e-274
-1.94457e-274
3.76497e-274
-4.93167e-274
9.61629e-274
-1.20314e-273
2.36415e-273
-2.8325e-273
5.61235e-273
-6.45076e-273
1.29004e-272
-1.42471e-272
2.87824e-272
-3.05741e-272
6.24675e-272
-6.38813e-272
1.32148e-271
-1.30159e-271
2.72973e-271
-2.59056e-271
5.51519e-271
-5.04332e-271
1.09153e-270
-9.61782e-271
2.11925e-270
-1.79884e-270
4.0417e-270
-3.30383e-270
7.58136e-270
-5.96521e-270
1.40035e-269
-1.06004e-269
2.55008e-269
-1.85584e-269
4.58312e-269
-3.20454e-269
8.13865e-269
-5.46263e-269
1.42944e-268
-9.20287e-269
2.48593e-268
-1.53365e-268
4.28498e-268
-2.53098e-268
7.32886e-268
-4.14011e-268
1.24505e-267
-6.72038e-268
2.10334e-267
-1.08353e-267
3.53719e-267
-1.73733e-267
5.929e-267
-2.77287e-267
9.91636e-267
-4.41093e-267
1.65717e-266
-7.00022e-267
2.7703e-266
-1.10973e-266
4.63947e-266
-1.75903e-266
7.7933e-266
-2.79106e-266
1.31504e-265
-4.43692e-266
2.23176e-265
-7.07304e-266
3.81501e-265
-1.13147e-265
6.57659e-265
-1.81775e-265
1.14497e-264
-2.93488e-265
2.01572e-264
-4.76941e-265
3.59439e-264
-8.55744e-265
6.50707e-264
1.31467e-263
-3.50894e-263
-8.46793e-148
-1.56438e-146
1.18937e-146
-1.6992e-149
-1.13331e-147
8.41318e-171
-5.9491e-150
-9.24007e-204
-2.68286e-169
2.14204e-228
1.44398e-202
5.77408e-229
-3.09493e-227
2.09312e-231
-1.23671e-227
-4.57519e-230
-8.12954e-229
-6.26166e-230
-5.15653e-229
-7.35962e-230
-3.95736e-229
-8.48472e-230
-3.4833e-229
-9.90442e-230
-3.45276e-229
-1.14427e-229
-3.7334e-229
-1.19776e-229
-4.08378e-229
-9.58475e-230
-3.91813e-229
-4.64391e-230
-2.70728e-229
-1.04904e-230
-1.09384e-229
-7.62952e-232
-2.08635e-230
3.64164e-238
-1.35471e-231
-9.47283e-266
-3.45404e-234
-4.22358e-289
6.70263e-264
-1.54183e-287
2.18706e-287
-5.80775e-286
7.7288e-286
-2.29365e-284
2.99766e-284
-8.60738e-283
1.14054e-282
-2.624e-281
3.59031e-281
-5.76067e-280
8.20092e-280
-8.77053e-279
1.30146e-278
-9.49041e-278
1.46465e-277
-7.58009e-277
1.22627e-276
-4.83889e-276
7.95782e-276
-2.55885e-275
4.30665e-275
-1.16583e-274
1.9976e-274
-4.71446e-274
8.18935e-274
-1.70728e-273
3.03655e-273
-5.77434e-273
1.0224e-272
-1.82146e-272
3.24859e-272
-5.40736e-272
9.70524e-272
-1.52076e-271
2.74606e-271
-4.07424e-271
7.40035e-271
-1.0442e-270
1.90843e-270
-2.56994e-270
4.72765e-270
-6.09208e-270
1.12881e-269
-1.39489e-269
2.60512e-269
-3.09199e-269
5.82628e-269
-6.65008e-269
1.26551e-268
-1.39023e-268
2.67516e-268
-2.83018e-268
5.51335e-268
-5.61878e-268
1.10971e-267
-1.08953e-267
2.1846e-267
-2.06606e-267
4.21247e-267
-3.83635e-267
7.96619e-267
-6.98281e-267
1.47932e-266
-1.24731e-266
2.70054e-266
-2.18856e-266
4.85175e-266
-3.7759e-266
8.5868e-266
-6.41107e-266
1.4986e-265
-1.07221e-265
2.58137e-265
-1.76766e-265
4.39262e-265
-2.87508e-265
7.39036e-265
-4.61683e-265
1.23041e-264
-7.32515e-265
2.02875e-264
-1.14913e-264
3.31555e-264
-1.78372e-264
5.37503e-264
-2.74151e-264
8.65081e-264
-4.17519e-264
1.3834e-263
-6.30508e-264
2.19995e-263
-9.4485e-264
3.48215e-263
-1.40606e-263
5.49085e-263
-2.07959e-263
8.6345e-263
-3.05938e-263
1.35542e-262
-4.48062e-263
2.12648e-262
-6.5387e-263
3.33812e-262
-9.51555e-263
5.25037e-262
-1.38244e-262
8.2856e-262
-2.00674e-262
1.31408e-261
-2.91499e-262
2.0982e-261
-4.24086e-262
3.37999e-261
-6.19014e-262
5.50768e-261
9.10744e-261
-8.95097e-262
-1.54866e-146
-2.11647e-145
1.60859e-145
-8.5408e-148
-2.16982e-146
-1.50247e-150
-1.06715e-147
4.22438e-188
-3.30168e-151
3.43368e-203
-1.27018e-186
1.30869e-205
-7.56001e-202
-1.64794e-206
-4.12596e-204
-2.38581e-206
-4.32688e-205
-2.99331e-206
-2.62804e-205
-3.23359e-206
-1.87433e-205
-3.31216e-206
-1.48119e-205
-3.25597e-206
-1.25616e-205
-2.95293e-206
-1.09107e-205
-2.24939e-206
-8.95371e-206
-1.23391e-206
-6.12149e-206
-3.94363e-207
-2.95188e-206
-5.42971e-208
-8.22473e-207
-1.3649e-209
-1.00655e-207
1.09636e-235
-2.46035e-209
-2.98639e-265
-7.31647e-234
-1.25941e-283
1.0545e-263
-2.56861e-282
3.73044e-282
-5.36507e-281
7.32444e-281
-1.1438e-279
1.52345e-279
-2.35087e-278
3.13279e-278
-4.2652e-277
5.78271e-277
-6.29016e-276
8.76714e-276
-7.20921e-275
1.03756e-274
-6.38725e-274
9.50078e-274
-4.42874e-273
6.86509e-273
-2.5434e-272
3.9982e-272
-1.23957e-271
1.98902e-271
-5.28699e-271
8.61939e-271
-2.02281e-270
3.33811e-270
-7.07507e-270
1.17842e-269
-2.29377e-269
3.849e-269
-6.8814e-269
1.17615e-268
-1.97307e-268
3.34945e-268
-5.37517e-268
9.17048e-268
-1.39767e-267
2.3969e-267
-3.48349e-267
6.00554e-267
-8.34754e-267
1.44766e-266
-1.92926e-266
3.36739e-266
-4.31005e-266
7.57885e-266
-9.33034e-266
1.65423e-265
-1.96055e-265
3.50909e-265
-4.0068e-265
7.24776e-265
-7.97532e-265
1.4601e-264
-1.54868e-264
2.87337e-264
-2.93719e-264
5.53189e-264
-5.44853e-264
1.04325e-263
-9.8952e-264
1.92971e-263
-1.76159e-263
3.5048e-263
-3.07671e-263
6.25734e-263
-5.27763e-263
1.09925e-262
-8.89794e-263
1.90202e-262
-1.47589e-262
3.24433e-262
-2.40997e-262
5.4602e-262
-3.87744e-262
9.07444e-262
-6.15024e-262
1.49038e-261
-9.62503e-262
2.42089e-261
-1.48692e-261
3.89187e-261
-2.26917e-261
6.19687e-261
-3.42246e-261
9.77896e-261
-5.105e-261
1.53054e-260
-7.53365e-261
2.37728e-260
-1.10066e-260
3.66723e-260
-1.59242e-260
5.62145e-260
-2.28288e-260
8.56972e-260
-3.24397e-260
1.30001e-259
-4.57145e-260
1.96403e-259
-6.391e-260
2.957e-259
-8.86668e-260
4.44057e-259
-1.22121e-259
6.65626e-259
-1.67005e-259
9.96917e-259
-2.26867e-259
1.49323e-258
-3.06194e-259
2.23957e-258
-4.10791e-259
3.36806e-258
-5.47902e-259
5.08808e-258
7.74147e-258
-7.1591e-259
-2.32289e-145
-2.52292e-144
1.93184e-144
-2.07506e-146
-3.28618e-145
-9.1308e-148
-3.08903e-146
3.59473e-155
-1.07723e-147
5.44995e-173
-6.59675e-152
6.19201e-173
-2.99768e-171
-6.23691e-173
-4.86909e-171
-7.99316e-174
-1.02868e-171
-9.37321e-174
-8.67575e-173
-1.01742e-173
-6.37282e-173
-3.57953e-174
-1.76022e-173
5.21915e-174
2.26085e-173
1.00578e-173
4.29052e-173
8.63357e-174
4.11706e-173
4.06901e-174
2.54557e-173
9.3177e-175
9.6172e-174
6.8608e-176
1.87441e-174
-3.55613e-199
1.23909e-175
3.63178e-235
4.71664e-197
-6.66219e-265
-1.1916e-233
-5.31052e-279
1.55311e-263
-7.6699e-278
1.09685e-277
-1.13062e-276
1.52585e-276
-1.68232e-275
2.21382e-275
-2.42356e-274
3.17881e-274
-3.18095e-273
4.22191e-273
-3.5837e-272
4.85918e-272
-3.3282e-271
4.63591e-271
-2.49287e-270
3.60759e-270
-1.55279e-269
2.28227e-269
-8.14889e-269
1.22474e-268
-3.69798e-268
5.65974e-268
-1.48814e-267
2.30953e-267
-5.42093e-267
8.50219e-267
-1.81707e-266
2.87248e-266
-5.67336e-266
9.02415e-266
-1.66548e-265
2.66257e-265
-4.57697e-265
7.43426e-265
-1.21149e-264
1.95324e-264
-3.06734e-264
4.96558e-264
-7.45369e-264
1.21214e-263
-1.74404e-263
2.8503e-263
-3.93886e-263
6.47479e-263
-8.608e-263
1.42433e-262
-1.82366e-262
3.04088e-262
-3.753e-262
6.31299e-262
-7.5133e-262
1.27671e-261
-1.46567e-261
2.51922e-261
-2.78941e-261
4.85741e-261
-5.18661e-261
9.16416e-261
-9.43163e-261
1.69392e-260
-1.67943e-260
3.07117e-260
-2.93083e-260
5.46787e-260
-5.01812e-260
9.5692e-260
-8.43625e-260
1.64782e-259
-1.39391e-259
2.79454e-259
-2.26509e-259
4.67161e-259
-3.62312e-259
7.70428e-259
-5.70778e-259
1.25444e-258
-8.86311e-259
2.01812e-258
-1.35719e-258
3.21016e-258
-2.05094e-258
5.05255e-258
-3.05987e-258
7.87338e-258
-4.50997e-258
1.2156e-257
-6.56923e-258
1.86051e-257
-9.46215e-258
2.82488e-257
-1.34802e-257
4.25697e-257
-1.90043e-257
6.37139e-257
-2.65188e-257
9.47612e-257
-3.66401e-257
1.40141e-256
-5.01362e-257
2.06199e-256
-6.79561e-257
3.02046e-256
-9.12482e-257
4.40727e-256
-1.21372e-256
6.4102e-256
-1.59915e-256
9.29917e-256
-2.08649e-256
1.34653e-255
-2.6954e-256
1.94768e-255
-3.44536e-256
2.81697e-255
-4.35563e-256
4.07909e-255
5.92448e-255
-5.36094e-256
-3.04745e-144
-2.74865e-143
2.1329e-143
-3.69502e-145
-4.27809e-144
-3.26745e-146
-5.72559e-145
-1.56292e-147
-5.38438e-146
-2.22201e-149
-2.06579e-147
-2.91081e-152
-3.10231e-150
-5.88034e-155
-2.1587e-153
9.66028e-159
-1.66825e-155
-4.29567e-157
-4.13026e-156
-2.2766e-157
-1.54322e-156
-1.17224e-157
-6.40737e-157
-5.49804e-158
-2.7221e-157
-2.18171e-158
-1.10182e-157
-6.60983e-159
-3.91427e-158
-1.30566e-159
-1.09273e-158
-1.24938e-160
-2.03371e-159
-1.46236e-162
-1.87655e-160
-5.30442e-197
-2.44723e-162
8.44936e-235
2.05586e-195
-1.29397e-264
-1.8253e-233
-7.11085e-275
2.24036e-263
-8.07882e-274
1.1243e-273
-9.34203e-273
1.23273e-272
-1.08367e-271
1.39558e-271
-1.21925e-270
1.56268e-270
-1.27085e-269
1.64306e-269
-1.17152e-268
1.54171e-268
-9.15134e-268
1.24363e-267
-6.08968e-267
8.39305e-267
-3.434e-266
4.84084e-266
-1.66663e-265
2.39577e-265
-7.10681e-265
1.03775e-264
-2.71684e-264
4.01508e-264
-9.47753e-264
1.41303e-263
-3.0593e-263
4.59091e-263
-9.23925e-263
1.39314e-262
-2.63197e-262
3.98396e-262
-7.11862e-262
1.081e-261
-1.81728e-261
2.79823e-261
-4.49273e-261
6.86454e-261
-1.06763e-260
1.63693e-260
-2.44515e-260
3.76459e-260
-5.41095e-260
8.37136e-260
-1.1593e-259
1.8041e-259
-2.40961e-259
3.77569e-259
-4.86645e-259
7.68774e-259
-9.56564e-259
1.52543e-258
-1.83237e-258
2.95423e-258
-3.42549e-258
5.59193e-258
-6.25625e-258
1.03589e-257
-1.11769e-257
1.88031e-257
-1.955e-257
3.34813e-257
-3.35168e-257
5.85456e-257
-5.63662e-257
1.00633e-256
-9.30755e-257
1.70198e-256
-1.51015e-256
2.83482e-256
-2.40964e-256
4.65395e-256
-3.78347e-256
7.53685e-256
-5.85036e-256
1.20496e-255
-8.91343e-256
1.90311e-255
-1.339e-255
2.97163e-255
-1.98426e-255
4.5902e-255
-2.9024e-255
7.01905e-255
-4.19217e-255
1.06311e-254
-5.98229e-255
1.59596e-254
-8.43697e-255
2.37591e-254
-1.17647e-254
3.50977e-254
-1.6223e-254
5.14728e-254
-2.21303e-254
7.49874e-254
-2.94748e-254
1.08576e-253
-3.93573e-254
1.54272e-253
-5.20136e-254
2.20967e-253
-6.80258e-254
3.15096e-253
-8.80311e-254
4.47564e-253
-1.12684e-253
6.33631e-253
-1.42612e-253
8.94602e-253
-1.78326e-253
1.26052e-252
-2.20147e-253
1.77396e-252
-2.68e-253
2.49635e-252
3.51895e-252
-3.16922e-253
-3.62295e-143
-2.79672e-142
2.2112e-142
-5.44399e-144
-4.99259e-143
-7.05543e-145
-8.41592e-144
-7.25196e-146
-1.24359e-144
-5.35398e-147
-1.36532e-145
-2.73268e-148
-8.25354e-147
-1.65326e-151
-2.74449e-148
-5.0454e-155
-1.65293e-151
-1.15597e-155
-1.13515e-154
-3.68284e-156
-2.70333e-155
-1.5708e-156
-9.66343e-156
-6.52448e-157
-3.77566e-156
-2.24103e-157
-1.38596e-156
-5.58798e-158
-4.33384e-157
-8.73442e-159
-1.08369e-157
-5.07121e-160
-1.85494e-158
5.43221e-164
-1.20528e-159
-1.91978e-195
-3.38518e-162
-5.60575e-232
4.35548e-194
-2.30908e-264
8.99861e-231
-4.0795e-271
3.17131e-263
-3.8707e-270
5.21673e-270
-3.72722e-269
4.78718e-269
-3.58518e-268
4.50075e-268
-3.34751e-267
4.18004e-267
-2.92481e-266
3.67662e-266
-2.28356e-265
2.93942e-265
-1.57782e-264
2.05118e-264
-9.42959e-264
1.25139e-263
-4.88079e-263
6.60438e-263
-2.21238e-262
3.04447e-262
-8.92672e-262
1.24487e-261
-3.25977e-261
4.59168e-261
-1.09371e-260
1.55154e-260
-3.41273e-260
4.86545e-260
-9.99983e-260
1.43061e-259
-2.77206e-259
3.97579e-259
-7.31164e-259
1.05086e-258
-1.84351e-258
2.65451e-258
-4.4138e-258
6.43414e-258
-1.0273e-257
1.48598e-257
-2.30662e-257
3.34704e-257
-5.00747e-257
7.29512e-257
-1.05317e-256
1.54193e-256
-2.14965e-256
3.16649e-256
-4.26513e-256
6.32901e-256
-8.2377e-256
1.23314e-255
-1.55092e-255
2.3456e-255
-2.84966e-255
4.36148e-255
-5.11609e-255
7.93795e-255
-8.9839e-255
1.41572e-254
-1.54466e-254
2.47701e-254
-2.60269e-254
4.25602e-254
-4.30178e-254
7.1885e-254
-6.97986e-254
1.19461e-253
-1.11272e-253
1.95503e-253
-1.74406e-253
3.1534e-253
-2.68974e-253
5.01711e-253
-4.08398e-253
7.87939e-253
-6.10898e-253
1.2224e-252
-9.00754e-253
1.87461e-252
-1.30987e-252
2.84362e-252
-1.8796e-252
4.26942e-252
-2.66259e-252
6.34836e-252
-3.72502e-252
9.35411e-252
-5.08664e-252
1.36659e-251
-6.94669e-252
1.95664e-251
-9.37887e-252
2.81411e-251
-1.25204e-251
4.01952e-251
-1.65291e-251
5.70463e-251
-2.15868e-251
8.0492e-251
-2.78817e-251
1.1299e-250
-3.56089e-251
1.5785e-250
-4.49617e-251
2.19566e-250
-5.60906e-251
3.04276e-250
-6.91082e-251
4.20311e-250
-8.39825e-251
5.79131e-250
-1.00586e-250
7.9654e-250
-1.1849e-250
1.09476e-249
1.50621e-249
-1.35319e-250
-2.56798e-142
-2.84989e-141
2.0329e-141
-4.49588e-143
-4.17965e-142
-7.48958e-144
-7.40675e-143
-1.13197e-144
-1.35974e-143
-1.39801e-145
-2.17166e-144
-2.38883e-148
-1.99007e-145
-1.04751e-147
-2.29419e-146
-8.31207e-148
-1.81256e-146
-5.98696e-148
-5.9017e-147
-3.17323e-148
-2.52162e-147
-1.29363e-148
-9.09011e-148
-4.08311e-149
-2.84337e-148
-9.4124e-150