/*--------------------------------*- C++ -*----------------------------------*\
  =========                 |
  \\      /  F ield         | OpenFOAM: The Open Source CFD Toolbox
   \\    /   O peration     | Website:  https://openfoam.org
    \\  /    A nd           | Version:  7
     \\/     M anipulation  |
\*---------------------------------------------------------------------------*/
FoamFile
{
    version     2.0;
    format      ascii;
    class       volScalarField;
    location    "30";
    object      alpha.wetting;
}
// * * * * * * * * * * * * * * * * * * * * * * * * * * * * * * * * * * * * * //

dimensions      [0 0 0 0 0 0 0];

internalField   nonuniform List<scalar> 
49920
(
-6.6038e-317
9.34127e-317
1.74202e-316
1.52522e-316
1.56758e-316
1.31345e-316
1.47498e-316
2.00704e-316
1.77141e-316
1.45884e-316
1.54125e-316
1.76536e-316
1.55569e-316
9.2601e-317
1.28687e-316
-7.10327e-317
-6.22458e-317
-6.35863e-317
-6.51777e-317
-9.97807e-317
-1.01013e-316
-1.01589e-316
1.01841e-316
-1.01967e-316
3.06117e-316
3.06252e-316
3.06341e-316
3.06403e-316
3.06448e-316
3.06481e-316
3.06507e-316
3.06528e-316
3.06544e-316
3.06557e-316
3.06565e-316
3.06565e-316
3.06559e-316
3.06553e-316
3.06549e-316
3.06545e-316
3.06542e-316
3.06539e-316
3.06536e-316
-3.06534e-316
-3.06533e-316
-3.06531e-316
-3.0653e-316
-3.06529e-316
-3.06528e-316
-3.06528e-316
-3.06527e-316
-3.06527e-316
-3.06527e-316
-3.06527e-316
-3.06527e-316
-3.06528e-316
-3.06528e-316
-3.06529e-316
-3.0653e-316
-3.06531e-316
-3.06532e-316
-3.06533e-316
-3.06534e-316
-3.06535e-316
-3.06536e-316
-3.06538e-316
-3.06539e-316
-3.06541e-316
-3.06542e-316
-3.06544e-316
-3.06545e-316
-3.06547e-316
-3.06548e-316
-3.0655e-316
-3.06552e-316
-3.06554e-316
-3.06556e-316
-3.06557e-316
-3.06559e-316
-3.06561e-316
-4.3585e-316
1.03307e-316
1.20033e-316
1.33394e-316
1.35338e-316
1.02627e-316
1.55246e-316
1.12207e-316
1.45616e-316
1.34859e-316
1.27191e-316
1.40742e-316
1.59537e-316
1.10532e-316
1.11148e-316
1.02147e-316
6.14791e-317
5.91497e-317
5.97563e-317
6.13961e-317
6.29157e-317
9.58303e-317
9.66185e-317
9.70395e-317
-2.91835e-316
-2.92272e-316
-2.92556e-316
-2.92751e-316
2.92891e-316
2.92995e-316
3.25638e-316
3.25707e-316
3.25762e-316
3.25801e-316
3.25803e-316
3.2578e-316
3.25761e-316
3.25744e-316
3.2573e-316
3.25717e-316
3.25706e-316
3.25697e-316
3.25689e-316
3.25682e-316
3.25675e-316
3.2567e-316
3.25666e-316
3.25662e-316
3.25658e-316
3.25656e-316
3.25654e-316
3.25652e-316
3.25652e-316
3.25651e-316
3.25651e-316
3.25652e-316
3.25653e-316
3.25654e-316
3.25655e-316
3.25657e-316
3.25659e-316
3.25662e-316
3.25665e-316
3.25668e-316
3.25671e-316
3.25674e-316
3.25678e-316
3.25682e-316
3.25686e-316
3.2569e-316
3.25695e-316
3.25699e-316
3.25704e-316
3.25708e-316
3.25713e-316
3.25717e-316
3.25722e-316
3.25727e-316
3.25732e-316
3.25737e-316
-3.53477e-316
9.63729e-317
9.6779e-317
1.06307e-316
1.06721e-316
1.01848e-316
1.46876e-316
1.041e-316
1.06567e-316
1.53935e-316
1.55906e-316
1.52467e-316
1.25147e-316
1.04655e-316
9.59729e-317
1.27363e-316
9.20346e-317
5.80398e-317
5.69319e-317
5.76371e-317
5.90123e-317
9.03389e-317
9.15437e-317
-9.22538e-317
-2.78006e-316
-2.78765e-316
-2.79255e-316
-2.79589e-316
3.10918e-316
3.11113e-316
3.11261e-316
3.11376e-316
3.11467e-316
3.11525e-316
3.11526e-316
3.11494e-316
3.11467e-316
3.11443e-316
3.11422e-316
3.11404e-316
3.11388e-316
3.11374e-316
3.11362e-316
3.11352e-316
3.11343e-316
3.11335e-316
3.11328e-316
3.11322e-316
3.11318e-316
3.11314e-316
3.11311e-316
3.11309e-316
3.11307e-316
3.11307e-316
3.11307e-316
3.11308e-316
3.11309e-316
3.11311e-316
3.11313e-316
3.11316e-316
3.1132e-316
3.11323e-316
3.11328e-316
3.11332e-316
3.11337e-316
3.11343e-316
3.11348e-316
3.11354e-316
3.1136e-316
3.11367e-316
3.11373e-316
3.1138e-316
3.11386e-316
3.11393e-316
3.114e-316
3.11407e-316
3.11414e-316
3.11421e-316
3.11428e-316
3.11434e-316
-8.93796e-316
1.22002e-316
8.89957e-317
1.24623e-316
9.29944e-317
9.18049e-317
1.25447e-316
9.21307e-317
9.01119e-317
1.30157e-316
1.33201e-316
1.33684e-316
1.29325e-316
1.25544e-316
9.06002e-317
1.52714e-316
9.01023e-317
5.72167e-317
5.52485e-317
5.49657e-317
5.57913e-317
5.69102e-317
8.675e-317
1.75348e-316
-2.35316e-316
-2.65788e-316
-2.6647e-316
-2.96591e-316
-2.96954e-316
2.97221e-316
2.97423e-316
2.97579e-316
2.97703e-316
2.9779e-316
3.27583e-316
3.27544e-316
2.97736e-316
2.97709e-316
2.97685e-316
2.97664e-316
2.97646e-316
2.9763e-316
2.97617e-316
2.97605e-316
2.97594e-316
2.97585e-316
2.97578e-316
2.97572e-316
2.97566e-316
2.97563e-316
2.9756e-316
2.97558e-316
2.97557e-316
2.97557e-316
2.97558e-316
2.97559e-316
2.97562e-316
2.97565e-316
2.97568e-316
2.97573e-316
2.97578e-316
2.97583e-316
2.97589e-316
2.97595e-316
2.97602e-316
2.97609e-316
2.97617e-316
2.97625e-316
2.97633e-316
2.97641e-316
2.97649e-316
2.97658e-316
2.97666e-316
3.27443e-316
3.27452e-316
3.27462e-316
3.27471e-316
3.27481e-316
3.2749e-316
3.27499e-316
-1.26652e-315
2.91367e-316
8.51891e-317
1.16463e-316
8.62681e-317
8.57815e-317
1.16147e-316
-3.14777e-316
-1.95505e-316
-8.28399e-316
-1.18748e-316
-1.48399e-316
-9.50604e-316
-7.34473e-316
-5.52347e-316
-8.19652e-316
-4.92361e-316
-1.95666e-316
-1.34607e-316
-1.05833e-316
-1.06291e-316
-1.34935e-316
-1.64594e-316
-1.94436e-316
-2.24046e-316
-2.53367e-316
-2.54218e-316
2.83103e-316
-2.83551e-316
2.8388e-316
3.1254e-316
3.12751e-316
3.12918e-316
3.13043e-316
3.13072e-316
3.13034e-316
3.12999e-316
3.12969e-316
3.12942e-316
3.12919e-316
3.12898e-316
3.12881e-316
3.12865e-316
3.12852e-316
3.1284e-316
3.1283e-316
3.12822e-316
3.12816e-316
3.12811e-316
3.12807e-316
3.12805e-316
3.12803e-316
3.12804e-316
3.12805e-316
3.12807e-316
3.1281e-316
3.12814e-316
3.12819e-316
3.12825e-316
3.12831e-316
3.12838e-316
3.12846e-316
3.12855e-316
3.12864e-316
3.12873e-316
3.12883e-316
3.12893e-316
3.12904e-316
3.12915e-316
3.12926e-316
3.12937e-316
3.12948e-316
3.1296e-316
3.12971e-316
3.12983e-316
3.12994e-316
3.13005e-316
3.13016e-316
3.13027e-316
3.13037e-316
-1.46321e-315
6.12432e-316
1.09563e-316
1.10706e-316
8.19957e-317
8.15294e-317
1.09688e-316
-2.71022e-316
-1.86007e-316
6.68176e-316
4.14845e-316
4.70609e-316
9.53404e-316
1.23604e-315
1.20736e-315
1.20736e-315
6.39718e-316
2.70905e-316
1.57096e-316
1.27881e-316
1.01821e-316
1.28475e-316
1.56417e-316
1.84891e-316
2.13322e-316
2.41504e-316
2.425e-316
2.70188e-316
2.70709e-316
2.98196e-316
-2.9851e-316
2.98752e-316
2.98943e-316
2.99085e-316
2.99124e-316
2.99088e-316
2.99056e-316
2.99028e-316
2.99003e-316
2.9898e-316
2.98961e-316
2.98943e-316
2.98929e-316
2.98916e-316
2.98905e-316
2.98896e-316
2.98889e-316
2.98883e-316
2.98879e-316
2.98876e-316
2.98875e-316
2.98875e-316
2.98876e-316
2.98879e-316
2.98882e-316
2.98887e-316
2.98893e-316
2.98899e-316
2.98907e-316
2.98915e-316
2.98924e-316
2.98933e-316
2.98944e-316
2.98955e-316
2.98966e-316
2.98978e-316
2.9899e-316
2.99002e-316
2.99015e-316
2.99028e-316
2.99041e-316
2.99054e-316
2.99067e-316
2.9908e-316
2.99094e-316
3.26298e-316
3.26312e-316
3.26326e-316
3.26339e-316
3.26351e-316
1.15364e-315
6.91699e-316
5.01845e-316
6.09899e-316
3.93397e-316
3.1248e-316
3.39542e-316
-2.84631e-316
-2.03517e-316
3.93213e-316
3.93393e-316
5.01248e-316
-1.12416e-315
-2.17892e-315
-2.20605e-315
-1.80019e-315
-8.25968e-316
-3.65513e-316
-1.77538e-316
-1.2368e-316
-1.22331e-316
-1.22737e-316
-1.48949e-316
-1.75959e-316
-2.03152e-316
-2.30192e-316
-2.31301e-316
-2.57835e-316
-2.84256e-316
-2.84717e-316
-2.85062e-316
-2.85328e-316
-3.11496e-316
-3.11654e-316
-3.11693e-316
3.11661e-316
3.11631e-316
3.11603e-316
3.11579e-316
3.11557e-316
3.11537e-316
3.1152e-316
3.11505e-316
3.11493e-316
3.11482e-316
3.11474e-316
3.11467e-316
3.11462e-316
3.11459e-316
3.11457e-316
3.11457e-316
3.11459e-316
3.11461e-316
3.11466e-316
3.11471e-316
3.11478e-316
3.11486e-316
3.11495e-316
3.11505e-316
3.11516e-316
3.11527e-316
3.1154e-316
3.11553e-316
3.11567e-316
3.11581e-316
3.11596e-316
3.11611e-316
3.11627e-316
3.11642e-316
3.11659e-316
3.11674e-316
3.11691e-316
3.11706e-316
3.11723e-316
3.11738e-316
3.11754e-316
3.11769e-316
3.11784e-316
3.11799e-316
3.11812e-316
1.04717e-315
7.88283e-316
6.32619e-316
5.81404e-316
4.52001e-316
3.74787e-316
3.49221e-316
-2.97132e-316
-2.20482e-316
3.23155e-316
3.48979e-316
4.26206e-316
-7.10332e-316
-1.38095e-315
-2.20668e-315
-2.05192e-315
-9.68e-316
-4.26151e-316
-2.20239e-316
-1.4334e-316
-1.17733e-316
-1.17533e-316
-1.4211e-316
-1.43682e-316
-1.69345e-316
-2.19422e-316
-2.20608e-316
-2.46023e-316
-2.71316e-316
-2.71812e-316
-2.96924e-316
2.97233e-316
-2.97477e-316
-2.97623e-316
-2.97648e-316
-2.97623e-316
-2.97599e-316
-2.97577e-316
-2.97556e-316
-2.97537e-316
-2.97521e-316
-2.97506e-316
-2.97493e-316
-2.97482e-316
-2.97474e-316
-2.97466e-316
-2.97461e-316
-2.97457e-316
2.97456e-316
2.97455e-316
2.97457e-316
2.9746e-316
2.97465e-316
2.9747e-316
2.97478e-316
2.97486e-316
2.97496e-316
2.97506e-316
2.97518e-316
2.9753e-316
2.97544e-316
2.97558e-316
2.97573e-316
2.97589e-316
2.97605e-316
2.97621e-316
2.97639e-316
2.97656e-316
2.97674e-316
2.97691e-316
2.97709e-316
3.22536e-316
3.22556e-316
3.22574e-316
3.22594e-316
3.22612e-316
3.2263e-316
3.22647e-316
3.22664e-316
3.22679e-316
9.97765e-316
8.74282e-316
7.01805e-316
6.03362e-316
5.04607e-316
4.0678e-316
3.57516e-316
3.07938e-316
2.5889e-316
3.07873e-316
3.32928e-316
4.06694e-316
-6.27702e-316
-1.07056e-315
-1.78405e-315
-1.9071e-315
-1.02146e-315
-4.80194e-316
-2.58886e-316
-1.61177e-316
-1.35967e-316
-1.12699e-316
-1.35791e-316
-1.3702e-316
-1.61405e-316
-2.09181e-316
-2.33782e-316
-2.34733e-316
-2.58936e-316
-2.83046e-316
-2.83467e-316
2.83789e-316
-3.07711e-316
-3.07844e-316
-3.07846e-316
-3.07828e-316
-3.0781e-316
-3.07791e-316
-3.07774e-316
-3.07758e-316
-3.07743e-316
-3.0773e-316
-3.07718e-316
-3.07709e-316
-3.07701e-316
-3.07696e-316
-3.07692e-316
-3.0769e-316
-3.0769e-316
-3.07692e-316
-3.07695e-316
-3.077e-316
-3.07707e-316
-3.07715e-316
-3.07724e-316
-3.07735e-316
-3.07747e-316
-3.07761e-316
-3.07775e-316
-3.07791e-316
3.07807e-316
3.07824e-316
3.07842e-316
3.07861e-316
3.0788e-316
3.079e-316
3.0792e-316
3.07941e-316
3.07961e-316
3.07982e-316
3.08002e-316
3.08024e-316
3.08044e-316
3.08064e-316
3.08084e-316
3.08104e-316
3.08123e-316
3.08141e-316
3.08159e-316
3.08175e-316
9.7404e-316
9.26961e-316
7.62717e-316
6.4521e-316
5.28031e-316
4.57518e-316
3.87279e-316
3.17204e-316
2.70669e-316
2.9398e-316
3.40544e-316
4.11004e-316
5.75105e-316
-9.03334e-316
-1.41929e-315
-1.63028e-315
-1.02064e-315
-5.28021e-316
-2.93538e-316
-1.77162e-316
-1.52546e-316
-1.29744e-316
-1.29887e-316
-1.52579e-316
-1.53913e-316
-1.99454e-316
-2.22968e-316
-2.46338e-316
-2.47096e-316
-2.70149e-316
2.70583e-316
-2.93488e-316
2.93742e-316
2.93839e-316
2.93834e-316
2.93825e-316
2.93814e-316
2.93802e-316
2.9379e-316
2.93778e-316
2.93767e-316
2.93757e-316
2.93748e-316
2.93741e-316
2.93736e-316
2.93732e-316
2.93731e-316
2.93731e-316
2.93732e-316
2.93736e-316
2.93741e-316
2.93748e-316
2.93756e-316
2.93766e-316
2.93777e-316
2.9379e-316
2.93804e-316
2.93819e-316
2.93835e-316
2.93852e-316
2.9387e-316
2.93889e-316
2.93909e-316
2.93929e-316
2.9395e-316
2.93972e-316
3.16608e-316
3.16632e-316
3.16656e-316
3.1668e-316
3.16704e-316
3.16727e-316
3.16751e-316
3.16774e-316
3.16796e-316
3.16818e-316
3.1684e-316
3.1686e-316
3.1688e-316
3.16898e-316
9.28218e-316
9.2825e-316
7.94069e-316
6.5987e-316
5.4812e-316
4.8093e-316
4.13778e-316
3.46756e-316
3.02328e-316
3.02575e-316
3.46868e-316
4.13967e-316
5.48101e-316
-7.93985e-316
-1.17388e-315
1.35276e-315
9.72834e-316
5.48131e-316
3.24359e-316
2.1259e-316
1.46537e-316
1.24465e-316
1.24314e-316
1.45733e-316
1.67813e-316
1.90217e-316
2.1266e-316
2.35e-316
2.57205e-316
2.57808e-316
2.7977e-316
2.80131e-316
3.01902e-316
3.01961e-316
3.01968e-316
3.01968e-316
3.01964e-316
3.01957e-316
3.01949e-316
3.0194e-316
3.01933e-316
3.01925e-316
3.01919e-316
3.01914e-316
3.01912e-316
3.0191e-316
3.0191e-316
3.01912e-316
3.01916e-316
3.01922e-316
3.0193e-316
3.01939e-316
3.01949e-316
3.01962e-316
3.01976e-316
3.01991e-316
3.02008e-316
3.02026e-316
3.02045e-316
3.02065e-316
3.02087e-316
3.02109e-316
3.02132e-316
3.02155e-316
3.0218e-316
3.02204e-316
3.02229e-316
3.02254e-316
3.0228e-316
3.02305e-316
3.0233e-316
3.02355e-316
3.02379e-316
3.02403e-316
3.02427e-316
3.0245e-316
3.02472e-316
3.241e-316
3.24121e-316
3.24141e-316
8.84486e-316
9.27112e-316
8.20599e-316
6.92679e-316
5.86085e-316
5.01094e-316
4.3704e-316
3.73056e-316
3.30603e-316
3.30581e-316
3.5202e-316
4.15829e-316
5.43375e-316
-7.35197e-316
1.0121e-315
1.16125e-315
9.26896e-316
5.64895e-316
3.30888e-316
2.24139e-316
1.60687e-316
1.39245e-316
1.3884e-316
1.39259e-316
1.60161e-316
1.81443e-316
2.02835e-316
2.24171e-316
2.45392e-316
2.665e-316
2.66981e-316
2.87886e-316
2.88052e-316
2.88083e-316
2.88101e-316
2.88109e-316
2.88112e-316
2.88111e-316
2.88108e-316
2.88105e-316
2.881e-316
2.88097e-316
2.88093e-316
2.88092e-316
2.88091e-316
2.88092e-316
2.88094e-316
2.88099e-316
2.88104e-316
2.88112e-316
2.88121e-316
2.88133e-316
2.88145e-316
2.88159e-316
2.88175e-316
2.88192e-316
2.8821e-316
2.8823e-316
2.88251e-316
2.88273e-316
2.88296e-316
2.8832e-316
3.0894e-316
3.08967e-316
3.08994e-316
3.09023e-316
3.0905e-316
3.09079e-316
3.09107e-316
3.09136e-316
3.09163e-316
3.09192e-316
3.09219e-316
3.09246e-316
3.09272e-316
3.09297e-316
3.09322e-316
3.09345e-316
3.09367e-316
3.09387e-316
7.44907e-284
9.43908e-316
8.22642e-316
7.20897e-316
5.99318e-316
5.38188e-316
4.77115e-316
3.96246e-316
3.55682e-316
3.55505e-316
3.75823e-316
4.16704e-316
5.18077e-316
-6.80362e-316
8.83358e-316
1.00509e-315
8.62862e-316
5.58691e-316
3.55651e-316
2.34064e-316
1.73258e-316
1.52511e-316
1.32906e-316
1.33107e-316
1.52901e-316
1.73106e-316
1.93474e-316
2.13831e-316
2.34099e-316
-2.54261e-316
2.74337e-316
2.74639e-316
2.94372e-316
2.94417e-316
2.94446e-316
2.94463e-316
2.94473e-316
2.94478e-316
2.9448e-316
2.9448e-316
2.9448e-316
2.94479e-316
2.94479e-316
2.94479e-316
2.94482e-316
2.94485e-316
2.9449e-316
2.94496e-316
2.94505e-316
2.94515e-316
2.94527e-316
2.94541e-316
2.94556e-316
2.94573e-316
2.94592e-316
2.94612e-316
2.94633e-316
2.94656e-316
2.9468e-316
2.94705e-316
2.94731e-316
2.94758e-316
2.94786e-316
2.94814e-316
2.94843e-316
2.94872e-316
2.94902e-316
2.94931e-316
3.14625e-316
3.14656e-316
3.14687e-316
3.14718e-316
3.14748e-316
3.14777e-316
3.14807e-316
3.14834e-316
3.14861e-316
3.14886e-316
3.1491e-316
3.14932e-316
-5.24218e-223
1.50083e-270
-8.41623e-316
7.44834e-316
6.29001e-316
5.70743e-316
5.12576e-316
4.35429e-316
3.96639e-316
3.77484e-316
3.96743e-316
4.35572e-316
5.32014e-316
6.48248e-316
8.0297e-316
8.99564e-316
8.02719e-316
5.51632e-316
3.58402e-316
2.42485e-316
1.84321e-316
1.46063e-316
1.45367e-316
1.45414e-316
1.45998e-316
1.65174e-316
1.84553e-316
2.22502e-316
2.41912e-316
2.61214e-316
2.80387e-316
2.80639e-316
2.80724e-316
2.8078e-316
2.80816e-316
2.80841e-316
2.80856e-316
2.80867e-316
2.80873e-316
2.80877e-316
2.8088e-316
2.80882e-316
2.80885e-316
2.80888e-316
2.80892e-316
2.80898e-316
2.80905e-316
2.80914e-316
2.80924e-316
2.80937e-316
2.9968e-316
2.99697e-316
2.99715e-316
2.99735e-316
2.99756e-316
2.9978e-316
2.99804e-316
2.9983e-316
2.99857e-316
2.99886e-316
2.99915e-316
2.99945e-316
2.99976e-316
3.00008e-316
3.0004e-316
3.00072e-316
3.00105e-316
3.00138e-316
3.0017e-316
3.00202e-316
3.00234e-316
3.19033e-316
3.19065e-316
3.19098e-316
3.19129e-316
3.19159e-316
3.19188e-316
3.19216e-316
3.19242e-316
3.19266e-316
-1.86951e-207
1.88034e-259
8.5684e-316
7.64807e-316
6.72692e-316
5.99044e-316
5.43693e-316
4.8823e-316
4.33085e-316
4.14704e-316
4.32978e-316
4.69885e-316
5.25439e-316
6.35889e-316
7.64756e-316
8.20117e-316
7.463e-316
5.43861e-316
3.77971e-316
2.67342e-316
1.93962e-316
1.57268e-316
1.39076e-316
1.38996e-316
1.56847e-316
1.75134e-316
1.93652e-316
2.12222e-316
2.30736e-316
-2.49157e-316
-2.67384e-316
-2.67566e-316
-2.85506e-316
-2.85575e-316
-2.85621e-316
-2.85653e-316
-2.85675e-316
-2.8569e-316
-2.85701e-316
-2.85709e-316
-2.85715e-316
-2.85721e-316
-1.39292e-315
-6.58971e-315
-2.95741e-314
-1.27533e-313
-5.3142e-313
-2.14573e-312
-8.42308e-312
-3.22334e-311
-1.20573e-310
-4.41895e-310
-1.59049e-309
-5.63422e-309
-1.9691e-308
-6.80746e-308
-2.33684e-307
-8.01431e-307
-2.78024e-306
-1.00195e-305
-3.97242e-305
-1.91474e-304
-1.24056e-303
-1.08319e-302
-1.16899e-301
-1.43451e-300
-1.91026e-299
-2.69593e-298
-3.99087e-297
-6.16697e-296
-9.95439e-295
-1.68259e-293
-2.99802e-292
-5.67294e-291
-1.15269e-289
-2.54303e-288
-6.17715e-287
-1.67517e-285
-5.178e-284
-1.92333e-282
-2.06219e-174
-3.77071e-217
8.68608e-316
7.81124e-316
6.93485e-316
6.23373e-316
5.88027e-316
5.17928e-316
4.65286e-316
4.47673e-316
4.47788e-316
4.82833e-316
5.52869e-316
6.40609e-316
7.28431e-316
7.63615e-316
6.93414e-316
5.35498e-316
3.77658e-316
2.72301e-316
2.0227e-316
1.67136e-316
1.4963e-316
1.49446e-316
1.49781e-316
1.67132e-316
1.8473e-316
2.02407e-316
2.36983e-316
6.60779e-312
1.90383e-309
5.9835e-308
1.02924e-306
1.26038e-305
1.22719e-304
1.00847e-303
7.1499e-303
4.62132e-302
2.72946e-301
1.49273e-300
7.63695e-300
3.68531e-299
1.68864e-298
7.38859e-298
3.10167e-297
1.25441e-296
4.90488e-296
1.8602e-295
6.86186e-295
2.46837e-294
8.67892e-294
2.98928e-293
1.01059e-292
3.35994e-292
1.10054e-291
3.55773e-291
1.13693e-290
3.59766e-290
1.12901e-289
3.51952e-289
1.09148e-288
3.37297e-288
1.04017e-287
3.20647e-287
9.89479e-287
3.06198e-286
9.51572e-286
2.97519e-285
9.37227e-285
2.98024e-284
9.57979e-284
3.12166e-283
1.10209e-282
2.22657e-281
5.09986e-279
1.43402e-276
4.21991e-274
1.29984e-271
4.19943e-269
1.42543e-266
-1.21798e-162
-1.06785e-181
-8.19617e-265
-7.94074e-316
7.27249e-316
6.60519e-316
-6.43457e-316
-5.76665e-316
-5.09948e-316
-4.93083e-316
-4.93099e-316
-5.09962e-316
-5.60098e-316
-6.26984e-316
-7.1039e-316
7.27203e-316
6.60372e-316
5.26636e-316
3.76439e-316
2.76125e-316
2.09337e-316
1.75744e-316
1.58932e-316
1.42799e-316
1.58915e-316
1.59496e-316
1.92236e-316
-2.09124e-316
2.25994e-316
2.52003e-297
1.07673e-295
1.8416e-294
2.03606e-293
1.70903e-292
1.18058e-291
6.91859e-291
3.66835e-290
1.76622e-289
7.83961e-289
3.24448e-288
1.26316e-287
4.65939e-287
1.63795e-286
5.5145e-286
1.78549e-285
5.57983e-285
1.68835e-284
4.9601e-284
1.41835e-283
3.95652e-283
1.07886e-282
2.88098e-282
7.54735e-282
1.94276e-281
4.92124e-281
1.22849e-280
3.02625e-280
7.36615e-280
1.7739e-279
4.23166e-279
1.00119e-278
2.3523e-278
5.49502e-278
1.27802e-277
2.96321e-277
6.86e-277
1.58808e-276
3.68344e-276
8.57764e-276
2.0486e-275
1.39411e-274
2.23996e-272
5.60751e-270
1.4677e-267
4.0068e-265
1.14403e-262
3.426e-260
1.07914e-257
3.58506e-255
1.25944e-252
-2.54397e-146
-5.35492e-167
-6.22735e-192
5.951e-290
7.71931e-316
7.08438e-316
6.92308e-316
6.28711e-316
5.65064e-316
5.33243e-316
5.33177e-316
5.49144e-316
5.81093e-316
6.44647e-316
6.92433e-316
6.92543e-316
6.28891e-316
5.17353e-316
3.74415e-316
2.78914e-316
2.15253e-316
1.83171e-316
1.51868e-316
1.5157e-316
1.51729e-316
1.67422e-316
1.8337e-316
1.99431e-316
1.17861e-293
1.29001e-291
2.80613e-290
3.42267e-289
2.97052e-288
2.04884e-287
1.19527e-286
6.03301e-286
2.79538e-285
1.1908e-284
4.72605e-284
1.76514e-283
6.25282e-283
2.11387e-282
6.85461e-282
2.14084e-281
6.46269e-281
1.89125e-280
5.37934e-280
1.49046e-279
4.03098e-279
1.06606e-278
2.76159e-278
7.01782e-278
1.75198e-277
4.30246e-277
1.04067e-276
2.48215e-276
5.8448e-276
1.3602e-275
3.13186e-275
7.14163e-275
1.61458e-274
3.62224e-274
8.07308e-274
1.78899e-273
3.94645e-273
8.67328e-273
1.90162e-272
4.1628e-272
9.11278e-272
1.99681e-271
4.38859e-271
9.83013e-271
5.72638e-270
9.03701e-268
2.35577e-265
6.45192e-263
1.85222e-260
5.58889e-258
1.77712e-255
5.97099e-253
-7.9435e-144
-1.50726e-160
-3.83976e-175
-1.63403e-240
-8.10649e-316
-7.65268e-316
-7.35021e-316
-6.89483e-316
-6.28794e-316
-5.83444e-316
-5.68355e-316
-5.83473e-316
-6.13789e-316
-6.59207e-316
-6.89555e-316
-6.89512e-316
-6.28838e-316
-5.07713e-316
-3.86539e-316
-2.95538e-316
-2.20107e-316
-1.89495e-316
-1.59566e-316
-1.59229e-316
-1.59331e-316
-1.74276e-316
-1.89479e-316
6.15191e-291
7.4633e-288
2.35417e-286
3.4556e-285
3.30338e-284
2.38071e-283
1.40239e-282
6.98571e-282
3.14113e-281
1.28323e-280
4.84162e-280
1.70799e-279
5.68807e-279
1.80201e-278
5.4652e-278
1.59505e-277
4.49975e-277
1.23156e-276
3.28075e-276
8.52912e-276
2.1691e-275
5.40698e-275
1.32342e-274
3.18532e-274
7.54935e-274
1.76388e-273
4.06725e-273
9.26443e-273
2.08652e-272
4.65012e-272
1.02639e-271
2.24533e-271
4.87222e-271
1.0494e-270
2.24537e-270
4.77569e-270
1.01059e-269
2.12895e-269
4.46918e-269
9.35436e-269
1.95436e-268
4.07805e-268
8.50957e-268
1.77687e-267
3.71812e-267
7.80401e-267
1.67126e-266
1.00799e-265
1.74179e-263
4.77933e-261
1.38296e-258
4.21413e-256
1.35522e-253
-3.98672e-142
-3.05749e-154
-1.44841e-172
-3.89012e-227
-6.58433e-307
-2.72676e-311
-9.27828e-315
-7.57278e-316
-6.85185e-316
-6.41927e-316
-6.2748e-316
-6.27539e-316
-6.5631e-316
-6.85163e-316
-6.9963e-316
-6.85174e-316
-6.13073e-316
-4.97773e-316
-3.82453e-316
-2.9584e-316
-2.23981e-316
-1.94794e-316
-1.66205e-316
-1.52024e-316
-1.65901e-316
-1.66274e-316
1.80715e-316
1.93998e-284
9.86455e-283
1.86872e-281
2.1073e-280
1.66633e-279
1.05133e-278
5.46211e-278
2.51003e-277
1.03304e-276
3.88312e-276
1.35226e-275
4.41012e-275
1.35833e-274
3.97825e-274
1.1142e-273
2.99855e-273
7.78621e-273
1.95793e-272
4.78318e-272
1.13855e-271
2.64744e-271
6.02816e-271
1.34699e-270
2.95961e-270
6.40597e-270
1.3682e-269
2.88794e-269
6.03273e-269
1.24873e-268
2.56425e-268
5.2291e-268
1.05994e-267
2.13735e-267
4.29089e-267
8.58176e-267
1.71103e-266
3.40263e-266
6.75343e-266
1.3384e-265
2.65022e-265
5.24573e-265
1.03864e-264
2.05814e-264
4.08496e-264
8.12562e-264
1.62138e-263
3.24774e-263
6.5388e-263
1.35361e-262
1.05799e-261
2.1963e-259
6.40667e-257
1.97574e-254
-1.11535e-140
-9.71156e-143
-8.42944e-159
-4.66184e-181
1.77377e-240
-3.60261e-281
-7.01806e-283
-4.47021e-285
-2.63006e-285
-1.95793e-285
-1.77922e-285
-1.97157e-285
-2.63764e-285
-4.04407e-285
-6.10978e-285
-6.7699e-285
-4.03004e-285
-1.0788e-285
-1.19637e-286
-5.30256e-288
-1.02998e-289
-1.35609e-291
-1.9867e-293
-3.52134e-295
-6.53711e-297
-9.49765e-299
3.07475e-281
2.00541e-279
4.8301e-278
6.59442e-277
6.11165e-276
4.27953e-275
2.39662e-274
1.16016e-273
4.95173e-273
1.90872e-272
6.76e-272
2.22769e-271
6.89633e-271
2.02058e-270
5.63696e-270
1.50481e-269
3.86026e-269
9.55027e-269
2.2859e-268
5.30824e-268
1.19891e-267
2.63967e-267
5.67725e-267
1.19503e-266
2.46634e-266
4.99898e-266
9.9668e-266
1.95764e-265
3.79361e-265
7.26314e-265
1.37579e-264
2.58175e-264
4.80608e-264
8.8865e-264
1.63415e-263
2.99221e-263
5.46211e-263
9.95101e-263
1.81137e-262
3.29756e-262
6.00998e-262
1.09748e-261
2.00983e-261
3.69364e-261
6.81769e-261
1.2646e-260
2.35902e-260
4.42792e-260
8.3696e-260
1.59413e-259
3.06384e-259
6.19354e-259
8.21452e-258
2.09045e-255
-2.16686e-139
-1.06091e-140
-1.24469e-152
-1.52144e-178
4.56052e-218
6.71024e-247
1.02715e-247
1.92642e-249
1.14781e-249
8.59704e-250
7.70654e-250
8.1852e-250
1.00689e-249
1.33252e-249
1.59618e-249
1.33067e-249
6.02951e-250
1.24821e-250
1.00995e-251
2.40521e-253
3.03767e-256
1.19741e-287
3.29301e-285
1.27728e-282
3.97588e-280
4.94744e-278
2.58623e-276
6.92845e-275
1.11105e-273
1.19797e-272
9.49982e-272
5.86175e-271
3.04866e-270
1.37222e-269
5.42751e-269
1.98044e-268
6.67683e-268
2.10358e-267
6.24685e-267
1.76042e-266
4.73333e-266
1.21976e-265
3.02395e-265
7.23589e-265
1.67591e-264
3.7666e-264
8.23284e-264
1.75362e-263
3.6466e-263
7.41551e-263
1.47691e-262
2.88504e-262
5.53486e-262
1.04418e-261
1.93937e-261
3.55036e-261
6.41327e-261
1.14435e-260
2.01909e-260
3.52646e-260
6.10296e-260
1.04771e-259
1.78598e-259
3.02656e-259
5.10406e-259
8.57657e-259
1.43756e-258
2.40679e-258
4.02961e-258
6.75656e-258
1.13597e-257
1.91793e-257
3.25582e-257
5.56534e-257
9.59068e-257
1.66863e-256
2.93482e-256
5.22672e-256
9.44725e-256
1.90512e-255
-3.31351e-138
-3.01044e-139
-1.91162e-141
-9.88088e-161
5.74783e-194
-1.26798e-218
-5.05716e-219
-3.27699e-220
-2.05151e-220
-1.56719e-220
-1.38623e-220
-1.38644e-220
-1.50006e-220
-1.59773e-220
-1.42174e-220
-8.55067e-221
-2.82562e-221
-4.21891e-222
-2.10906e-223
-4.18306e-226
6.51996e-256
1.7918e-279
5.63991e-278
2.06371e-276
7.80501e-275
2.54556e-273
6.19165e-272
1.06009e-270
1.28856e-269
1.15723e-268
7.96983e-268
4.52554e-267
2.18037e-266
9.20953e-266
3.49682e-265
1.20029e-264
3.87561e-264
1.17396e-263
3.36234e-263
9.16133e-263
2.38654e-262
5.96819e-262
1.43778e-261
3.34668e-261
7.54641e-261
1.65224e-260
3.51974e-260
7.30889e-260
1.48194e-259
2.93838e-259
5.7056e-259
1.08635e-258
2.03069e-258
3.73083e-258
6.74412e-258
1.20069e-257
2.10737e-257
3.6496e-257
6.24206e-257
1.05525e-256
1.76475e-256
2.92192e-256
4.79345e-256
7.79799e-256
1.25895e-255
2.01883e-255
3.21812e-255
5.10419e-255
8.06207e-255
1.26946e-254
1.99469e-254
3.13132e-254
4.91683e-254
7.73283e-254
1.21981e-253
1.93311e-253
3.08326e-253
4.95965e-253
8.06747e-253
1.33121e-252
-4.25984e-137
-5.46288e-138
-3.26952e-139
-1.17739e-142
-5.00633e-178
-3.14161e-193
-1.74747e-195
-1.83342e-196
-1.10737e-196
-7.86212e-197
-6.19858e-197
-5.22972e-197
-4.45594e-197
-3.48082e-197
-2.16212e-197
-8.95499e-198
-2.0336e-198
-1.95735e-199
-3.717e-201
-8.68382e-226
1.01395e-255
3.0395e-274
5.33291e-273
1.04717e-271
2.13781e-270
4.07895e-269
6.56843e-268
8.36943e-267
8.26719e-266
6.40561e-265
3.9599e-264
2.06818e-263
9.3157e-263
3.71963e-262
1.34546e-261
4.4826e-261
1.39268e-260
4.02313e-260
1.11555e-259
2.94939e-259
7.46896e-259
1.81852e-258
4.27061e-258
9.70007e-258
2.13613e-257
4.57062e-257
9.52037e-257
1.93381e-256
3.83652e-256
7.44478e-256
1.41491e-255
2.63696e-255
4.82462e-255
8.6751e-255
1.5345e-254
2.67267e-254
4.58777e-254
7.76768e-254
1.2983e-253
2.14373e-253
3.49963e-253
5.65209e-253
9.03794e-253
1.43172e-252
2.24862e-252
3.50326e-252
5.41857e-252
8.32472e-252
1.27142e-251
1.9315e-251
2.92109e-251
4.40077e-251
6.61037e-251
9.90748e-251
1.48309e-250
2.21949e-250
3.3246e-250
4.99168e-250
7.52573e-250
1.14233e-249
-4.83014e-136
-7.84575e-137
-9.01332e-138
-3.70563e-139
-2.55761e-143
-1.25313e-162
-2.11744e-162
-6.10264e-164
-3.84283e-164
-2.81237e-164
-7.69915e-165
9.70713e-165
1.77367e-164
1.58652e-164
8.74736e-165
2.80455e-165
4.43963e-166
2.31678e-167
6.9056e-189
-1.38315e-225
1.47266e-255
8.86892e-270
1.10681e-268
1.51827e-267
2.16337e-266
2.96504e-265
3.6171e-264
3.7083e-263
3.109e-262
2.10765e-261
1.20051e-260
5.82602e-260
2.47224e-259
9.388e-259
3.25152e-258
1.04243e-257
3.12856e-257
8.86528e-257
2.36e-256
6.07213e-256
1.49891e-255
3.56221e-255
8.17456e-255
1.81604e-254
3.91447e-254
8.20327e-254
1.67433e-253
3.33385e-253
6.48549e-253
1.23431e-252
2.30111e-252
4.2071e-252
7.55148e-252
1.33207e-251
2.3114e-251
3.94886e-251
6.6478e-251
1.10371e-250
1.80849e-250
2.92686e-250
4.68156e-250
7.40638e-250
1.15957e-249
1.79797e-249
2.76237e-249
4.20836e-249
6.36029e-249
9.54296e-249
1.42217e-248
2.10652e-248
3.10291e-248
4.54826e-248
6.63808e-248
9.65292e-248
1.39947e-247
2.02433e-247
2.92383e-247
4.22088e-247
6.09816e-247
8.83334e-247
-5.0093e-135
-9.68866e-136
-1.58911e-136
-1.78004e-137
-7.82881e-139
-1.29369e-141
-9.55007e-145
-7.61515e-147
-1.90452e-147
-7.10874e-148
-2.90815e-148
-1.19763e-148
-4.58661e-149
-1.49006e-149
-3.64775e-150
-5.70023e-151
-4.25839e-152
-4.39783e-154
2.9134e-187
-2.06821e-225
2.09049e-255
9.00472e-266
8.89624e-265
9.54318e-264
1.0607e-262
1.14967e-261
1.14145e-260
9.87727e-260
7.17186e-259
4.42903e-258
2.32584e-257
1.05802e-256
4.25777e-256
1.54616e-255
5.15163e-255
1.59594e-254
4.64422e-254
1.27944e-253
3.35728e-253
8.33959e-253
2.01217e-252
4.6797e-252
1.05196e-251
2.29112e-251
4.84482e-251
9.96556e-251
1.99738e-250
3.90674e-250
7.4676e-250
1.39674e-249
2.55941e-249
4.59974e-249
8.1162e-249
1.40739e-248
2.4006e-248
4.03123e-248
6.67012e-248
1.08826e-247
1.75214e-247
2.78569e-247
4.37659e-247
6.79901e-247
1.04508e-246
1.59038e-246
2.39756e-246
3.58249e-246
5.30913e-246
7.80711e-246
1.13985e-245
1.65319e-245
2.35168e-245
3.37069e-245
4.80748e-245
6.8267e-245
9.65745e-245
1.36184e-244
1.91564e-244
2.69019e-244
3.77595e-244
5.30672e-244
-4.8547e-134
-1.07265e-134
-2.21899e-135
-3.93706e-136
-5.0262e-137
-3.40456e-138
-1.14398e-141
-6.13951e-147
-5.40985e-146
-1.28821e-146
-4.51359e-147
-1.68964e-147
-5.7745e-148
-1.62285e-148
-3.50632e-149
-4.9929e-150
-2.61953e-151
-5.84329e-154
5.96735e-186
9.93703e-223
2.90685e-255
4.13181e-262
3.43301e-261
3.06688e-260
2.8299e-259
2.56461e-258
2.16662e-257
1.61935e-256
1.06141e-255
5.99193e-255
2.92913e-254
1.25754e-253
4.82448e-253
1.68237e-252
5.41149e-252
1.62487e-251
4.59667e-251
1.23405e-250
3.16143e-250
7.7633e-250
1.81519e-249
4.13729e-249
9.1222e-249
1.95006e-248
4.04963e-248
8.18418e-248
1.61218e-247
3.10007e-247
5.82669e-247
1.07179e-246
1.93161e-246
3.41451e-246
5.92598e-246
1.01072e-245
1.69558e-245
2.80022e-245
4.55609e-245
7.30896e-245
1.15687e-244
1.80795e-244
2.79156e-244
4.26123e-244
6.43474e-244
9.61777e-244
1.42372e-243
2.08843e-243
3.0006e-243
4.32819e-243
6.19675e-243
8.81039e-243
1.24468e-242
1.74841e-242
2.44292e-242
3.39674e-242
4.70287e-242
6.48705e-242
8.92076e-242
1.22399e-241
1.67731e-241
2.29987e-241
-2.84691e-133
-6.97304e-134
-1.70599e-134
-3.93115e-135
-7.31176e-136
-1.27581e-138
-1.02026e-137
-8.56339e-138
-2.87223e-138
-1.23072e-138
-4.32904e-139
-1.2836e-139
-3.09892e-140
-5.66369e-141
-6.82515e-142
-3.7928e-143
-4.77836e-151
-7.12701e-154
1.87736e-175
1.81281e-199
9.58219e-253
9.86108e-259
7.16555e-258
5.5509e-257
4.42591e-256
3.47921e-255
2.57871e-254
1.72042e-253
1.02474e-252
5.34936e-252
2.45416e-251
1.00031e-250
3.67555e-250
1.23548e-249
3.84911e-249
1.12336e-248
3.09746e-248
8.12187e-248
2.03575e-247
4.89758e-247
1.13472e-246
2.51473e-246
5.44702e-246
1.14458e-245
2.33759e-245
4.64772e-245
9.01017e-245
1.70545e-244
3.15589e-244
5.71593e-244
1.01443e-243
1.7659e-243
3.01819e-243
5.06942e-243
8.37479e-243
1.36192e-242
2.18187e-242
3.44608e-242
5.36964e-242
8.26015e-242
1.25522e-241
1.8855e-241
2.77038e-241
4.07259e-241
5.92811e-241
8.54931e-241
1.22214e-240
1.73306e-240
2.4385e-240
3.4064e-240
4.72635e-240
6.5171e-240
8.93472e-240
1.21858e-239
1.65421e-239