/*--------------------------------*- C++ -*----------------------------------*\
  =========                 |
  \\      /  F ield         | OpenFOAM: The Open Source CFD Toolbox
   \\    /   O peration     | Website:  https://openfoam.org
    \\  /    A nd           | Version:  7
     \\/     M anipulation  |
\*---------------------------------------------------------------------------*/
FoamFile
{
    version     2.0;
    format      ascii;
    class       volScalarField;
    location    "30";
    object      epss;
}
// * * * * * * * * * * * * * * * * * * * * * * * * * * * * * * * * * * * * * //

dimensions      [0 0 0 0 0 0 0];

internalField   nonuniform List<scalar> 
49920
(
0.0158499
0.317786
0.658746
0.592104
0.595634
0.524601
0.570903
0.697972
0.648316
0.565971
0.591119
0.649137
0.602785
0.685616
0.531267
0.0962827
0.00462917
3.66787e-05
4.38446e-09
0
0
0
0
0
0
0
0
0
0
0
0
0
0
0
0
0
0
0
0
0
0
0
0
0
0
0
0
0
0
0
0
0
0
0
0
0
0
0
0
0
0
0
0
0
0
0
0
0
0
0
0
0
0
0
0
0
0
0
0
0
0.0164112
0.0608193
0.197668
0.545084
0.550543
0.40859
0.597795
0.438767
0.580033
0.54424
0.516135
0.566248
0.626857
0.437495
0.140467
0.0332622
0.00358644
3.34893e-06
0
0
0
0
0
0
0
0
0
0
0
0
0
0
0
0
0
0
0
0
0
0
0
0
0
0
0
0
0
0
0
0
0
0
0
0
0
0
0
0
0
0
0
0
0
0
0
0
0
0
0
0
0
0
0
0
0
0
0
0
0
0
0.00701697
0.0100005
0.0414088
0.131138
0.135767
0.0965807
0.140668
0.103583
0.136944
0.406647
0.413844
0.402035
0.263329
0.108874
0.0356677
0.00986315
0.002087
0.000179622
0
0
0
0
0
0
0
0
0
0
0
0
0
0
0
0
0
0
0
0
0
0
0
0
0
0
0
0
0
0
0
0
0
0
0
0
0
0
0
0
0
0
0
0
0
0
0
0
0
0
0
0
0
0
0
0
0
0
0
0
0
6.17049e-78
0.00249498
0.00113731
0.00946677
0.0290287
0.03284
0.0233937
0.0341819
0.0253473
0.0349727
0.0779396
0.0969825
0.0979666
0.0654736
0.0398387
0.00897741
0.00245179
0.000818337
0.000185129
1.46872e-05
0
0
0
0
0
0
0
0
0
0
0
0
0
0
0
0
0
0
0
0
0
0
0
0
0
0
0
0
0
0
0
0
0
0
0
0
0
0
0
0
0
0
0
0
0
0
0
0
0
0
0
0
0
4.06891e-91
2.14739e-90
3.75234e-90
2.36661e-90
0
0
0
2.36844e-77
0.000866627
0
0.00218358
0.00658663
0.00874968
0.0060445
0.00824584
0.00624484
0.00874513
0.0116453
0.0281518
0.0229075
0.013483
0.00720594
0.00231276
0.000669908
0.000302626
0.000134441
3.09518e-05
3.2995e-06
0
0
0
0
0
0
0
0
0
0
0
0
0
0
0
0
0
0
0
0
0
0
0
0
0
0
0
0
0
0
0
0
0
0
0
0
0
0
0
0
0
0
0
0
0
0
1.75293e-99
1.01354e-97
3.14408e-97
0
0
0
0
2.54282e-90
7.6343e-90
7.12361e-90
1.13706e-90
0
0
0
0.000327637
0
0.000476777
0.00141147
0.00233021
0.00170406
0.00203358
0.00176795
0.00246702
0.00136125
0.00570096
0.00379246
0.00228649
0.0010773
0.000579025
0.000233081
0.00013138
9.16584e-05
3.99716e-05
1.05749e-05
1.29063e-06
0
0
0
0
0
0
0
0
0
0
0
0
0
0
0
0
0
0
0
0
0
0
0
0
0
0
0
0
0
0
0
0
0
0
0
0
0
0
0
0
0
0
0
0
6.87662e-102
1.82072e-98
8.28536e-98
0
0
6.13359e-84
7.26051e-83
1.43923e-82
0
0
0
0
0
0
1.42377e-58
0.000148694
2.66649e-06
8.05712e-05
0.000239474
0.000632931
0.00055223
0.000540509
0.000579421
0.00077626
3.19855e-07
0.000856744
0.000411942
0.000161647
0
0.000116956
0.000105553
7.63591e-05
6.63438e-05
4.31268e-05
1.90509e-05
5.50765e-06
9.84133e-07
0
0
0
0
0
0
0
0
0
0
0
0
0
0
0
0
0
0
0
0
0
0
0
0
0
0
0
0
0
0
0
0
0
0
0
0
0
0
0
0
0
0
0
1.76064e-99
1.11894e-98
0
0
7.92733e-85
1.95996e-83
5.95369e-83
0
0
2.66736e-65
1.81187e-64
2.81802e-64
0
0
0
8.58471e-05
3.42032e-06
0
0
0.000174008
0.000219804
0.000177316
0.000238029
0.000298756
0
0
0
0
0
3.86387e-06
5.30812e-05
5.38845e-05
5.21028e-05
4.2912e-05
2.63954e-05
1.19835e-05
4.00449e-06
7.45078e-07
1.75104e-08
0
0
0
0
0
0
0
0
0
0
0
0
0
0
0
0
0
0
0
0
0
0
0
0
0
0
0
0
0
0
0
0
0
0
0
0
0
0
0
0
7.60126e-101
1.36105e-99
0
0
2.37139e-87
2.2554e-84
9.97954e-84
0
0
4.80566e-66
5.62587e-65
1.35221e-64
0
0
5.11474e-56
3.30401e-55
6.11419e-05
4.27819e-06
0
0
4.09799e-05
0.000107588
8.50416e-05
0.000128126
0.000153403
1.64004e-05
0
0
0
0
0
2.36689e-05
3.78105e-05
4.16048e-05
4.00411e-05
3.09439e-05
1.88148e-05
8.98133e-06
3.11311e-06
6.8419e-07
5.02144e-08
0
0
0
0
0
0
0
0
0
0
0
0
0
0
0
0
0
0
0
0
0
0
0
0
0
0
0
0
0
0
0
0
0
0
0
2.80133e-95
1.33629e-93
4.17047e-93
0
0
0
0
0
3.40356e-85
3.22161e-84
6.00049e-84
0
0
1.30337e-65
7.34204e-65
1.03659e-64
0
0
1.95511e-55
2.07469e-54
4.93714e-05
5.8626e-06
1.19498e-06
0
3.25488e-06
5.80911e-05
5.6577e-05
8.4497e-05
0.00010377
4.13017e-05
4.57151e-07
0
0
0
0
7.02141e-06
2.26995e-05
3.07016e-05
3.41473e-05
3.15067e-05
2.37416e-05
1.45668e-05
7.11572e-06
2.65469e-06
6.72638e-07
6.88888e-08
0
0
0
0
0
0
0
0
0
0
0
0
0
0
0
0
0
0
0
0
0
0
0
0
0
0
0
0
0
0
0
0
0
0
0
0
0
0
7.87023e-79
7.98174e-78
1.49665e-77
0
0
0
0
0
1.57691e-68
1.52133e-65
7.07294e-65
8.74821e-65
0
0
1.00957e-58
4.59186e-54
4.18795e-05
8.07182e-06
5.38475e-06
1.12218e-06
0
2.94113e-05
4.15825e-05
6.10335e-05
8.17449e-05
6.22903e-05
6.87131e-06
1.41239e-06
0
0
0
5.4584e-07
1.01454e-05
1.90825e-05
2.5423e-05
2.76952e-05
2.49761e-05
1.8705e-05
1.1608e-05
5.8761e-06
2.33184e-06
6.40624e-07
9.21402e-08
0
0
0
0
0
0
0
0
0
0
0
0
0
0
0
0
0
0
0
0
0
0
0
0
0
0
0
0
0
0
1.48838e-97
1.88731e-96
0
0
1.74215e-80
1.63392e-79
0
0
0
0
0
3.16585e-69
1.74146e-68
2.39911e-68
0
0
0
0
0
0
1.06321e-56
3.56776e-54
1.65825e-53
3.55522e-05
1.01436e-05
1.08897e-05
5.36199e-06
0
1.17006e-05
2.90293e-05
4.47e-05
6.61173e-05
7.04279e-05
2.09248e-05
7.25848e-06
1.00005e-06
0
0
0
2.57408e-06
8.90156e-06
1.54968e-05
2.04424e-05
2.19776e-05
1.96703e-05
1.48115e-05
9.36263e-06
4.90352e-06
2.03745e-06
6.25388e-07
1.08684e-07
0
0
0
0
0
0
0
0
0
0
0
0
0
0
0
0
0
0
0
0
0
0
0
0
0
0
0
0
1.79814e-97
2.0804e-96
0
0
1.18559e-81
1.46897e-80
0
0
2.31181e-73
1.25614e-71
3.87725e-71
0
0
0
0
1.51191e-67
2.16114e-62
1.07526e-61
1.85017e-61
1.0398e-61
0
0
0
0
2.93988e-05
1.12032e-05
1.53735e-05
1.15242e-05
1.77004e-06
2.86047e-06
1.81263e-05
3.19345e-05
5.15155e-05
6.65595e-05
3.70642e-05
1.74242e-05
4.84898e-06
5.65237e-07
0
0
6.06136e-08
2.3684e-06
6.91201e-06
1.19957e-05
1.58295e-05
1.70028e-05
1.53017e-05
1.1665e-05
7.54323e-06
4.07986e-06
1.79585e-06
5.92073e-07
1.18899e-07
5.25971e-09
0
0
0
0
0
0
0
0
0
0
0
0
0
0
0
0
0
0
0
0
6.91734e-116
5.70966e-113
0
0
1.20827e-101
5.73521e-99
0
0
0
0
9.79066e-82
7.63191e-81
0
0
1.59285e-72
8.89473e-72
0
0
9.53279e-65
8.43801e-64
1.49203e-63
0
0
0
0
0
0
4.47345e-48
3.43323e-48
1.01844e-48
2.33438e-05
1.09034e-05
1.76061e-05
1.71093e-05
5.69905e-06
6.85715e-07
1.00329e-05
2.18723e-05
3.8172e-05
5.6049e-05
4.75392e-05
2.86913e-05
1.18132e-05
2.91516e-06
2.6552e-07
4.70322e-08
3.87845e-09
3.16505e-08
1.85199e-06
5.13018e-06
8.90968e-06
1.18423e-05
1.28466e-05
1.17123e-05
9.10339e-06
6.0428e-06
3.39359e-06
1.56079e-06
5.49896e-07
1.29167e-07
1.0656e-08
0
0
0
0
0
0
0
0
0
0
0
0
0
0
0
0
0
0
0
1.82156e-115
1.52294e-112
0
0
0
0
0
6.52063e-83
1.69444e-78
8.20769e-78
0
0
0
5.22371e-74
1.64346e-72
4.75355e-72
0
0
0
2.09705e-66
0
0
3.27156e-46
4.36266e-45
1.1983e-44
1.20266e-44
2.78376e-45
0
1.1911e-47
5.87487e-48
1.76812e-05
9.54507e-06
1.76384e-05
2.04193e-05
1.04903e-05
2.20262e-06
5.2013e-06
1.42892e-05
2.71785e-05
4.37276e-05
4.8937e-05
3.68697e-05
2.00488e-05
7.38691e-06
1.64363e-06
5.80071e-07
1.12639e-06
1.09913e-06
1.15473e-06
2.00608e-06
3.93688e-06
6.48902e-06
8.63701e-06
9.50113e-06
8.837e-06
7.04129e-06
4.81778e-06
2.80133e-06
1.34674e-06
5.08434e-07
1.29551e-07
1.34245e-08
0
0
0
0
0
0
0
0
0
0
0
0
0
0
0
0
0
0
0
0
0
0
2.76446e-87
1.78043e-86
0
0
0
3.0603e-77
5.18551e-75
2.02662e-74
0
0
0
0
0
4.35602e-64
2.6174e-63
3.80745e-63
0
0
0
0
0
1.33856e-44
0
0
0
0
1.27561e-05
7.76484e-06
1.62291e-05
2.11261e-05
1.41396e-05
4.76037e-06
3.02543e-06
8.94035e-06
1.88374e-05
3.24015e-05
4.31644e-05
3.95352e-05
2.67638e-05
1.30339e-05
4.50781e-06
2.01564e-06
3.04516e-06
4.21133e-06
4.14683e-06
3.32621e-06
2.85075e-06
3.41257e-06
4.8009e-06
6.22899e-06
6.93506e-06
6.60475e-06
5.41381e-06
3.82399e-06
2.30443e-06
1.15707e-06
4.55043e-07
1.21933e-07
1.4863e-08
0
0
0
0
0
0
0
0
0
5.82023e-128
1.16555e-131
0
6.85714e-111
6.24377e-108
0
0
1.59613e-100
5.9946e-97
2.54875e-96
0
0
0
0
0
1.05188e-77
1.02558e-76
0
0
0
0
1.04178e-64
5.49954e-64
0
0
0
0
0
0
1.0194e-46
3.75062e-44
1.65189e-43
1.61366e-43
0
2.12655e-42
1.89315e-41
3.32647e-41
0
8.78468e-06
6.14859e-06
1.42442e-05
1.98517e-05
1.55541e-05
6.72041e-06
2.40956e-06
5.41575e-06
1.27674e-05
2.31773e-05
3.42498e-05
3.69552e-05
2.99639e-05
1.81373e-05
8.38656e-06
4.38249e-06
5.36471e-06
7.93048e-06
9.11633e-06
8.16075e-06
6.03305e-06
4.17943e-06
3.45e-06
3.78977e-06
4.55931e-06
5.06601e-06
4.92724e-06
4.15747e-06
3.03124e-06
1.88944e-06
9.78166e-07
3.96015e-07
1.10682e-07
1.44821e-08
0
0
0
0
0
0
0
0
0
0
0
0
2.86304e-107
3.07429e-106
0
0
0
3.67619e-95
2.4688e-94
0
0
1.22694e-79
7.18849e-79
0
0
0
6.33281e-60
1.8777e-58
3.07831e-58
0
0
0
4.85968e-52
2.5277e-50
9.16237e-50
9.69322e-50
0
0
0
0
0
0
5.53688e-42
1.52009e-41
0
0
5.8052e-06
5.00816e-06
1.22876e-05
1.7497e-05
1.49033e-05
7.4755e-06
2.36731e-06
3.21426e-06
8.4154e-06
1.6152e-05
2.53867e-05
3.1134e-05
2.93409e-05
2.12419e-05
1.2204e-05
7.22412e-06
7.60705e-06
1.10548e-05
1.40484e-05
1.4436e-05
1.22102e-05
8.77346e-06
5.70295e-06
3.88606e-06
3.33524e-06
3.51089e-06
3.77344e-06
3.70493e-06
3.20129e-06
2.40052e-06
1.53726e-06
8.14797e-07
3.37025e-07
9.54433e-08
1.22773e-08
0
0
0
0
0
0
0
0
0
0
0
4.58042e-107
5.35996e-106
0
0
1.3209e-96
2.28155e-95
0
0
1.04173e-80
1.02923e-79
0
0
1.4026e-63
8.12955e-63
0
0
8.58659e-57
1.7689e-55
0
0
0
0
0
0
0
3.81014e-40
2.12943e-39
4.3849e-39
4.31866e-39
1.65192e-39
0
0
0
3.76241e-36
3.72359e-06
4.36985e-06
1.06091e-05
1.47783e-05
1.29628e-05
7.09911e-06
2.29679e-06
1.86807e-06
5.33877e-06
1.10086e-05
1.80853e-05
2.43435e-05
2.59732e-05
2.18626e-05
1.49394e-05
9.85224e-06
9.36696e-06
1.28522e-05
1.73202e-05
1.98036e-05
1.90326e-05
1.56126e-05
1.11508e-05
7.18847e-06
4.55208e-06
3.28368e-06
2.9302e-06
2.91986e-06
2.82811e-06
2.47547e-06
1.89665e-06
1.24043e-06
6.68349e-07
2.78149e-07
7.74652e-08
9.26423e-09
0
0
0
0
0
0
0
0
0
2.78472e-109
3.00015e-107
0
0
2.17816e-98
1.05264e-96
0
0
4.19147e-82
1.22038e-80
0
0
1.46214e-64
3.80431e-63
0
0
9.17579e-58
2.92756e-56
0
0
5.42079e-49
1.56495e-46
6.4051e-46
5.2154e-46
0
0
9.19948e-40
5.21796e-39
1.06901e-38
1.03604e-38
3.77008e-39
0
0
2.6475e-39
1.07389e-35
2.38854e-06
4.08993e-06
9.20219e-06
1.20929e-05
1.0475e-05
5.95519e-06
1.97525e-06
1.03139e-06
3.24659e-06
7.38746e-06
1.26831e-05
1.82083e-05
2.14507e-05
2.04884e-05
1.61513e-05
1.17341e-05
1.04432e-05
1.31661e-05
1.81576e-05
2.25187e-05
2.40528e-05
2.22308e-05
1.80037e-05
1.29605e-05
8.48129e-06
5.29766e-06
3.47664e-06
2.66287e-06
2.37188e-06
2.19974e-06
1.92151e-06
1.49175e-06
9.89643e-07
5.37139e-07
2.21624e-07
5.94308e-08
6.34824e-09
0
0
0
0
0
0
0
0
2.01893e-109
1.00048e-107
0
0
1.82681e-98
4.47362e-97
0
0
6.03786e-82
8.79607e-81
0
0
5.11887e-64
7.29135e-63
0
0
6.68574e-58
2.27369e-56
0
0
0
3.61297e-46
3.98864e-45
8.76752e-45
8.3253e-46
0
0
0
0
0
0
0
0
2.18526e-37
1.30106e-35
1.64125e-06
3.98206e-06
7.9555e-06
9.5991e-06
7.92388e-06
4.44808e-06
1.43629e-06
5.11144e-07
1.95476e-06
5.02229e-06
9.03507e-06
1.35245e-05
1.71299e-05
1.81057e-05
1.60495e-05
1.27202e-05
1.08897e-05
1.23451e-05
1.67384e-05
2.19857e-05
2.56653e-05
2.63036e-05
2.38466e-05
1.93276e-05
1.41561e-05
9.50503e-06
6.011e-06
3.7825e-06
2.57976e-06
2.02105e-06
1.74206e-06
1.49089e-06
1.16204e-06
7.76964e-07
4.21215e-07
1.70417e-07
4.34616e-08
3.96117e-09
0
0
0
0
0
0
0
4.66125e-110
9.8372e-109
0
0
6.22297e-99
8.44849e-98
0
0
4.27403e-82
3.7152e-81
0
0
6.01981e-64
4.59889e-63
0
0
2.03226e-57
4.18068e-56
8.81056e-56
0
0
7.89801e-46
6.03731e-45
1.05337e-44
0
0
5.75896e-39
3.70431e-38
7.94837e-38
7.64398e-38
3.08465e-38
0
0
1.00876e-38
9.93496e-36
1.32849e-06
3.89262e-06
6.76321e-06
7.34434e-06
5.57992e-06
2.91955e-06
8.4167e-07
2.49207e-07
1.34575e-06
3.73202e-06
6.88978e-06
1.04772e-05
1.38123e-05
1.56711e-05
1.5211e-05
1.30041e-05
1.09478e-05
1.10163e-05
1.39405e-05
1.87886e-05
2.36115e-05
2.65464e-05
2.66441e-05
2.40639e-05
1.97325e-05
1.48089e-05
1.02539e-05
6.6309e-06
4.11239e-06
2.58754e-06
1.78614e-06
1.39443e-06
1.14659e-06
8.89835e-07
5.96699e-07
3.21344e-07
1.26872e-07
3.0844e-08
2.65551e-09
0
0
0
0
0
0
2.57396e-112
0
0
0
0
0
0
0
0
0
0
0
0
0
0
0
3.51875e-56
2.00606e-55
2.74914e-55
0
0
0
0
0
0
2.77185e-39
1.73227e-38
3.51629e-38
0
0
0
0
2.2889e-36
1.20604e-35
2.34331e-35
1.29921e-06
3.7224e-06
5.57252e-06
5.35197e-06
3.59559e-06
1.62417e-06
3.85432e-07
2.74242e-07
1.34166e-06
3.36924e-06
5.99396e-06
8.91524e-06
1.17626e-05
1.37988e-05
1.42197e-05
1.29178e-05
1.08959e-05
9.79314e-06
1.08763e-05
1.42621e-05
1.88806e-05
2.30994e-05
2.55243e-05
2.55172e-05
2.32607e-05
1.94783e-05
1.50597e-05
1.07743e-05
7.14102e-06
4.41576e-06
2.623e-06
1.60937e-06
1.11354e-06
8.62126e-07
6.62216e-07
4.4506e-07
2.382e-07
9.25058e-08
2.25035e-08
2.21575e-09
0
0
0
0
0
0
0
0
0
4.19957e-82
3.39815e-81
0
0
8.63901e-72
1.78057e-70
0
0
6.2875e-62
3.30608e-61
0
0
0
0
0
0
4.1444e-38
2.19275e-35
9.24701e-35
6.98881e-35
0
0
0
0
0
1.05847e-30
0
0
0
0
4.45734e-35
1.40711e-06
3.42237e-06
4.38719e-06
3.65373e-06
2.0611e-06
7.29083e-07
2.30889e-07
6.41929e-07
1.87584e-06
3.77586e-06
6.0839e-06
8.53033e-06
1.08688e-05
1.26961e-05
1.3436e-05
1.27273e-05
1.09047e-05
9.04354e-06
8.43379e-06
9.85223e-06
1.3134e-05
1.7288e-05
2.101e-05
2.32427e-05
2.34973e-05
2.1873e-05
1.88544e-05
1.5073e-05
1.11373e-05
7.55002e-06
4.66409e-06
2.64411e-06
1.44998e-06
8.69203e-07
6.19273e-07
4.70826e-07
3.1967e-07
1.71056e-07
6.63148e-08
1.58926e-08
1.35135e-09
0
0
0
0
0
2.50177e-87
1.02403e-84
0
0
0
0
1.51223e-71
3.52859e-70
0
0
3.50212e-64
2.43413e-62
0
0
2.7705e-54
4.33407e-53
9.48847e-53
0
0
2.11027e-36
1.22965e-35
0
0
3.28494e-31
3.60068e-30
9.65108e-30
1.15565e-29
4.16986e-30
2.70333e-31
0
0
0
3.57415e-29
0
1.52488e-06
2.98583e-06
3.2524e-06
2.29034e-06
1.02368e-06
3.19101e-07
4.73544e-07
1.37991e-06
2.85969e-06
4.75549e-06
6.86158e-06
8.9415e-06
1.08053e-05
1.22487e-05
1.29414e-05
1.25309e-05
1.0976e-05
8.80657e-06
7.01061e-06
6.57374e-06
7.97312e-06
1.09479e-05
1.46576e-05
1.80808e-05
2.03837e-05
2.11354e-05
2.02994e-05
1.8119e-05
1.49944e-05
1.14085e-05
7.86882e-06
4.8379e-06
2.6213e-06
1.28118e-06
6.42612e-07
4.07656e-07
3.10642e-07
2.1581e-07
1.14487e-07
4.38705e-08
9.99397e-09
8.34716e-10
0
0
0
0
0
0
0
3.53268e-77
1.33795e-75
0
9.22781e-73
0
0
6.03064e-64
8.22444e-63
0
0
1.59936e-55
2.62663e-54
6.97713e-54
0
0
9.77716e-38
8.99373e-37
5.40383e-37
0
0
1.61304e-30
7.9274e-30
1.15914e-29
0
0
0
0
5.57747e-27
2.0496e-26
0
0
1.56195e-06
2.44283e-06
2.23654e-06
1.30129e-06
4.92612e-07
4.0422e-07
1.12426e-06
2.44979e-06
4.15457e-06
6.06247e-06
7.98955e-06
9.73586e-06
1.11544e-05
1.21558e-05
1.26038e-05
1.22679e-05
1.09731e-05
8.85968e-06
6.50643e-06
4.76625e-06
4.38928e-06
5.67174e-06
8.33792e-06
1.17032e-05
1.49957e-05
1.75246e-05
1.88631e-05
1.8832e-05
1.74515e-05
1.49207e-05
1.16227e-05
8.09655e-06
4.92133e-06
2.53538e-06
1.08811e-06
4.24768e-07
2.22643e-07
1.78458e-07
1.30969e-07
7.26548e-08
2.83276e-08
6.57444e-09
5.74783e-10
0
0
0
6.99571e-84
4.40654e-81
0
0
1.60699e-73
2.92581e-71
0
0
6.27549e-66
4.15854e-64
0
0
0
0
1.39542e-56
0
0
2.72937e-40
5.61303e-39
0
0
1.49936e-32
1.53932e-31
7.08874e-31
0
0
0
3.51375e-26
4.06362e-25
5.53041e-25
2.91559e-25
2.76167e-26
0
0
1.47611e-06
1.85392e-06
1.41479e-06
7.13171e-07
4.40388e-07
9.28207e-07
2.10834e-06
3.73297e-06
5.56247e-06
7.41104e-06
9.11153e-06
1.05066e-05
1.14957e-05
1.20591e-05
1.21887e-05
1.1792e-05
1.07077e-05
8.87094e-06
6.50705e-06
4.17393e-06
2.58369e-06
2.30237e-06
3.49446e-06
5.90545e-06
9.02675e-06
1.2249e-05
1.50254e-05
1.69247e-05
1.76259e-05
1.694e-05
1.48905e-05
1.17904e-05
8.22707e-06
4.90229e-06
2.37693e-06
8.6506e-07
2.16187e-07
7.6786e-08
9.45763e-08
8.08231e-08
4.8085e-08
1.92338e-08
4.42323e-09
3.34166e-10
0
0
3.0549e-84
0
0
1.43332e-76
2.21673e-74
0
0
2.96903e-67
1.89164e-65
0
0
3.64877e-52
1.41468e-50
5.17608e-52
0
0
0
0
0
2.41164e-34
5.71732e-33
2.34794e-32
5.17408e-32
0
0
1.688e-25
6.42869e-25
1.28813e-24
1.6822e-24
1.301e-24
4.60729e-25
0
0
0
1.27482e-06
1.29931e-06
8.53854e-07
5.28165e-07
8.01286e-07
1.77727e-06
3.27769e-06
5.04166e-06
6.84247e-06
8.50656e-06
9.89554e-06
1.09025e-05
1.1477e-05
1.16448e-05
1.1468e-05
1.09587e-05
1.0028e-05
8.55227e-06
6.53183e-06
4.2255e-06
2.13541e-06
8.44875e-07
7.79795e-07
1.95727e-06
4.07753e-06
6.90193e-06
1.00264e-05
1.30138e-05
1.54064e-05
1.67325e-05
1.66092e-05
1.491e-05
1.19048e-05
8.25012e-06
4.7738e-06
2.14261e-06
6.21538e-07
5.7076e-08
2.41372e-08
5.80383e-08
5.48509e-08
3.35919e-08
1.30321e-08
2.68875e-09
1.3009e-10
0
0
0
0
2.62407e-77
0
0
2.13455e-69
2.98913e-67
0
0
7.63541e-56
2.10507e-53
0
0
1.2755e-46
1.58816e-45
9.35849e-46
0
0
1.01993e-33
9.3015e-33
1.78183e-32
0
0
2.2973e-25
1.07953e-24
2.10945e-24
2.01445e-24
1.0587e-24
2.66993e-25
7.99925e-26
6.98631e-25
0
1.19869e-26
1.00642e-06
8.63294e-07
5.9671e-07
7.13099e-07
1.46919e-06
2.79085e-06
4.43461e-06
6.1519e-06
7.75072e-06
9.09389e-06
1.00882e-05
1.06822e-05
1.08738e-05
1.07168e-05
1.0301e-05
9.69408e-06
8.87974e-06
7.7567e-06
6.2294e-06
4.34303e-06
2.35618e-06
7.10849e-07
4.29081e-09
2.14496e-07
1.08035e-06
2.80781e-06
5.30471e-06
8.3227e-06
1.1495e-05
1.4309e-05
1.61457e-05
1.64461e-05
1.49619e-05
1.19499e-05
8.1551e-06
4.53124e-06
1.85013e-06
4.21212e-07
1.2731e-08
1.53864e-08
4.12835e-08
3.94597e-08
2.33609e-08
8.17967e-09
1.38228e-09
1.57943e-11
0
8.61346e-18
2.8317e-17
0
0
0
2.08882e-69
3.51139e-67
0
0
3.95719e-58
0
0
0
3.26981e-46
2.00146e-45
0
0
1.43072e-35
1.14936e-33
4.55447e-33
0
0
6.45685e-26
4.55759e-25
8.83316e-25
9.72088e-26
0
0
0
2.13264e-24
2.01912e-27
7.62349e-27
6.66898e-26
7.43629e-07
6.15878e-07
6.48591e-07
1.19158e-06
2.29958e-06
3.77891e-06
5.36673e-06
6.8511e-06
8.09303e-06
9.00995e-06
9.56412e-06
9.75727e-06
9.62575e-06
9.2367e-06
8.67863e-06
8.03226e-06
7.32529e-06
6.50477e-06
5.46732e-06
4.15074e-06
2.62531e-06
1.13757e-06
1.52218e-07
0
4.02788e-08
5.83506e-07
1.93577e-06
4.14426e-06
7.08223e-06
1.04228e-05
1.35908e-05
1.5827e-05
1.64169e-05
1.50189e-05
1.19055e-05
7.93031e-06
4.19242e-06
1.56645e-06
3.11488e-07
3.03791e-10
1.33202e-08
3.13141e-08
2.83976e-08
1.53736e-08
4.62028e-09
5.77734e-10
0
5.16788e-18
7.97086e-17
0
0
0
0
0
0
0
0
0
4.18265e-49
3.26537e-48
0
0
0
1.64244e-36
8.32395e-36
0
0
0
4.15708e-27
2.7767e-26
0
0
5.26216e-24
4.40567e-23
8.05078e-23
5.82863e-23
1.33763e-23
2.01137e-24
0
0
5.6273e-07
5.95163e-07
9.67419e-07
1.84384e-06
3.12123e-06
4.54922e-06
5.88955e-06
6.98926e-06
7.77438e-06
8.22374e-06
8.35322e-06
8.20594e-06
7.84106e-06
7.32506e-06
6.7281e-06
6.11617e-06
5.52933e-06
4.95455e-06
4.32101e-06
3.54162e-06
2.58234e-06
1.52283e-06
6.0432e-07
1.51533e-07
0
2.27978e-10
2.99455e-07
1.34999e-06
3.33547e-06
6.22931e-06
9.72757e-06
1.31902e-05
1.5726e-05
1.64817e-05
1.50479e-05
1.17466e-05
7.57976e-06
3.80262e-06
1.30985e-06
2.16457e-07
0
1.25033e-08
2.38133e-08
1.97759e-08
9.39092e-09
2.3082e-09
1.74282e-10
0
5.78409e-17
0
1.37127e-76
0
0
1.98807e-61
8.67666e-61
0
0
5.60022e-51
1.24436e-49
0
0
2.01792e-39
1.27496e-38
0
0
1.19245e-31
1.00694e-30
0
0
0
3.18473e-24
4.0091e-23
1.11856e-22
1.30437e-22
3.3564e-23
0
0
4.53766e-24
1.05317e-23
5.0841e-25
5.2214e-07
7.94425e-07
1.46289e-06
2.51832e-06
3.76045e-06
4.94298e-06
5.88933e-06
6.52052e-06
6.82921e-06
6.84863e-06
6.63407e-06
6.2509e-06
5.76286e-06
5.22403e-06
4.67899e-06
4.16699e-06
3.71867e-06
3.34075e-06
3.00003e-06
2.62887e-06
2.16006e-06
1.57282e-06
9.35848e-07
4.22749e-07
1.18341e-07
0
0
1.43194e-07
9.71396e-07
2.79875e-06
5.68387e-06
9.33628e-06
1.30477e-05
1.57951e-05
1.65961e-05
1.50062e-05
1.1449e-05
7.10745e-06
3.35246e-06
1.03551e-06
1.30049e-07
0
1.15623e-08
1.78052e-08
1.31013e-08
5.19908e-09
9.62585e-10
2.76507e-11
3.74083e-17
0
0
0
1.72636e-62
1.875e-61
0
0
1.74834e-52
1.97905e-51
0
0
2.74949e-41
5.90789e-40
0
0
1.44572e-33
2.50512e-32
0
1.18107e-31
6.61326e-26
3.28192e-25
0
6.68446e-25
5.95324e-23
2.83219e-22
6.4157e-22
8.82045e-22
4.66474e-22
0
0
8.44928e-24
6.44728e-07
1.15791e-06
2.00758e-06
3.05623e-06
4.07462e-06
4.87148e-06
5.35497e-06
5.52195e-06
5.42048e-06
5.11933e-06
4.69102e-06
4.20175e-06
3.70362e-06
3.23066e-06
2.80189e-06
2.43005e-06
2.12805e-06
1.90532e-06
1.7542e-06
1.63869e-06
1.50099e-06
1.28434e-06
9.64241e-07
5.85492e-07
2.74634e-07
8.12148e-08
0
0
6.34749e-08
7.36725e-07
2.46345e-06
5.37762e-06
9.19178e-06
1.31157e-05
1.59836e-05
1.66997e-05
1.48333e-05
1.09652e-05
6.47548e-06
2.82077e-06
7.52042e-07
6.27486e-08
0
1.03022e-08
1.2848e-08
7.97026e-09
2.50785e-09
3.23507e-10
0
0
0
7.25091e-64
1.17818e-62
0
0
7.90065e-54
1.32126e-52
0
0
3.34931e-43
6.86689e-42
0
0
4.30606e-35
5.85386e-34
0
0
0
0
7.69407e-27
3.17846e-23
1.5636e-22
1.38913e-22
0
0
2.61264e-22
1.22909e-21
1.7057e-21
5.36707e-22
0
9.08184e-07
1.58845e-06
2.4605e-06
3.32497e-06
3.98672e-06
4.34204e-06
4.38725e-06
4.18103e-06
3.80446e-06
3.33678e-06
2.84453e-06
2.37691e-06
1.96391e-06
1.61716e-06
1.33497e-06
1.11109e-06
9.43197e-07
8.35252e-07
7.9036e-07
7.97961e-07
8.26082e-07
8.24863e-07
7.4279e-07
5.61022e-07
3.48721e-07
1.67241e-07
5.16949e-08
2.63556e-09
0
2.61522e-08
5.97912e-07
2.27825e-06
5.26481e-06
9.25305e-06
1.33441e-05
1.62189e-05
1.66978e-05
1.44305e-05
1.02215e-05
5.65984e-06
2.22085e-06
4.8563e-07
1.82381e-08
1.34948e-09
8.57359e-09
8.62e-09
4.31209e-09
1.04818e-09
8.20948e-11
0
0
0
0
0
0
5.43928e-55
0
0
0
2.86756e-43
1.95002e-42
0
0
7.60672e-37
0
0
6.13207e-27
1.32269e-25
1.7344e-25
0
0
2.864e-23
1.46634e-21
6.48002e-21
8.04026e-21
0
0
0
2.15207e-21
0
1.24692e-06
1.96763e-06
2.69929e-06
3.2516e-06
3.50866e-06
3.46197e-06
3.17862e-06
2.75205e-06
2.26863e-06
1.79419e-06
1.37179e-06
1.02366e-06
7.54796e-07
5.5744e-07
4.16919e-07
3.18345e-07
2.52298e-07
2.17011e-07
2.15978e-07
2.51943e-07
3.18399e-07
3.9121e-07
4.30226e-07
4.00854e-07
3.1176e-07
1.97525e-07
9.58749e-08
3.05163e-08
3.02995e-09
0
1.02617e-08
5.2466e-07
2.21264e-06
5.31514e-06
9.47689e-06
1.36576e-05
1.63846e-05
1.64509e-05
1.36816e-05
9.16556e-06
4.66744e-06
1.59854e-06
2.62652e-07
0
2.63007e-09
6.5197e-09
5.24722e-09
2.06867e-09
3.73408e-10
1.10167e-11
0
1.00801e-18
2.73635e-18
0
5.31327e-54
0
0
1.79428e-47
2.26484e-45
0
0
2.91813e-38
2.87522e-35
1.20908e-34
0
0
0
0
5.80213e-24
7.61259e-23
1.44038e-22
0
1.85082e-22
1.45545e-20
6.60238e-20
1.33058e-19
1.25303e-19
1.56844e-20
5.32434e-24
0
1.56689e-06
2.18529e-06
2.65278e-06
2.84507e-06
2.7427e-06
2.41465e-06
1.9657e-06
1.4915e-06
1.05863e-06
7.03184e-07
4.36873e-07
2.54396e-07
1.40185e-07
7.44388e-08
3.8767e-08
2.00557e-08
1.08052e-08
7.63858e-09
1.03956e-08
2.38797e-08
5.67803e-08
1.10837e-07
1.70244e-07
2.08367e-07
2.05476e-07
1.6502e-07
1.06037e-07
5.15899e-08
1.68039e-08
2.21771e-09
0
4.38399e-09
5.00797e-07
2.24798e-06
5.49612e-06
9.79585e-06
1.3937e-05
1.63201e-05
1.58047e-05
1.24946e-05
7.78923e-06
3.56341e-06
1.01589e-06
1.04746e-07
0
2.95963e-09
4.53964e-09
2.88528e-09
8.80069e-10
1.0379e-10
0
1.00059e-18
1.08189e-17
0
2.81616e-54
0
0
1.65833e-47
5.64226e-46
0
0
0
0
1.10852e-33
5.4901e-32
1.74765e-31
0
0
4.12472e-24
3.51365e-22
1.38803e-21
1.77165e-21
2.05421e-21
1.42136e-20
4.10642e-20
3.27769e-20
3.42557e-20
2.22589e-19
0
0
1.77129e-06
2.17107e-06
2.32296e-06
2.19689e-06
1.85644e-06
1.41147e-06
9.66077e-07
5.89755e-07
3.13284e-07
1.37273e-07
4.37607e-08
6.36004e-09
0
0
0
0
0
0
0
0
0
6.227e-09
3.13014e-08
6.72633e-08
9.44196e-08
9.97031e-08
8.28115e-08
5.38276e-08
2.64699e-08
8.93999e-09
1.39992e-09
0
2.94677e-09
5.17875e-07
2.36456e-06
5.75726e-06
1.01074e-05
1.40254e-05
1.58507e-05
1.46315e-05
1.08407e-05
6.17096e-06
2.45664e-06
5.38604e-07
2.41254e-08
0
2.64548e-09
2.91052e-09
1.43023e-09
3.12364e-10
1.24655e-11
0
1.23081e-17
0
0
0
4.35291e-50
2.76083e-48
2.98949e-48
0
0
0
0
3.4727e-33
2.58896e-31
8.33103e-31
0
0
5.51997e-24
6.03118e-22
2.41776e-21
3.57951e-21
2.10077e-21
3.61737e-22
0
4.24763e-20
7.77849e-19
5.32705e-20
0
0
1.79066e-06
1.91743e-06
1.78689e-06
1.45641e-06
1.03555e-06
6.32068e-07
3.17173e-07
1.17562e-07
2.28656e-08
0
0
0
0
0
0
0
0
0
0
0
0
0
0
6.5145e-09
2.35763e-08
3.97089e-08
4.55877e-08
3.93597e-08
2.62223e-08
1.33859e-08
4.86677e-09
9.38185e-10
0
4.04721e-09
5.68523e-07
2.533e-06
6.02534e-06
1.02807e-05
1.37529e-05
1.48294e-05
1.28828e-05
8.80404e-06
4.46923e-06
1.47668e-06
2.22235e-07
0
5.57245e-10
2.08666e-09
1.70011e-09
5.89242e-10
6.96921e-11
0
4.24086e-18
0
0
1.86641e-54
8.46425e-51
2.64573e-50
0
0
0
0
0
3.15818e-32
4.01628e-31
9.1772e-31
0
0
3.33796e-23
3.22872e-22
7.82282e-22
9.89438e-24
0
0
0
4.34819e-18
3.18935e-18
0
0
7.20379e-10
1.60739e-06
1.48428e-06
1.17394e-06
7.85408e-07
4.27625e-07
1.70559e-07
3.54558e-08
3.69311e-12
0
0
0
0
1.00127e-12
9.44158e-12
2.45972e-11
4.68187e-11
7.54522e-11
1.13091e-10
1.65395e-10
2.27417e-10
2.73498e-10
9.32012e-11
0
0
5.59392e-10
7.01751e-09
1.53259e-08
1.96131e-08
1.80439e-08
1.28472e-08
7.26983e-09
3.21944e-09
8.76851e-10
0
8.0747e-09
6.42434e-07
2.71243e-06
6.20849e-06
1.01737e-05
1.29753e-05
1.31952e-05
1.06423e-05
6.58589e-06
2.88755e-06
7.46946e-07
6.20951e-08
0
9.027e-10
1.47064e-09
8.09847e-10
1.71614e-10
5.35141e-12
0
0
0
0
0
0
0
0
0
0
3.02873e-34
5.08389e-32
2.18973e-31
0
0
2.67709e-24
1.58575e-23
0
0
0
7.65842e-18
2.65464e-17
2.98254e-17
1.5929e-17
5.13357e-19
0
0
6.31949e-09
1.26403e-06
9.80138e-07
6.23459e-07
3.05584e-07
9.5382e-08
7.55671e-09
0
0
0
0
2.43507e-12
9.19201e-12
2.55285e-11
5.85683e-11
1.1228e-10
1.85366e-10
2.7482e-10
3.85239e-10
5.33893e-10
7.38041e-10
9.81973e-10
1.15482e-09
1.06271e-09
5.74918e-10
0
0
1.53214e-09
5.32764e-09
8.48633e-09
8.93297e-09
7.40798e-09
5.27347e-09
3.2044e-09
1.14122e-09
0
1.59599e-08
7.2506e-07
2.8511e-06
6.20658e-06
9.66661e-06
1.16313e-05
1.1026e-05
8.13422e-06
4.45401e-06
1.62528e-06
2.99733e-07
7.75546e-09
0
8.84741e-10
8.31353e-10
2.91316e-10
3.16978e-11
0
0
9.00284e-58
0
0
4.2391e-44
5.18324e-43
1.05983e-42
0
0
2.71564e-33
2.15751e-32
0
0
1.5817e-25
1.12279e-24
0
0
1.26622e-17
8.18749e-17
1.84178e-16
2.12848e-16
1.23427e-16
1.90381e-17
0
0
3.29149e-09
1.95408e-08
8.4932e-07
5.23996e-07
2.36696e-07
5.84999e-08
6.50855e-10
0
0
0
1.93649e-12
7.83047e-12
2.06113e-11
4.52453e-11
9.12145e-11
1.69468e-10
2.86712e-10
4.41325e-10
6.27541e-10
8.47126e-10
1.12047e-09
1.48484e-09
1.96659e-09
2.50917e-09
2.94298e-09
2.99385e-09
2.37229e-09
1.24943e-09
0
4.68988e-10
3.10529e-09
5.34395e-09
6.39521e-09
6.46951e-09
5.87001e-09
4.33162e-09
1.59424e-09
0
2.75515e-08
7.96263e-07
2.89182e-06
5.93591e-06
8.7094e-06
9.79087e-06
8.54717e-06
5.66762e-06
2.67367e-06
7.66812e-07
8.54826e-08
0
2.40941e-10
6.27676e-10
3.84442e-10
8.26034e-11
1.05448e-12
0
8.97028e-58
0
0
1.23414e-43
6.43143e-43
0
0
1.11384e-34
1.13289e-33
0
0
7.61046e-27
6.02349e-26
0
0
4.64264e-18
1.01042e-16
3.35699e-16
5.35503e-16
4.46149e-16
1.37814e-16
0
0
1.77311e-09
1.46641e-08
4.01945e-08
4.65028e-07
2.0222e-07
4.2599e-08
0
0
0
2.40783e-13
3.90707e-12
1.36314e-11
3.31545e-11
6.72327e-11
1.23754e-10
2.1485e-10
3.54383e-10
5.51462e-10
8.05177e-10
1.10655e-09
1.45007e-09
1.84957e-09
2.34765e-09
3.00159e-09
3.82951e-09
4.76212e-09
5.55958e-09
5.85678e-09
5.32871e-09
4.01548e-09
2.84618e-09
3.37387e-09
4.70666e-09
6.14447e-09
7.36018e-09
8.19137e-09
8.1638e-09
6.19979e-09
2.03408e-09
0
4.05304e-08
8.32168e-07
2.78822e-06
5.3673e-06
7.36086e-06
7.65329e-06
6.06781e-06
3.54183e-06
1.38212e-06
2.85247e-07
1.31344e-08
0
3.24592e-10
3.95175e-10
1.49328e-10
1.27657e-11
0
0
0
4.83979e-45
6.63977e-44
0
0
3.02972e-36
4.05081e-35
0
0
5.20047e-28
5.18189e-27
1.10097e-26
0
0
4.1117e-17
2.56646e-16
5.64726e-16
5.71796e-16
1.69207e-16
0
0
6.10233e-10
1.31334e-08
3.75134e-08
6.41512e-08
1.87497e-07
3.85251e-08
0
0
0
1.07894e-12
5.89202e-12
1.8145e-11
4.27671e-11
8.53455e-11
1.52021e-10
2.51161e-10
3.94768e-10
5.96819e-10
8.67497e-10
1.20673e-09
1.60325e-09
2.04365e-09
2.53006e-09
3.09646e-09
3.81012e-09
4.74508e-09
5.92626e-09
7.24887e-09
8.43207e-09
9.06016e-09
8.83493e-09
7.91523e-09
7.21248e-09
7.09231e-09
7.61514e-09
8.69733e-09
1.01376e-08
1.14512e-08
1.14435e-08
8.35392e-09
2.26416e-09
0
5.0548e-08
8.1587e-07
2.52894e-06
4.54128e-06
5.77292e-06
5.48712e-06
3.88278e-06
1.93317e-06
5.87327e-07
7.35799e-08
0
4.35084e-11
3.08003e-10
2.19519e-10
5.06455e-11
9.0778e-13
0
8.52249e-47
2.01847e-45
0
0
5.18605e-38
9.21526e-37
0
0
7.96666e-29
9.2809e-28
2.38405e-27
0
0
5.11903e-18
9.67376e-17
3.246e-16
4.13085e-16
0
0
0
3.71552e-09
1.96238e-08
4.65152e-08
7.23407e-08
8.47808e-08
4.05734e-08
0
0
0
1.84313e-12
8.0251e-12
2.212e-11
4.92255e-11
9.57153e-11
1.67938e-10
2.71421e-10
4.12109e-10
5.98518e-10
8.41626e-10
1.15055e-09
1.52588e-09
1.95639e-09
2.42442e-09
2.92129e-09
3.46638e-09
4.11905e-09
4.97354e-09
6.11788e-09
7.56948e-09
9.20108e-09
1.07098e-08
1.1694e-08
1.18667e-08
1.13247e-08
1.05963e-08
1.02014e-08
1.053e-08
1.17383e-08
1.36237e-08
1.53435e-08
1.49729e-08
1.03255e-08
2.24099e-09
0
5.44586e-08
7.44292e-07
2.13598e-06
3.55464e-06
4.14612e-06
3.54755e-06
2.18281e-06
8.83737e-07
1.86462e-07
8.77974e-09
0
1.77921e-10
2.88797e-10
1.44861e-10
3.36811e-11
2.82008e-12
0
0
0
2.66641e-40
1.54977e-38
6.23223e-38
0
0
2.06325e-28
1.11862e-27
1.51194e-27
0
0
1.85809e-17
1.06271e-16
1.82463e-16
0
0
4.49006e-09
2.25483e-08
5.52778e-08
9.14823e-08
1.14659e-07
1.15447e-07
9.68109e-08
1.11388e-10
0
0
2.73648e-12
1.02305e-11
2.59359e-11
5.41672e-11
1.00412e-10
1.70774e-10
2.70197e-10
4.01276e-10
5.65448e-10
7.65815e-10
1.0085e-09
1.30004e-09
1.64172e-09
2.02512e-09
2.43395e-09
2.8546e-09
3.29319e-09
3.79138e-09
4.43345e-09
5.32747e-09
6.5645e-09
8.1543e-09
9.95834e-09
1.16701e-08
1.28754e-08
1.32448e-08
1.29202e-08
1.23416e-08
1.20935e-08
1.27019e-08
1.44112e-08
1.69386e-08
1.90242e-08
1.80609e-08
1.1806e-08
2.12464e-09
0
5.15698e-08
6.25352e-07
1.65698e-06
2.53423e-06
2.67405e-06
2.01151e-06
1.03249e-06
3.09409e-07
3.29435e-08
0
6.52118e-11
3.52183e-10
3.07312e-10
1.3005e-10
2.33958e-11
0
0
0
0
7.24557e-40
0
0
1.35437e-29
2.55552e-28
7.11036e-28
0
0
2.0614e-18
2.06399e-17
4.92589e-17
0
0
7.35661e-09
4.63779e-08
1.18192e-07
1.90882e-07
2.23431e-07
2.03945e-07
1.53284e-07
9.84544e-08
0
4.64697e-14
3.87782e-12
1.24878e-11
2.92691e-11
5.78096e-11
1.01864e-10
1.65546e-10
2.52598e-10
3.64694e-10
5.00478e-10
6.56911e-10
8.32298e-10
1.02835e-09
1.24906e-09
1.49666e-09
1.76736e-09
2.05064e-09
2.33473e-09
2.61787e-09
2.92262e-09
3.30697e-09
3.86343e-09
4.70181e-09
5.90851e-09
7.48436e-09
9.2849e-09
1.09933e-08