/*--------------------------------*- C++ -*----------------------------------*\
  =========                 |
  \\      /  F ield         | OpenFOAM: The Open Source CFD Toolbox
   \\    /   O peration     | Website:  https://openfoam.org
    \\  /    A nd           | Version:  7
     \\/     M anipulation  |
\*---------------------------------------------------------------------------*/
FoamFile
{
    version     2.0;
    format      ascii;
    class       volScalarField;
    location    "30";
    object      k1Write;
}
// * * * * * * * * * * * * * * * * * * * * * * * * * * * * * * * * * * * * * //

dimensions      [0 2 0 0 0 0 0];

internalField   nonuniform List<scalar> 
49920
(
1.40759e-16
1.16638e-19
3.39737e-21
7.18127e-21
6.91371e-21
1.44831e-20
8.99264e-21
2.09805e-21
3.83913e-21
9.46923e-21
7.2575e-21
3.80265e-21
6.39885e-21
2.45226e-21
1.35362e-20
2.95359e-18
1.70725e-15
2.75722e-11
0.000167073
0.000167073
0.000167073
0.000167073
0.000167073
0.000167073
0.000167073
0.000167073
0.000167073
0.000167073
0.000167073
0.000167073
0.000167073
0.000167073
0.000167073
0.000167073
0.000167073
0.000167073
0.000167073
0.000167073
0.000167073
0.000167073
0.000167073
0.000167073
0.000167073
0.000167073
0.000167073
0.000167073
0.000167073
0.000167074
0.000167074
0.000167074
0.000167073
0.000167074
0.000167073
0.000167074
0.000167072
0.000167074
0.000167073
0.000167074
0.000167073
0.000167074
0.000167072
0.000167074
0.000167072
0.000167074
0.000167072
0.000167074
0.000167072
0.000167074
0.000167072
0.000167074
0.000167071
0.000167074
0.000167071
0.000167074
0.000167071
0.000167074
0.000167071
0.000167074
0.000167071
0.000167074
1.31071e-16
8.30833e-18
4.90387e-19
1.17548e-20
1.1113e-20
4.5966e-20
6.75437e-21
3.4065e-20
8.16742e-21
1.1857e-20
1.57758e-20
9.44182e-21
4.90495e-21
3.44968e-20
1.19396e-18
3.02952e-17
2.85324e-15
3.30771e-09
0.000167073
0.000167073
0.000167073
0.000167073
0.000167073
0.000167073
0.000167073
0.000167073
0.000167073
0.000167073
0.000167073
0.000167073
0.000167073
0.000167073
0.000167073
0.000167073
0.000167073
0.000167073
0.000167072
0.000167073
0.000167072
0.000167073
0.000167073
0.000167073
0.000167073
0.000167073
0.000167073
0.000167073
0.000167073
0.000167074
0.000167074
0.000167073
0.000167074
0.000167073
0.000167075
0.000167073
0.000167076
0.000167073
0.000167076
0.000167073
0.000167076
0.000167073
0.000167076
0.000167073
0.000167076
0.000167073
0.000167076
0.000167072
0.000167076
0.000167072
0.000167076
0.000167072
0.000167075
0.000167072
0.000167076
0.000167072
0.000167075
0.000167071
0.000167074
0.00016707
0.000167073
0.00016707
7.37685e-16
3.59923e-16
1.90576e-17
1.41497e-18
1.29913e-18
2.93249e-18
1.18971e-18
2.49059e-18
1.27167e-18
4.68655e-20
4.36228e-20
4.90736e-20
2.1388e-19
2.21469e-18
2.61504e-17
3.7017e-16
8.4641e-15
1.1492e-12
0.000167073
0.000167073
0.000167073
0.000167073
0.000167073
0.000167073
0.000167073
0.000167073
0.000167073
0.000167073
0.000167073
0.000167073
0.000167073
0.000167072
0.000167073
0.000167072
0.000167072
0.000167072
0.000167072
0.000167072
0.000167073
0.000167072
0.000167073
0.000167073
0.000167073
0.000167073
0.000167073
0.000167073
0.000167074
0.000167074
0.000167074
0.000167074
0.000167073
0.000167075
0.000167074
0.000167075
0.000167075
0.000167076
0.000167075
0.000167075
0.000167075
0.000167075
0.000167075
0.000167075
0.000167075
0.000167075
0.000167075
0.000167075
0.000167075
0.000167074
0.000167075
0.000167074
0.000167075
0.000167074
0.000167074
0.000167074
0.000167073
0.000167073
0.000167071
0.000167071
0.000167069
0.00016707
5.91509e-15
2.85833e-14
4.02302e-16
4.03007e-17
3.11199e-17
6.3141e-17
2.86051e-17
5.34609e-17
2.7259e-17
4.78753e-18
2.90436e-18
2.83701e-18
7.06304e-18
2.06905e-17
4.48019e-16
6.12606e-15
5.52606e-14
1.08182e-12
1.71969e-10
0.000167073
0.000167073
0.000167073
0.000167073
0.000167073
0.000167073
0.000167073
0.000167073
0.000167073
0.000167073
0.000167073
0.000167073
0.000167073
0.000167073
0.000167073
0.000167072
0.000167072
0.000167072
0.000167073
0.000167073
0.000167073
0.000167073
0.000167073
0.000167073
0.000167074
0.000167074
0.000167074
0.000167073
0.000167075
0.000167073
0.000167075
0.000167075
0.000167076
0.000167075
0.000167077
0.000167076
0.000167077
0.000167075
0.000167077
0.000167075
0.000167077
0.000167075
0.000167077
0.000167075
0.000167077
0.000167075
0.000167077
0.000167074
0.000167076
0.000167074
0.000167076
0.000167073
0.000167074
0.000167071
0.000167073
0.000167069
0.000167071
0.000167067
0.000167069
0.000167065
0.000167065
4.92677e-14
0.000167077
7.7297e-15
8.38321e-16
4.71971e-16
9.97075e-16
5.32217e-16
9.33557e-16
4.72466e-16
2.64109e-16
4.29668e-17
6.59482e-17
1.95926e-16
6.9911e-16
6.88762e-15
8.24982e-14
4.04707e-13
2.05168e-12
3.87199e-11
3.40758e-09
0.000167073
0.000167072
0.000167072
0.000167072
0.000167073
0.000167073
0.000167073
0.000167073
0.000167073
0.000167073
0.000167073
0.000167073
0.000167073
0.000167073
0.000167073
0.000167073
0.000167073
0.000167073
0.000167073
0.000167074
0.000167074
0.000167074
0.000167074
0.000167075
0.000167075
0.000167074
0.000167075
0.000167073
0.000167076
0.000167075
0.000167076
0.000167076
0.000167077
0.000167077
0.000167078
0.000167077
0.000167077
0.000167076
0.000167077
0.000167076
0.000167077
0.000167076
0.000167076
0.000167076
0.000167076
0.000167076
0.000167075
0.000167075
0.000167074
0.000167074
0.000167072
0.000167072
0.00016707
0.000167069
0.000167067
0.000167065
0.000167066
0.000167064
0.000167062
0.000167058
3.45256e-13
0.000167076
1.62966e-13
1.85424e-14
6.78447e-15
1.27103e-14
8.91606e-15
1.1806e-14
6.0504e-15
1.99388e-14
1.12202e-15
2.55009e-15
7.04738e-15
3.1862e-14
1.10458e-13
6.8239e-13
2.14843e-12
4.41453e-12
2.32163e-11
3.31727e-10
2.22709e-08
0.000167072
0.000167072
0.000167073
0.000167073
0.000167073
0.000167073
0.000167073
0.000167073
0.000167073
0.000167073
0.000167073
0.000167073
0.000167073
0.000167073
0.000167073
0.000167073
0.000167073
0.000167074
0.000167074
0.000167074
0.000167074
0.000167075
0.000167074
0.000167075
0.000167075
0.000167075
0.000167075
0.000167076
0.000167076
0.000167077
0.000167077
0.000167078
0.000167077
0.000167079
0.000167077
0.000167078
0.000167076
0.000167078
0.000167075
0.000167078
0.000167075
0.000167078
0.000167074
0.000167078
0.000167073
0.000167078
0.000167072
0.000167077
0.00016707
0.000167075
0.000167068
0.000167072
0.000167064
0.000167067
0.000167061
0.000167064
0.000167059
0.000167058
0.000167054
1.67717e-12
5.21756e-09
5.71324e-12
6.46423e-13
9.24296e-14
1.21447e-13
1.26776e-13
1.10307e-13
6.14215e-14
3.6261e-07
5.04115e-14
2.18342e-13
1.41907e-12
0.000167074
2.71112e-12
3.32867e-12
6.36105e-12
8.4268e-12
1.99433e-11
1.02209e-10
1.22294e-09
3.83033e-08
0.000167072
0.000167073
0.000167073
0.000167073
0.000167073
0.000167073
0.000167073
0.000167073
0.000167073
0.000167073
0.000167073
0.000167073
0.000167073
0.000167073
0.000167073
0.000167073
0.000167073
0.000167074
0.000167074
0.000167074
0.000167074
0.000167075
0.000167074
0.000167076
0.000167074
0.000167076
0.000167075
0.000167078
0.000167076
0.000167079
0.000167077
0.000167079
0.000167076
0.000167079
0.000167076
0.000167079
0.000167075
0.000167079
0.000167074
0.000167079
0.000167074
0.000167079
0.000167073
0.000167078
0.000167072
0.000167078
0.000167071
0.000167077
0.000167069
0.000167075
0.000167065
0.00016707
0.000167061
0.000167064
0.000167058
0.00016706
0.000167055
0.000167054
5.03259e-12
3.17113e-09
0.000167074
0.000167074
1.22457e-12
7.67346e-13
1.17929e-12
6.54302e-13
4.15264e-13
0.000167073
0.000167074
0.000167074
0.000167074
0.000167074
2.48486e-09
1.31644e-11
1.27748e-11
1.36634e-11
2.01436e-11
5.32424e-11
2.58321e-10
2.31337e-09
6.68253e-08
0.000120991
0.000167073
0.000167073
0.000167073
0.000167073
0.000167073
0.000167073
0.000167073
0.000167073
0.000167073
0.000167073
0.000167073
0.000167073
0.000167073
0.000167073
0.000167073
0.000167074
0.000167074
0.000167074
0.000167075
0.000167074
0.000167077
0.000167074
0.000167077
0.000167075
0.000167077
0.000167076
0.000167078
0.000167076
0.000167079
0.000167076
0.000167079
0.000167076
0.000167079
0.000167075
0.000167079
0.000167075
0.000167078
0.000167074
0.000167078
0.000167073
0.000167078
0.000167073
0.000167078
0.000167072
0.000167078
0.000167071
0.000167077
0.000167068
0.000167073
0.000167064
0.000167066
0.000167059
0.00016706
0.000167057
0.000167056
0.000167054
9.9219e-12
2.02687e-09
0.000167074
0.000167075
2.20879e-11
3.20394e-12
5.12832e-12
2.25894e-12
1.57573e-12
1.37917e-10
0.000167074
0.000167074
0.000167074
0.000167075
0.000167075
6.62164e-11
2.59464e-11
2.14294e-11
2.31358e-11
3.87397e-11
1.04791e-10
4.59888e-10
3.82782e-09
7.92486e-08
1.47126e-05
0.000167073
0.000167073
0.000167073
0.000167073
0.000167073
0.000167073
0.000167073
0.000167073
0.000167073
0.000167073
0.000167073
0.000167073
0.000167073
0.000167073
0.000167074
0.000167073
0.000167074
0.000167074
0.000167076
0.000167073
0.000167076
0.000167075
0.000167077
0.000167076
0.000167078
0.000167076
0.000167078
0.000167076
0.000167078
0.000167076
0.000167078
0.000167076
0.000167078
0.000167075
0.000167078
0.000167075
0.000167078
0.000167074
0.000167078
0.000167074
0.000167078
0.000167074
0.000167078
0.000167073
0.000167077
0.000167072
0.000167074
0.000167068
0.000167069
0.000167062
0.00016706
0.000167058
0.000167057
0.000167057
0.000167055
1.52173e-11
1.07935e-09
2.59794e-08
0.000167075
3.50169e-09
1.09914e-11
1.15877e-11
5.19465e-12
3.44406e-12
2.1745e-11
1.77513e-07
0.000167074
0.000167074
0.000167075
0.000167075
7.52479e-10
7.19929e-11
3.93539e-11
3.18122e-11
3.73682e-11
6.58107e-11
1.74823e-10
7.32654e-10
5.26399e-09
8.1994e-08
7.81716e-06
0.000167073
0.000167073
0.000167072
0.000167072
0.000167072
0.000167073
0.000167073
0.000167073
0.000167073
0.000167073
0.000167073
0.000167073
0.000167074
0.000167073
0.000167074
0.000167073
0.000167075
0.000167073
0.000167075
0.000167075
0.000167077
0.000167076
0.000167077
0.000167076
0.000167077
0.000167076
0.000167077
0.000167076
0.000167077
0.000167076
0.000167077
0.000167076
0.000167077
0.000167076
0.000167076
0.000167076
0.000167076
0.000167076
0.000167076
0.000167076
0.000167076
0.000167077
0.000167076
0.000167076
0.000167074
0.000167074
0.00016707
0.000167068
0.000167062
0.000167059
0.000167056
0.000167057
0.000167055
0.000167054
2.11493e-11
5.69376e-10
1.27942e-09
2.94595e-08
0.000167075
4.28829e-11
2.14523e-11
9.95709e-12
5.55035e-12
9.5593e-12
7.85707e-10
1.85969e-08
0.000167074
0.000167075
0.000167075
1.24514e-07
3.60411e-10
1.01872e-10
5.73937e-11
4.8362e-11
5.94655e-11
1.06025e-10
2.75305e-10
1.07438e-09
6.82251e-09
9.03937e-08
4.36965e-06
0.000167073
0.000167072
0.000167072
0.000167072
0.000167073
0.000167072
0.000167073
0.000167072
0.000167073
0.000167072
0.000167074
0.000167073
0.000167074
0.000167073
0.000167074
0.000167073
0.000167074
0.000167075
0.000167076
0.000167076
0.000167076
0.000167077
0.000167076
0.000167076
0.000167076
0.000167076
0.000167076
0.000167077
0.000167076
0.000167077
0.000167075
0.000167077
0.000167075
0.000167077
0.000167074
0.000167077
0.000167074
0.000167078
0.000167074
0.000167079
0.000167074
0.00016708
0.000167074
0.00016708
0.000167072
0.000167075
0.000167065
0.000167064
0.000167056
0.000167057
0.000167054
0.000167054
0.000167051
2.93477e-11
3.60541e-10
3.12828e-10
1.29031e-09
0.000167075
2.70968e-10
4.40187e-11
1.85642e-11
8.48463e-12
7.47768e-12
8.47226e-11
7.04122e-10
3.70946e-08
0.000167075
0.000167075
0.000167074
5.59891e-09
4.68173e-10
1.54472e-10
8.87685e-11
7.67998e-11
9.58739e-11
1.69093e-10
4.23191e-10
1.54285e-09
8.93653e-09
9.48519e-08
3.14062e-06
0.000167072
0.000167072
0.000167072
0.000167072
0.000167073
0.000167072
0.000167073
0.000167072
0.000167073
0.000167072
0.000167074
0.000167073
0.000167072
0.000167073
0.000167073
0.000167075
0.000167075
0.000167076
0.000167075
0.000167077
0.000167075
0.000167076
0.000167075
0.000167076
0.000167075
0.000167076
0.000167075
0.000167077
0.000167075
0.000167077
0.000167074
0.000167077
0.000167073
0.000167077
0.000167073
0.000167077
0.000167073
0.000167079
0.000167074
0.000167081
0.000167075
0.000167082
0.000167075
0.000167081
0.00016707
0.000167072
0.000167061
0.00016706
0.000167054
0.000167054
0.00016705
0.00016705
4.29194e-11
2.95567e-10
1.56959e-10
2.79327e-10
1.18409e-08
4.53391e-09
1.12904e-10
3.63738e-11
1.39768e-11
8.37229e-12
2.70017e-11
1.22186e-10
1.57777e-09
1.16115e-07
0.000167074
0.000167075
1.00974e-05
6.61357e-09
7.76481e-10
2.57799e-10
1.48045e-10
1.28317e-10
1.58432e-10
2.72619e-10
6.51958e-10
2.22869e-09
1.15028e-08
1.05826e-07
2.62414e-06
0.000167072
0.000167072
0.000167072
0.000167072
0.000167072
0.000167072
0.000167072
0.000167071
0.000167073
0.000167073
0.000167072
0.000167073
0.000167073
0.000167074
0.000167074
0.000167076
0.000167075
0.000167076
0.000167075
0.000167076
0.000167074
0.000167076
0.000167074
0.000167076
0.000167074
0.000167076
0.000167075
0.000167077
0.000167075
0.000167077
0.000167074
0.000167077
0.000167073
0.000167077
0.000167073
0.000167078
0.000167074
0.00016708
0.000167076
0.000167083
0.000167077
0.000167084
0.000167076
0.00016708
0.000167068
0.000167068
0.000167057
0.000167057
0.00016705
0.000167049
0.000167047
6.80734e-11
3.12042e-10
1.19675e-10
1.26726e-10
1.14219e-09
7.88975e-08
3.6854e-10
7.75415e-11
2.54573e-11
1.18071e-11
1.64129e-11
4.50622e-11
2.6583e-10
4.36538e-09
5.26208e-07
1.6771e-05
0.000167074
3.70328e-05
1.08161e-08
1.40954e-09
4.67316e-10
2.64519e-10
2.24778e-10
2.70424e-10
4.47637e-10
1.01592e-09
3.22123e-09
1.52283e-08
1.22682e-07
2.2235e-06
0.000167072
0.000167072
0.000167072
0.000167072
0.000167072
0.000167071
0.000167073
0.000167072
0.000167072
0.000167073
0.000167073
0.000167074
0.000167074
0.000167075
0.000167074
0.000167076
0.000167074
0.000167075
0.000167074
0.000167075
0.000167074
0.000167075
0.000167074
0.000167076
0.000167074
0.000167077
0.000167075
0.000167077
0.000167074
0.000167077
0.000167074
0.000167077
0.000167073
0.000167078
0.000167074
0.00016708
0.000167076
0.000167083
0.000167078
0.000167086
0.000167079
0.000167085
0.000167075
0.000167076
0.000167063
0.000167062
0.000167052
0.000167051
0.000167046
0.000167045
1.1866e-10
4.07175e-10
1.19237e-10
8.89703e-11
3.37105e-10
7.64661e-09
1.37126e-09
1.81684e-10
5.02187e-11
1.93992e-11
1.54886e-11
2.72876e-11
9.22883e-11
6.79854e-10
1.37322e-08
1.10252e-07
2.92398e-08
3.07077e-08
2.78219e-08
9.21823e-09
2.39351e-09
8.81004e-10
4.97286e-10
4.10942e-10
4.75032e-10
7.48223e-10
1.59825e-09
4.72728e-09
2.04538e-08
1.43507e-07
2.21035e-06
0.000167072
0.000167072
0.000167071
0.000167072
0.000167072
0.000167071
0.000167071
0.000167073
0.000167073
0.000167074
0.000167073
0.000167075
0.000167074
0.000167075
0.000167074
0.000167075
0.000167074
0.000167075
0.000167073
0.000167075
0.000167073
0.000167075
0.000167074
0.000167076
0.000167074
0.000167077
0.000167075
0.000167077
0.000167074
0.000167077
0.000167074
0.000167077
0.000167074
0.000167078
0.000167075
0.000167081
0.000167078
0.000167085
0.000167082
0.000167087
0.000167081
0.000167082
0.000167072
0.000167069
0.000167057
0.000167054
0.000167047
0.000167045
0.000167042
2.27983e-10
6.15286e-10
1.40845e-10
8.31164e-11
1.85548e-10
1.63705e-09
4.05296e-09
4.6412e-10
1.04541e-10
3.53329e-11
1.99087e-11
2.37319e-11
5.17868e-11
2.18367e-10
1.82563e-09
9.13108e-09
4.00063e-09
2.09173e-09
2.1573e-09
3.35309e-09
4.56482e-09
3.1855e-09
1.6095e-09
9.56092e-10
7.71321e-10
8.50399e-10
1.26571e-09
2.53691e-09
6.98576e-09
2.77089e-08
1.79159e-07
2.49519e-06
0.000167071
0.000167072
0.000167071
0.000167072
0.000167071
0.000167073
0.000167073
0.000167074
0.000167074
0.000167075
0.000167074
0.000167075
0.000167074
0.000167075
0.000167074
0.000167074
0.000167073
0.000167074
0.000167073
0.000167074
0.000167073
0.000167075
0.000167074
0.000167076
0.000167075
0.000167076
0.000167075
0.000167076
0.000167074
0.000167075
0.000167074
0.000167076
0.000167076
0.000167077
0.000167078
0.000167081
0.000167083
0.000167084
0.000167085
0.000167084
0.000167081
0.000167074
0.000167066
0.000167058
0.000167051
0.000167046
0.000167044
0.000167043
4.80715e-10
9.81281e-10
1.82835e-10
9.41307e-11
1.53335e-10
8.21391e-10
6.38958e-09
1.26481e-09
2.27576e-10
6.90547e-11
3.1622e-11
2.71614e-11
4.13156e-11
1.12767e-10
5.27439e-10
1.93154e-09
1.289e-09
5.89849e-10
4.46372e-10
5.57029e-10
1.01922e-09
2.12376e-09
3.11675e-09
2.58292e-09
1.78459e-09
1.44546e-09
1.52801e-09
2.14625e-09
4.03738e-09
1.03915e-08
3.8772e-08
2.36547e-07
3.02824e-06
0.000167071
0.000167073
0.000167071
0.000167073
0.000167074
0.000167074
0.000167075
0.000167075
0.000167075
0.000167075
0.000167075
0.000167075
0.000167074
0.000167074
0.000167074
0.000167073
0.000167073
0.000167073
0.000167073
0.000167073
0.000167074
0.000167074
0.000167075
0.000167074
0.000167075
0.000167074
0.000167075
0.000167073
0.000167075
0.000167073
0.000167075
0.000167073
0.000167078
0.000167076
0.000167082
0.00016708
0.000167087
0.000167082
0.000167087
0.000167078
0.000167077
0.000167064
0.000167059
0.00016705
0.000167048
0.000167045
0.000167045
1.10081e-09
1.47908e-09
2.45698e-10
1.21171e-10
1.67019e-10
6.63835e-10
6.61969e-09
3.59074e-09
5.23829e-10
1.42192e-10
5.75579e-11
3.82684e-11
4.30888e-11
8.22125e-11
2.49076e-10
7.10841e-10
6.41076e-10
3.03554e-10
1.87964e-10
1.78006e-10
2.4882e-10
4.8194e-10
1.14061e-09
2.45651e-09
3.33492e-09
3.00957e-09
2.60533e-09
2.70258e-09
3.61984e-09
6.43769e-09
1.56981e-08
5.58786e-08
3.26601e-07
4.07244e-06
0.000167072
0.000167073
0.000167074
0.000167074
0.000167075
0.000167075
0.000167076
0.000167075
0.000167075
0.000167074
0.000167075
0.000167073
0.000167074
0.000167073
0.000167073
0.000167072
0.000167073
0.000167072
0.000167074
0.000167073
0.000167074
0.000167073
0.000167075
0.000167073
0.000167075
0.000167072
0.000167074
0.000167071
0.000167074
0.00016707
0.000167075
0.000167072
0.000167078
0.000167075
0.000167083
0.000167079
0.000167087
0.000167079
0.000167083
0.00016707
0.000167068
0.000167055
0.000167054
0.000167048
0.000167048
0.000167047
2.67562e-09
1.94274e-09
3.29597e-10
1.69858e-10
2.20769e-10
7.36096e-10
7.03243e-09
1.06307e-08
1.30155e-09
3.06105e-10
1.13417e-10
6.25969e-11
5.49877e-11
7.761e-11
1.66214e-10
3.82181e-10
4.22808e-10
2.24583e-10
1.23657e-10
9.45875e-11
1.02407e-10
1.52186e-10
2.98344e-10
7.17898e-10
1.79027e-09
3.44047e-09
4.32061e-09
4.35128e-09
4.63817e-09
6.05376e-09
1.03126e-08
2.41102e-08
8.305e-08
4.79502e-07
6.18202e-06
0.000167074
0.000167074
0.000167075
0.000167075
0.000167076
0.000167075
0.000167075
0.000167074
0.000167075
0.000167073
0.000167074
0.000167073
0.000167074
0.000167072
0.000167073
0.000167072
0.000167074
0.000167072
0.000167074
0.000167073
0.000167074
0.000167073
0.000167074
0.000167072
0.000167073
0.00016707
0.000167072
0.000167069
0.000167072
0.000167069
0.000167074
0.000167071
0.000167077
0.000167075
0.000167082
0.000167078
0.000167082
0.000167075
0.000167074
0.000167063
0.00016706
0.000167052
0.00016705
0.00016705
0.000167049
6.50258e-09
2.21777e-09
4.38087e-10
2.53675e-10
3.38091e-10
1.04605e-09
9.50834e-09
3.48744e-08
3.51959e-09
6.79753e-10
2.30611e-10
1.11889e-10
8.06197e-11
8.83709e-11
1.42206e-10
2.69424e-10
3.40149e-10
2.14004e-10
1.12514e-10
7.31528e-11
6.41188e-11
7.506e-11
1.14446e-10
2.20845e-10
5.15716e-10
1.32181e-09
3.06917e-09
5.23166e-09
6.59412e-09
7.66649e-09
1.00475e-08
1.66707e-08
3.78778e-08
1.28579e-07
7.55283e-07
1.05032e-05
0.000167074
0.000167074
0.000167075
0.000167074
0.000167075
0.000167074
0.000167074
0.000167074
0.000167074
0.000167073
0.000167074
0.000167073
0.000167073
0.000167073
0.000167073
0.000167073
0.000167074
0.000167073
0.000167074
0.000167073
0.000167074
0.000167072
0.000167073
0.000167071
0.000167071
0.00016707
0.00016707
0.000167069
0.000167069
0.000167069
0.000167071
0.000167072
0.000167074
0.000167076
0.000167077
0.000167076
0.000167075
0.00016707
0.000167064
0.000167058
0.000167052
0.000167051
0.000167049
0.000167051
1.37722e-08
2.33956e-09
5.8615e-10
4.02607e-10
5.90837e-10
1.875e-09
1.79832e-08
1.41992e-07
9.70873e-09
1.47076e-09
4.5444e-10
2.02812e-10
1.26421e-10
1.13161e-10
1.44015e-10
2.29272e-10
3.12832e-10
2.43416e-10
1.32404e-10
7.67433e-11
5.63144e-11
5.36146e-11
6.52321e-11
9.93036e-11
1.85115e-10
4.10606e-10
1.0267e-09
2.59288e-09
5.57422e-09
9.08217e-09
1.22241e-08
1.66898e-08
2.74728e-08
6.14524e-08
2.09092e-07
1.27738e-06
1.96398e-05
0.000167073
0.000167074
0.000167074
0.000167074
0.000167074
0.000167074
0.000167074
0.000167074
0.000167073
0.000167074
0.000167073
0.000167074
0.000167073
0.000167074
0.000167073
0.000167074
0.000167073
0.000167074
0.000167073
0.000167073
0.000167072
0.000167072
0.00016707
0.000167071
0.000167068
0.000167069
0.000167066
0.000167068
0.000167066
0.000167069
0.000167068
0.000167072
0.000167071
0.000167075
0.000167072
0.000167074
0.000167067
0.000167065
0.000167056
0.000167054
0.00016705
0.000167052
0.000167051
2.10202e-08
2.44831e-09
8.11038e-10
6.87765e-10
1.19149e-09
4.3523e-09
5.23683e-08
5.97355e-07
2.04842e-08
2.66353e-09
7.81506e-10
3.37948e-10
1.94448e-10
1.51055e-10
1.60331e-10
2.1937e-10
3.09517e-10
3.05679e-10
1.90888e-10
1.05084e-10
6.65382e-11
5.26383e-11
5.22528e-11
6.40592e-11
9.52705e-11
1.69152e-10
3.52821e-10
8.43708e-10
2.19357e-09
5.54074e-09
1.16281e-08
1.90787e-08
2.82176e-08
4.68515e-08
1.0419e-07
3.59257e-07
2.30469e-06
3.89949e-05
0.000167073
0.000167074
0.000167073
0.000167074
0.000167073
0.000167074
0.000167073
0.000167074
0.000167073
0.000167074
0.000167073
0.000167074
0.000167073
0.000167074
0.000167073
0.000167074
0.000167073
0.000167074
0.000167072
0.000167073
0.000167071
0.000167071
0.000167069
0.000167069
0.000167066
0.000167067
0.000167065
0.000167066
0.000167065
0.000167068
0.000167068
0.000167071
0.000167071
0.000167072
0.00016707
0.000167068
0.000167063
0.000167059
0.000167055
0.000167053
0.000167052
0.000167053
2.19784e-08
2.67735e-09
1.19466e-09
1.29515e-09
2.86953e-09
1.40634e-08
2.49722e-07
4.93271e-07
2.06096e-08
3.26803e-09
1.03257e-09
4.66741e-10
2.68123e-10
1.94828e-10
1.83466e-10
2.22311e-10
3.12476e-10
3.8681e-10
3.13597e-10
1.82375e-10
1.04062e-10
6.9521e-11
5.69385e-11
5.69703e-11
6.85602e-11
9.77727e-11
1.63565e-10
3.1956e-10
7.2747e-10
1.90251e-09
5.39191e-09
1.43229e-08
2.99182e-08
4.99114e-08
8.4595e-08
1.87286e-07
6.53827e-07
4.33517e-06
7.32568e-05
0.000167072
0.000167073
0.000167073
0.000167073
0.000167073
0.000167073
0.000167073
0.000167073
0.000167073
0.000167073
0.000167073
0.000167073
0.000167073
0.000167073
0.000167073
0.000167073
0.000167073
0.000167072
0.000167072
0.000167071
0.00016707
0.000167068
0.000167068
0.000167066
0.000167066
0.000167064
0.000167066
0.000167064
0.000167068
0.000167066
0.00016707
0.000167069
0.000167072
0.000167069
0.000167069
0.000167064
0.000167062
0.000167057
0.000167055
0.000167054
0.000167053
1.87369e-08
3.16735e-09
1.92742e-09
2.77894e-09
8.73279e-09
6.97911e-08
6.95904e-07
9.00285e-08
1.05429e-08
2.60206e-09
1.00227e-09
5.09814e-10
3.14037e-10
2.30142e-10
2.05494e-10
2.29018e-10
3.11969e-10
4.53593e-10
5.21551e-10
3.8218e-10
2.15048e-10
1.24119e-10
8.40364e-11
6.86662e-11
6.71862e-11
7.75354e-11
1.0435e-10
1.63277e-10
2.99068e-10
6.50788e-10
1.70531e-09
5.3062e-09
1.76449e-08
4.91024e-08
9.67342e-08
1.67348e-07
3.63028e-07
1.26785e-06
8.43572e-06
0.000146877
0.000167072
0.000167072
0.000167073
0.000167072
0.000167073
0.000167072
0.000167073
0.000167072
0.000167073
0.000167072
0.000167073
0.000167072
0.000167073
0.000167072
0.000167072
0.000167071
0.000167072
0.00016707
0.000167071
0.000167068
0.00016707
0.000167066
0.000167068
0.000167064
0.000167067
0.000167063
0.000167068
0.000167065
0.000167069
0.000167068
0.000167071
0.00016707
0.000167072
0.000167068
0.000167067
0.000167062
0.000167061
0.000167058
0.000167057
0.000167057
1.59543e-08
4.16123e-09
3.50706e-09
7.07217e-09
3.54018e-08
3.64335e-07
1.65438e-07
1.94828e-08
4.53643e-09
1.64044e-09
7.8795e-10
4.64007e-10
3.17741e-10
2.47266e-10
2.21501e-10
2.36254e-10
3.07934e-10
4.78334e-10
7.54802e-10
8.58454e-10
5.83555e-10
3.09505e-10
1.72664e-10
1.13472e-10
8.92804e-11
8.30421e-11
9.00228e-11
1.12993e-10
1.64994e-10
2.85016e-10
5.99125e-10
1.58499e-09
5.39897e-09
2.2601e-08
8.9835e-08
2.23231e-07
3.84432e-07
7.96521e-07
2.83029e-06
1.92752e-05
0.000167072
0.000167072
0.000167072
0.000167072
0.000167072
0.000167072
0.000167071
0.000167072
0.000167071
0.000167072
0.000167071
0.000167072
0.000167071
0.000167072
0.000167071
0.000167071
0.00016707
0.000167071
0.000167068
0.00016707
0.000167067
0.000167068
0.000167065
0.000167067
0.000167064
0.000167068
0.000167065
0.000167068
0.000167068
0.000167069
0.000167071
0.000167073
0.000167072
0.000167071
0.000167068
0.000167067
0.000167064
0.000167063
0.000167062
0.000167061
1.52062e-08
6.21676e-09
7.41657e-09
2.19081e-08
1.52879e-07
2.2705e-07
2.93512e-08
6.18151e-09
2.14931e-09
1.00937e-09
5.8117e-10
3.91378e-10
2.98159e-10
2.51058e-10
2.33528e-10
2.46492e-10
3.08093e-10
4.72617e-10
8.76316e-10
1.63302e-09
1.92556e-09
1.15321e-09
5.33606e-10
2.70848e-10
1.64966e-10
1.2079e-10
1.04254e-10
1.04599e-10
1.21802e-10
1.66628e-10
2.74612e-10
5.65899e-10
1.53171e-09
5.77106e-09
3.13327e-08
2.05607e-07
7.48383e-07
1.16484e-06
2.16274e-06
7.02765e-06
4.62298e-05
0.000167072
0.000167072
0.000167071
0.000167072
0.000167071
0.000167071
0.00016707
0.000167071
0.00016707
0.000167071
0.00016707
0.000167071
0.00016707
0.000167071
0.000167069
0.00016707
0.000167068
0.00016707
0.000167067
0.000167068
0.000167066
0.000167066
0.000167065
0.000167067
0.000167066
0.000167069
0.000167068
0.000167068
0.00016707
0.000167072
0.000167073
0.000167074
0.000167072
0.000167071
0.000167069
0.000167068
0.000167067
0.000167066
0.000167065
1.70262e-08
1.07938e-08
1.85342e-08
7.29406e-08
1.91288e-07
4.30593e-08
8.34588e-09
2.66223e-09
1.19899e-09
6.75447e-10
4.46853e-10
3.36064e-10
2.80721e-10
2.55102e-10
2.49706e-10
2.66788e-10
3.23561e-10
4.71419e-10
8.76149e-10
2.12939e-09
5.55733e-09
6.99832e-09
3.03797e-09
1.06373e-09
4.55273e-10
2.47244e-10
1.64314e-10
1.29503e-10
1.19405e-10
1.2927e-10
1.67305e-10
2.66856e-10
5.48082e-10
1.54363e-09
6.56611e-09
4.95738e-08
7.93746e-07
6.29187e-06
4.14738e-06
5.67902e-06
1.60442e-05
0.00010028
0.000167071
0.000167072
0.00016707
0.000167071
0.00016707
0.000167071
0.00016707
0.000167071
0.00016707
0.000167071
0.000167069
0.00016707
0.000167069
0.000167069
0.000167068
0.000167069
0.000167068
0.000167067
0.000167067
0.000167065
0.000167066
0.000167065
0.000167066
0.000167067
0.000167068
0.000167068
0.00016707
0.00016707
0.000167073
0.000167073
0.000167075
0.000167073
0.000167073
0.00016707
0.000167071
0.000167069
0.000167069
0.000167068
2.28271e-08
2.1975e-08
5.08849e-08
1.3299e-07
5.77806e-08
1.17449e-08
3.45319e-09
1.45951e-09
7.92364e-10
5.12674e-10
3.7885e-10
3.12102e-10
2.81635e-10
2.7358e-10
2.82078e-10
3.08909e-10
3.68905e-10
5.07206e-10
8.69516e-10
2.07774e-09
8.1355e-09
5.19712e-08
6.10079e-08
9.68376e-09
2.23125e-09
7.78746e-10
3.69015e-10
2.19039e-10
1.56288e-10
1.32496e-10
1.34472e-10
1.66868e-10
2.61753e-10
5.45021e-10
1.62784e-09
8.0808e-09
9.60308e-08
1.13877e-05
6.36751e-05
1.10131e-05
1.23304e-05
3.28753e-05
0.000167072
0.00016707
0.000167072
0.00016707
0.000167071
0.00016707
0.000167071
0.00016707
0.00016707
0.00016707
0.00016707
0.000167069
0.000167069
0.000167068
0.000167068
0.000167068
0.000167067
0.000167067
0.000167064
0.000167066
0.000167064
0.000167066
0.000167065
0.000167067
0.000167067
0.000167069
0.000167069
0.000167072
0.000167072
0.000167075
0.000167074
0.000167076
0.000167074
0.000167074
0.000167072
0.000167072
0.000167072
0.000167071
3.66263e-08
4.9778e-08
1.04191e-07
7.29554e-08
1.7187e-08
4.76304e-09
1.88644e-09
9.80242e-10
6.17542e-10
4.4859e-10
3.64519e-10
3.25104e-10
3.13749e-10
3.23013e-10
3.49616e-10
3.94762e-10
4.70488e-10
6.16587e-10
9.55995e-10
1.96681e-09
6.68236e-09
7.34164e-08
0.000167073
8.06321e-07
3.17845e-08
4.70552e-09
1.3183e-09
5.35559e-10
2.80748e-10
1.8118e-10
1.42303e-10
1.37151e-10
1.65711e-10
2.59776e-10
5.57797e-10
1.80679e-09
1.08378e-08
2.09095e-07
0.000167071
0.0001567
2.17664e-05
2.38251e-05
6.79767e-05
0.000167071
0.00016707
0.000167072
0.000167071
0.000167071
0.000167071
0.000167071
0.000167071
0.00016707
0.00016707
0.000167069
0.000167069
0.000167068
0.000167068
0.000167067
0.000167066
0.000167066
0.000167065
0.000167065
0.000167064
0.000167065
0.000167064
0.000167066
0.000167066
0.000167069
0.000167069
0.000167072
0.000167073
0.000167076
0.000167076
0.000167078
0.000167076
0.000167077
0.000167076
0.000167077
0.000167075
0.000167075
6.70872e-08
9.78062e-08
8.81891e-08
2.61281e-08
7.01553e-09
2.59789e-09
1.28805e-09
7.90371e-10
5.66407e-10
4.56988e-10
4.05564e-10
3.89666e-10
4.00387e-10
4.34826e-10
4.92548e-10
5.75011e-10
6.91356e-10
8.76772e-10
1.24108e-09
2.15326e-09
5.38251e-09
2.86677e-08
1.60109e-06
0.000167073
2.28662e-05
1.08957e-07
9.90003e-09
2.15997e-09
7.396e-10
3.4148e-10
2.00833e-10
1.48091e-10
1.37638e-10
1.64455e-10
2.61716e-10
5.89869e-10
2.11062e-09
1.51186e-08
3.82348e-07
0.000167071
0.00016707
3.78321e-05
4.60021e-05
0.00015696
0.000167072
0.00016707
0.000167071
0.000167072
0.000167071
0.000167072
0.000167071
0.000167071
0.00016707
0.00016707
0.000167069
0.000167068
0.000167068
0.000167067
0.000167067
0.000167065
0.000167065
0.000167063
0.000167064
0.000167063
0.000167064
0.000167064
0.000167066
0.000167066
0.00016707
0.00016707
0.000167074
0.000167075
0.000167078
0.000167078
0.000167081
0.00016708
0.000167082
0.000167081
0.000167081
0.00016708
1.17153e-07
1.04733e-07
3.96394e-08
1.09122e-08
3.80806e-09
1.79259e-09
1.06952e-09
7.59434e-10
6.1379e-10
5.48545e-10
5.31672e-10
5.50928e-10
6.03396e-10
6.91402e-10
8.19538e-10
9.91732e-10
1.21341e-09
1.51128e-09
1.98692e-09
2.95763e-09
5.56316e-09
1.59972e-08
1.01582e-07
1.6156e-06
0.000167074
0.000167073
4.137e-07
2.03555e-08
3.33449e-09
9.55999e-10
3.92034e-10
2.13218e-10
1.49998e-10
1.36557e-10
1.63822e-10
2.68846e-10
6.45689e-10
2.56549e-09
2.16222e-08
7.91762e-07
0.000167071
0.00016707
6.54188e-05
9.4857e-05
0.000167072
0.000167072
0.000167073
0.000167071
0.000167073
0.000167071
0.000167073
0.000167071
0.000167072
0.00016707
0.000167071
0.000167069