/*--------------------------------*- C++ -*----------------------------------*\
  =========                 |
  \\      /  F ield         | OpenFOAM: The Open Source CFD Toolbox
   \\    /   O peration     | Website:  https://openfoam.org
    \\  /    A nd           | Version:  7
     \\/     M anipulation  |
\*---------------------------------------------------------------------------*/
FoamFile
{
    version     2.0;
    format      ascii;
    class       volScalarField;
    location    "30";
    object      k2Write;
}
// * * * * * * * * * * * * * * * * * * * * * * * * * * * * * * * * * * * * * //

dimensions      [0 2 0 0 0 0 0];

internalField   nonuniform List<scalar> 
49920
(
6.88659e-08
5.70653e-11
1.66216e-12
3.51343e-12
3.38252e-12
7.08583e-12
4.39964e-12
1.02646e-12
1.87829e-12
4.63281e-12
3.55072e-12
1.86044e-12
3.13063e-12
1.19976e-12
6.62261e-12
1.44505e-09
8.35267e-07
0.0134896
81740
81740.1
81740.1
81740.1
81740
81740
81740.1
81740.1
81740.1
81740.1
81740
81740
81740
81739.9
81739.9
81739.9
81740
81740.1
81740.1
81740.1
81740.1
81740.1
81740.1
81740.2
81740.3
81740.3
81740.2
81740.3
81740.2
81741.1
81740.7
81742.1
81740.1
81742.6
81739.5
81742.1
81738.2
81742.6
81739.4
81742.7
81738.7
81742.6
81738.4
81742.7
81737.8
81742.8
81737.5
81742.8
81736.9
81742.7
81736.6
81742.6
81736.1
81742.5
81736
81742.1
81735.3
81741.1
81734.8
81741.1
81734.9
81741.2
6.41262e-08
4.06487e-09
2.39921e-10
5.75099e-12
5.437e-12
2.24886e-11
3.30455e-12
1.66661e-11
3.99587e-12
5.80099e-12
7.71822e-12
4.61935e-12
2.39972e-12
1.68774e-11
5.84148e-10
1.48219e-08
1.39593e-06
1.61827
81739.1
81739.3
81739.4
81739.3
81739.3
81739.3
81739.3
81739.4
81739.3
81739.3
81739.1
81739.1
81738.9
81738.9
81738.7
81738.7
81738.5
81738.7
81738.5
81738.7
81738.5
81738.8
81738.8
81739.2
81739.2
81739.6
81739.4
81739.5
81740
81741
81742.4
81739.4
81742.8
81738.6
81743.6
81738.8
81745.7
81740.4
81745.7
81739.9
81745.1
81739.3
81745.2
81738.8
81745.1
81738.6
81745.4
81738.2
81745
81738
81745.3
81737.7
81745
81737.5
81745.2
81736.8
81744.2
81735
81742.8
81732.7
81739
81732.9
3.60902e-07
1.76092e-07
9.32422e-09
6.92279e-10
6.35601e-10
1.43473e-09
5.82067e-10
1.21852e-09
6.22165e-10
2.29288e-11
2.13424e-11
2.40091e-11
1.04641e-10
1.08354e-09
1.27941e-08
1.81104e-07
4.14101e-06
0.000562233
81738.8
81739
81739
81739
81738.9
81738.9
81739
81739.1
81739.1
81738.9
81739.1
81738.7
81738.9
81738.3
81738.6
81737.9
81738.3
81737.5
81738.2
81737.5
81738.6
81738.1
81739.2
81738.8
81739.9
81739.2
81740.1
81739.5
81742
81740.7
81741.4
81741.3
81739.5
81744.3
81740.8
81743.6
81744.1
81745.6
81744.7
81744.9
81744
81744.5
81744.2
81744.1
81744.2
81743.9
81744.6
81743.2
81744.3
81742.7
81744.3
81742.1
81743.3
81741.5
81741.9
81741
81739.1
81739.5
81734.9
81734.8
81731.3
81733
2.894e-06
1.39849e-05
1.96827e-07
1.9717e-08
1.52257e-08
3.08922e-08
1.39952e-08
2.61561e-08
1.33366e-08
2.34232e-09
1.42097e-09
1.38801e-09
3.45561e-09
1.01229e-08
2.19193e-07
2.99718e-06
2.70362e-05
0.000529273
0.0841348
81739.1
81738.9
81738.5
81738.6
81738.7
81738.9
81739.2
81739.1
81739.6
81739.3
81739.6
81739.1
81739.2
81738.6
81738.8
81738.2
81738.5
81738.1
81738.8
81738.8
81739.8
81739.8
81740.6
81740.5
81741.3
81741.3
81742.8
81740.1
81743.4
81739.6
81743.7
81742.9
81745.1
81743.3
81747.7
81745.2
81749.2
81745
81748.5
81744.1
81748.4
81743.8
81748.3
81743.4
81748.4
81743
81747.7
81741.9
81746.7
81740.7
81745.1
81738.6
81742.6
81735.8
81739.3
81731.7
81735.2
81726.8
81730.6
81722.4
81721.5
2.41059e-05
81747.5
3.78178e-06
4.10144e-07
2.30914e-07
4.87819e-07
2.60386e-07
4.56736e-07
2.31152e-07
1.29215e-07
2.10218e-08
3.22654e-08
9.58583e-08
3.42042e-07
3.3698e-06
4.03624e-05
0.000198004
0.00100379
0.0189436
1.66714
81738.6
81738.1
81738.1
81738.5
81739
81739.3
81739.8
81739.9
81740.1
81740.1
81739.8
81739.8
81739.4
81739.6
81739
81739.4
81738.9
81740
81739.8
81741.1
81740.7
81741.8
81741.8
81743.2
81743
81742.3
81743.7
81740.7
81746
81743.2
81746.8
81745.7
81748.9
81747.7
81750
81748
81749.3
81747.1
81748.2
81746.8
81747.6
81746.6
81746.7
81746.6
81745.6
81745.8
81743.5
81744.6
81741.3
81742.2
81737.6
81737.8
81733
81731
81727.4
81723.2
81723.6
81719.2
81714.9
81706.7
0.000168924
81745.6
7.97321e-05
9.07187e-06
3.31929e-06
6.21844e-06
4.36212e-06
5.77606e-06
2.96013e-06
9.75497e-06
5.48949e-07
1.24763e-06
3.44793e-06
1.55886e-05
5.4042e-05
0.000333862
0.00105113
0.00215983
0.0113586
0.162296
10.8958
81738
81737.9
81738.5
81739.1
81739.7
81740.2
81740.4
81740.5
81740.1
81740.3
81739.9
81740.3
81739.7
81740.2
81739.4
81740.1
81739.7
81741.1
81740.8
81741.9
81742.2
81743.2
81742.5
81744.1
81743
81744.1
81744.2
81745.4
81745.3
81748.6
81747.4
81750.9
81748.4
81751.6
81747.7
81751.1
81746.1
81750.7
81744.9
81750.6
81743.5
81750.7
81741.9
81750.4
81739.8
81749.8
81737.3
81748.2
81733.7
81744.4
81728.2
81737.2
81720.7
81726.5
81714.3
81719.1
81709.5
81708.1
81697.9
0.0008206
2.55277
0.00279518
0.000316262
4.52215e-05
5.94176e-05
6.20249e-05
5.39685e-05
3.00503e-05
177.405
2.46639e-05
0.000106823
0.000694282
81741.9
0.00132644
0.00162858
0.00311218
0.00412286
0.00975735
0.0500057
0.598313
18.7394
81738.1
81738.6
81739.3
81739.8
81740.4
81740.3
81740.2
81740
81740.1
81740
81740.1
81740
81739.9
81739.6
81739.6
81739.9
81740.5
81741.1
81742.4
81742.3
81742.2
81743.7
81742.4
81747
81742.4
81746.9
81743.8
81749.5
81746
81751.6
81747.3
81752.6
81746.8
81752.5
81745.5
81752.1
81744
81751.9
81742.7
81751.8
81741
81751.7
81739.4
81751.5
81737.5
81750.9
81735
81748.8
81730.2
81743.3
81722.5
81732.8
81712.7
81720.7
81706.5
81710.4
81701.5
81697.7
0.00246232
1.55152
81741.8
81741.6
0.000599124
0.000375425
0.000576972
0.00032012
0.000203167
81740.1
81741.3
81741.2
81741.8
81742.7
1.21574
0.00644081
0.00625017
0.00668494
0.00985532
0.0260488
0.126382
1.13179
32.6935
59193.7
81739.2
81739.9
81740.1
81740.1
81739.5
81739.6
81739.3
81739.9
81739.5
81740
81739.2
81739.5
81738.8
81739.6
81740.2
81741.5
81741.9
81741.6
81743
81741.8
81747.2
81741.3
81747.3
81743.7
81748.7
81745.4
81750.6
81746.4
81751.8
81746.4
81752.1
81745.6
81751.9
81744.4
81751.7
81743.3
81751.5
81741.8
81751.3
81740.5
81751.2
81739.2
81751.4
81737.9
81750.7
81734.9
81747.4
81729
81739
81719
81724.9
81708.7
81710.6
81705.6
81703.2
81698.9
0.00485448
0.99167
81742.7
81742.9
0.0108067
0.00156754
0.00250906
0.0011052
0.00077093
0.0674758
81741.9
81741.6
81742.7
81743
81743.7
0.0323972
0.0126946
0.0104845
0.0113193
0.0189534
0.0512685
0.224997
1.87273
38.7716
7198.02
81739.5
81740
81739.5
81739.1
81738.6
81739.1
81738.9
81739.6
81739.1
81739.4
81738.7
81739.1
81739.7
81740.1
81741.6
81740.4
81742.4
81740.8
81746.2
81740.5
81746.7
81744.5
81748.2
81745.1
81749.6
81745.7
81750.4
81745.9
81750.8
81745.6
81750.9
81745
81750.8
81744.2
81750.5
81743.2
81750.1
81742.2
81749.8
81741.7
81749.9
81741.4
81750
81740.5
81748.4
81737.1
81742.7
81728.8
81729.9
81715.8
81711.4
81706.7
81704.6
81704.8
81699.6
0.00744538
0.528091
12.7107
81743.5
1.71323
0.00537766
0.00566932
0.00254151
0.00168502
0.0106388
86.8487
81742.5
81742.5
81743.7
81743.4
0.368162
0.0352234
0.0192544
0.0155643
0.0182825
0.0321977
0.0855313
0.358444
2.57536
40.1148
3824.49
81739.6
81739
81738.5
81738.1
81738.4
81738.6
81739
81738.9
81739.4
81738.8
81739.9
81739
81741.2
81739.4
81741.6
81740.1
81744.3
81740.1
81744.8
81744.9
81747.4
81745.9
81748
81746.2
81748.2
81746
81748.3
81746.1
81748.5
81746.3
81748.5
81746.1
81747.9
81745.7
81746.9
81745.1
81746
81745.3
81745.5
81746.2
81745.8
81747.6
81745.5
81747.1
81742.5
81741.8
81733.1
81727.9
81714.9
81709.5
81702.5
81704.4
81700.9
81698.1
0.0103477
0.278577
0.625978
14.4135
81743.5
0.0209809
0.0104957
0.00487155
0.00271553
0.00467692
0.384411
9.09867
81742.8
81743.3
81743.6
60.9203
0.176335
0.0498422
0.0280802
0.0236613
0.0290934
0.051872
0.134691
0.525629
3.33784
44.2244
2137.82
81739
81737.7
81738.2
81737.5
81738.8
81738
81739.6
81738.1
81740.4
81738.3
81740.8
81738.7
81741.3
81739.9
81741.4
81740.4
81742.1
81744.9
81745.2
81746.9
81746.1
81747.2
81745.8
81746.8
81745.2
81746.7
81745.2
81747.4
81745.4
81747.9
81744.8
81747.9
81743.5
81747.7
81741.8
81748
81740.8
81749.4
81741
81752.3
81742.1
81755
81742
81754
81736.9
81743.3
81722.1
81720.5
81703.1
81704.1
81698.6
81697.6
81692.4
0.0143591
0.176401
0.153057
0.631307
81744.1
0.132574
0.0215365
0.00908264
0.00415115
0.00365848
0.041451
0.344493
18.149
81743
81744
81742.5
2.73934
0.229056
0.075577
0.0434304
0.0375742
0.0469058
0.0827273
0.207041
0.754817
4.3721
46.4054
1536.51
81737.9
81737.2
81738
81737.5
81738.6
81737.5
81739.7
81737.6
81739.8
81737.7
81741.3
81739.6
81738.4
81740.4
81740
81744
81743.2
81746.5
81744.5
81747.3
81744.3
81746.7
81743.4
81746.3
81743
81746.9
81743.4
81748
81743.3
81748.4
81742.3
81748.3
81740.6
81748.2
81739.2
81749.2
81739.1
81752.2
81741
81756.8
81743.6
81760.1
81743.2
81755.9
81733.6
81737.6
81712.6
81711.6
81697.8
81698
81690.6
81688.9
0.020999
0.144611
0.0767947
0.136666
5.79336
2.21829
0.0552396
0.0177964
0.00683827
0.00409625
0.0132108
0.0597805
0.771933
56.8108
81742
81743.5
4940.22
3.23576
0.379897
0.126129
0.072431
0.0627781
0.0775112
0.133375
0.318962
1.09036
5.62765
51.774
1283.82
81737.1
81737.4
81737.1
81737.6
81738.3
81737.2
81738.4
81736.3
81740.6
81738.9
81737.6
81740
81739.1
81742.5
81742
81745.3
81743.4
81746.3
81743.5
81745.9
81742.6
81745.2
81742
81745.4
81742.5
81746.7
81743.2
81747.8
81742.9
81748.1
81741.7
81747.9
81740.1
81748.3
81739.5
81750.6
81741.2
81755.7
81745.2
81761.8
81748.6
81764
81745.2
81753.9
81728.4
81728.3
81704.1
81703.9
81689.8
81688.2
81682.3
0.0333062
0.152672
0.058553
0.0620029
0.558837
38.6018
0.180314
0.0379383
0.0124553
0.00577677
0.00803018
0.0220473
0.130061
2.13582
257.456
8205.29
81742.6
18118.3
5.29177
0.68962
0.228632
0.129415
0.10997
0.1323
0.218999
0.497027
1.57594
7.45023
60.0201
1087.81
81736.6
81737.7
81737.2
81737.4
81737.5
81736
81739.1
81736.9
81736.6
81739.7
81739.2
81741.6
81740.8
81744.3
81742.4
81745.4
81742.5
81745
81741.6
81744.2
81741
81744.2
81741.3
81745.5
81742.5
81747.2
81743.2
81748.2
81742.8
81748.4
81741.5
81748.4
81740.4
81749.8
81741.3
81754.1
81745.2
81761.2
81750.9
81767.6
81753.2
81765.5
81743.8
81746.8
81718.7
81716.2
81694
81692
81680.2
81679.6
0.058056
0.199217
0.0583387
0.0435301
0.164933
3.74121
0.670909
0.0888915
0.0245702
0.00949131
0.00757802
0.0133508
0.0451534
0.332628
6.7187
53.9423
14.3059
15.0239
13.6119
4.50996
1.17101
0.431017
0.24329
0.201047
0.232401
0.366058
0.781919
2.31275
10.0067
70.2084
1081.38
81736.9
81737.6
81736.1
81736.8
81737.4
81736.1
81735.1
81739.1
81739.1
81742.1
81740.4
81743.9
81741.9
81744.9
81741.8
81744.4
81740.8
81743.5
81739.9
81743.2
81740
81744.2
81741.2
81746.1
81742.7
81747.7
81743.2
81748.2
81742.6
81748.1
81741.6
81748.4
81741.7
81750.9
81744.9
81757.1
81751.5
81765.3
81758.1
81769.7
81756.6
81759.8
81737.3
81730.7
81705.4
81699.5
81682.5
81679.4
81673.5
0.111545
0.30104
0.0689108
0.040666
0.0907819
0.800948
1.98296
0.227076
0.051148
0.0172871
0.0097406
0.0116112
0.0253374
0.106839
0.893217
4.4675
1.95736
1.0234
1.05547
1.6405
2.23332
1.55847
0.787419
0.46775
0.377359
0.416043
0.619233
1.24114
3.41768
13.5561
87.6506
1220.74
81734.9
81736.9
81735.5
81738.2
81735
81739.3
81739.5
81742.6
81741.7
81743.9
81742.6
81744.5
81742.4
81743.7
81741.1
81742.4
81739.8
81741.6
81739.3
81742.1
81740.2
81743.6
81741.8
81745.3
81743.2
81746.1
81743.4
81745.7
81742.8
81744.8
81742.7
81745.1
81745.1
81748.9
81751.5
81756.6
81760.8
81764.6
81766.4
81763.8
81756.5
81742.6
81725.2
81707.4
81692.6
81682.1
81677.3
81674.7
0.235197
0.48011
0.0894552
0.046055
0.0750212
0.401875
3.12617
0.618822
0.111344
0.0337858
0.0154714
0.013289
0.0202142
0.0551725
0.258057
0.945032
0.63066
0.28859
0.21839
0.272528
0.49865
1.03903
1.52483
1.26365
0.873071
0.707166
0.747537
1.05002
1.97522
5.08389
18.9686
115.725
1481.52
81734.8
81739.5
81735.3
81739.8
81740.9
81742.7
81743.4
81744.1
81744.2
81744
81743.8
81742.9
81742.4
81741.2
81740.7
81739.9
81739.7
81739.6
81740
81740.5
81741.3
81741.8
81742.9
81742.5
81743.7
81742
81743.5
81740.3
81743.1
81738.8
81744.3
81739.7
81749.5
81745.2
81759.1
81754.1
81769.1
81760
81769.5
81750.3
81747.4
81719
81710.1
81688.8
81686.1
81678.9
81679
0.538589
0.723668
0.120213
0.0592853
0.0817165
0.324789
3.23874
1.75681
0.256289
0.0695688
0.0281608
0.0187232
0.0210817
0.0402234
0.121864
0.34779
0.313656
0.148517
0.0919627
0.0870899
0.121735
0.235787
0.558036
1.20181
1.63156
1.47237
1.27461
1.32217
1.77096
3.14955
7.68003
27.338
159.782
1992.42
81737.8
81738.9
81741.8
81742.4
81744.4
81743.9
81745.3
81743.6
81744.8
81742.3
81743.4
81740.5
81741.7
81738.8
81740.4
81738
81740.1
81738.2
81740.9
81739.1
81742.2
81739.8
81743.2
81739.4
81743
81737.5
81742
81734.9
81741.5
81733.7
81744.1
81736.5
81751.4
81744.1
81762.1
81752.9
81769.4
81753.5
81760.6
81733.4
81729.3
81700.9
81698.6
81685.3
81686.3
81683.5
1.3091
0.950529
0.161262
0.0831064
0.108015
0.360145
3.44069
5.20117
0.636796
0.149765
0.0554902
0.0306262
0.0269033
0.0379717
0.0813228
0.186989
0.206866
0.109881
0.0605002
0.0462771
0.0501022
0.0744563
0.145962
0.351224
0.875868
1.6832
2.11379
2.12879
2.26914
2.96172
5.04535
11.7956
40.6322
234.59
3024.47
81740.9
81741.4
81744
81743.2
81745.2
81743.2
81744.8
81742.1
81743.6
81740.5
81742.1
81738.9
81740.9
81737.9
81740.4
81737.7
81740.7
81738.2
81741.6
81738.8
81742.3
81738.6
81742.1
81737
81740.4
81734.1
81738.3
81731.4
81737.8
81731.4
81741.3
81736.2
81749.3
81744.7
81758.5
81750.9
81759.9
81743.5
81741.8
81717.2
81710.3
81693.3
81689.7
81689.5
81688.4
3.1815
1.0851
0.214345
0.124116
0.165417
0.511798
4.65209
17.0627
1.722
0.332577
0.112829
0.0547429
0.0394443
0.0432368
0.0695768
0.131821
0.166424
0.104705
0.0550488
0.0357902
0.0313699
0.0367227
0.0559917
0.108046
0.252308
0.646681
1.50156
2.55952
3.22611
3.7507
4.91566
8.15602
18.5311
62.9052
369.514
5138.63
81741.8
81742.1
81743.5
81742.7
81743.6
81742.2
81742.8
81741.1
81741.8
81740
81740.9
81739.2
81740.4
81738.9
81740.5
81739.1
81741
81739.6
81741.5
81739.6
81741
81738.4
81739.1
81735.6
81735.7
81732.1
81732.5
81729.9
81731.8
81731.4
81735.5
81737.4
81742.7
81745.1
81748.7
81746.9
81743.1
81732.5
81719.7
81706
81694
81692.2
81688.6
81692.9
6.73838
1.14469
0.286789
0.196985
0.28908
0.91738
8.79857
69.4718
4.75013
0.719587
0.222341
0.0992286
0.0618534
0.0553662
0.0704622
0.112176
0.15306
0.119096
0.0647803
0.0375469
0.0275517
0.0262306
0.0319143
0.0485834
0.0905659
0.200885
0.502304
1.26855
2.72714
4.44338
5.98056
8.16516
13.4407
30.064
102.296
624.948
9608.74
81740.5
81742.1
81741.2
81742.2
81741.1
81741.9
81740.7
81741.6
81740.3
81741.1
81740
81740.9
81739.9
81741
81740.2
81741.4
81740.4
81741.5
81739.8
81740.7
81737.8
81738.2
81734
81734.3
81729.3
81730.5
81725.4
81729
81724.9
81731.5
81728.6
81737.8
81735.1
81743.9
81737.6
81740.7
81726.7
81721.4
81703.6
81699.4
81689.7
81694.3
81691.2
10.2845
1.1979
0.396823
0.336508
0.582966
2.12946
25.6222
292.267
10.0223
1.30318
0.382365
0.165347
0.0951373
0.073907
0.0784456
0.107332
0.151439
0.14956
0.0933948
0.0514129
0.0325537
0.025753
0.0255644
0.0313405
0.0466105
0.0827566
0.172615
0.412778
1.07319
2.71075
5.68885
9.33389
13.8044
22.9215
50.9716
175.764
1127.55
19078.3
81738.8
81741.4
81739.3
81741.5
81739.7
81741.8
81739.8
81741.9
81739.8
81741.8
81739.7
81741.9
81739.6
81742.1
81739.7
81742.1
81739.4
81741.4
81738
81739.1
81734.9
81735.2
81730.2
81730.3
81725.3
81726.2
81722.2
81724.8
81723.2
81728
81728.4
81734.3
81734.5
81738.2
81733.4
81729.6
81718.4
81709.7
81700
81696.8
81694
81696.5
10.7534
1.30997
0.584524
0.633692
1.404
6.88088
122.182
241.344
10.0837
1.59895
0.505204
0.228363
0.131185
0.0953247
0.0897657
0.108772
0.152888
0.189256
0.153433
0.0892283
0.0509125
0.0340129
0.0278568
0.0278724
0.0335427
0.0478347
0.0800232
0.156341
0.355906
0.930769
2.63789
7.00709
14.6371
24.4181
41.3873
91.6258
319.879
2120.92
35840.6
81738.1
81739.9
81739.1
81740.1
81739.8
81740.5
81740
81740.6
81739.8
81740.6
81739.6
81740.5
81739.6
81740.4
81739.6
81739.8
81738.9
81737.9
81737
81734.3
81733.6
81729.4
81729.1
81724.1
81725.3
81720
81724.8
81719.8
81728
81724.8
81733.6
81731.5
81738
81731.1
81731.7
81719.1
81714.9
81703.9
81701.1
81699.1
81696.8
9.16752
1.54972
0.943054
1.35969
4.27279
34.1474
340.491
44.0488
5.15839
1.27313
0.490384
0.249441
0.153652
0.112604
0.100545
0.112055
0.152641
0.221933
0.255179
0.186986
0.105212
0.0607248
0.0411145
0.0335946
0.0328706
0.037934
0.0510522
0.0798818
0.146314
0.318391
0.834281
2.59604
8.63258
24.023
47.3261
81.8726
177.605
620.268
4127.02
71857.9
81737.9
81738.3
81739
81738.5
81739.3
81738.5
81739.1
81738.3
81738.8
81738
81738.7
81737.8
81738.7
81737.5
81738.5
81736.1
81737.5
81733.4
81735.4
81729.3
81732
81724.6
81728.3
81720.1
81726.8
81718.1
81728.9
81722.5
81730.5
81729
81736
81733.4
81737.2
81728.5
81726.5
81715.7
81713.3
81707.8
81705.9
81705
7.80599
2.036
1.71595
3.46031
17.3216
178.263
80.9461
9.5326
2.21959
0.802636
0.38553
0.227031
0.155466
0.120984
0.108378
0.115597
0.150668
0.23404
0.369304
0.42001
0.285507
0.151425
0.0844752
0.0555158
0.0436804
0.0406275
0.0440431
0.0552798
0.0807221
0.139437
0.293119
0.775452
2.64146
11.0573
43.9506
109.211
188.072
389.682
1384.63
9429.97
81737.5
81737.8
81736.9
81738
81736.5
81737.6
81736.1
81737.3
81735.7
81737
81735.5
81736.9
81735.1
81736.8
81734.4
81736.1
81732.6
81735.2
81729.7
81732.9
81726.1
81729.1
81722.4
81727
81720.3
81728.8
81723.3
81728.4
81729.1
81731.9
81734.9
81738.6
81736.5
81736
81728.9
81725.9
81720.1
81718.9
81716.3
81714.3
7.44001
3.04174
3.62882
10.7194
74.8016
111.093
14.3612
3.02453
1.05163
0.493873
0.284359
0.191497
0.145887
0.122841
0.114264
0.120607
0.150747
0.231244
0.428761
0.798979
0.942088
0.564209
0.261065
0.132512
0.0807078
0.0590957
0.0510042
0.0511746
0.059589
0.0815212
0.134353
0.276868
0.749384
2.82345
15.329
100.588
366.132
569.856
1058.08
3438.02
22617.1
81736.4
81737.3
81735
81736.8
81734.4
81736.2
81733.9
81735.9
81733.5
81735.6
81733.1
81735.2
81732.6
81734.5
81731.4
81733.8
81729.5
81732.6
81727.4
81728
81724.4
81725
81722.5
81725.7
81723.7
81730.2
81728.8
81729.8
81733.4
81736.9
81739.6
81741.2
81737.9
81734.8
81730.1
81728.7
81725.8
81723.5
81722.1
8.33051
5.28121
9.06853
35.6891
93.5955
21.0685
4.08357
1.30261
0.586657
0.330491
0.218642
0.164434
0.137356
0.124821
0.122181
0.130539
0.158317
0.230659
0.42868
1.04184
2.71897
3.42393
1.48632
0.520426
0.22274
0.120961
0.0803898
0.063357
0.0584174
0.063245
0.0818533
0.13056
0.268146
0.755209
3.21236
24.2535
388.32
3078.19
2028.96
2778.38
7849.06
49060.4
81735
81737.2
81733.4
81736.1
81733
81735.6
81732.6
81735.1
81732.2
81734.3
81731.8
81733
81730.9
81731.7
81729.3
81730.7
81728.2
81726.3
81725.9
81721.9
81724.1
81722
81724.2
81727.3
81729.1
81729.2
81734
81732.3
81740.5
81738.7
81744.5
81738.6
81740.6
81733.7
81735.1
81731.5
81730.2
81728.7
11.1686
10.752
24.8973
65.0708
28.2716
5.7467
1.68963
0.714128
0.3877
0.25085
0.18537
0.152711
0.137804
0.133863
0.138021
0.151149
0.180504
0.248171
0.425437
1.01657
3.98036
25.4271
29.8481
4.73773
1.09163
0.380996
0.18054
0.107162
0.0764637
0.0648228
0.0657906
0.0816392
0.128063
0.266644
0.796414
3.95343
46.9828
5571.15
31151.9
5387.83
6032.44
16083.2
81736.6
81733.3
81736.9
81732.9
81735.5
81732.9
81734.8
81732.9
81734
81732.8
81732.3
81731.9
81730.4
81729.8
81728.8
81728.3
81725.7
81725.5
81721
81723.9
81720.6
81723.5
81722.2
81727.3
81725.6
81731.3
81731.3
81737.5
81738.2
81744
81742.8
81745.5
81741.7
81741.9
81738.4
81737.8
81736.6
81735
17.9203
24.3554
50.9793
35.6964
8.40948
2.33053
0.923025
0.47963
0.302162
0.219495
0.17836
0.159074
0.153518
0.158051
0.171068
0.193158
0.230209
0.30169
0.46775
0.962301
3.26942
35.9192
81739.5
394.492
15.5504
2.30218
0.644967
0.262021
0.137354
0.0886416
0.0696208
0.0671004
0.0810726
0.127093
0.272896
0.883964
5.30229
102.297
81735.9
76661.2
10648.6
11655.8
33255.6
81735.7
81732.7
81736.9
81734.2
81735
81734.6
81734.6
81734.9
81733.2
81733.8
81731.3
81731.1
81729.5
81728
81726.6
81725.1
81725.1
81722.8
81721.2
81720.1
81721.9
81720.9
81725.1
81724.8
81730.6
81731.1
81738.1
81738.8
81745.6
81745
81749.6
81746.9
81748.9
81745.3
81747.2
81744.5
81744.7
32.8239
47.8547
43.1499
12.7842
3.43265
1.27114
0.630241
0.386727
0.277143
0.223605
0.198444
0.190665
0.195912
0.212763
0.241006
0.281354
0.338279
0.428997
0.607238
1.05353
2.63346
14.0257
783.334
81740.5
11187.3
53.3064
4.84354
1.05677
0.361844
0.167068
0.0982556
0.0724521
0.0673369
0.0804572
0.12804
0.288589
1.0326
7.39658
187.053
81735.3
81733.3
18508.3
22505.1
76788.7
81736.3
81733.7
81736
81736.9
81735.5
81737.2
81734.8
81736.1
81733.8
81733
81731.2
81729.7
81729.6
81727.4
81726.4
81721.8
81721.8
81718.3
81719.8
81717.4
81720.8
81719.5
81725
81725.1
81732.4
81733.6
81741.9
81743.3
81751.2
81751.4
81756.8
81755.3
81758.3
81757
81757.5
81754.8
57.3205
51.2443
19.3951
5.33924
1.86326
0.877105
0.523313
0.371592
0.30033
0.268406
0.260151
0.269573
0.295246
0.338308
0.401005
0.485258
0.593721
0.739455
0.972163
1.44709
2.72186
7.82676
49.6994
790.436
81741.9
81739.8
202.403
9.95879
1.63139
0.467712
0.191799
0.104313
0.0733838
0.0668071
0.080147
0.131528
0.315895
1.25511
10.5782
387.343
81734.9
81734.1
32004.6
46405.9
81737.4
81737.4
81738.9
81735.8
81739.7
81735.6
81739.6
81735.9
81736.5
81733.9
81734.3
81731.7
81729.5
81727.5
81724.2
81721.3
81718.8
81717
81715.6
81715.2
81715.2
81716.9
81719
81722.9
81727
81733
81738.7
81745.7
81751.6
81757.6
81761.5
81764.8
81767.1
81767.4
81767.2
81764.8
66.5777
28.7613
8.48196
2.86222
1.28365
0.742931
0.523356
0.426939
0.389218
0.387017
0.412457
0.464575
0.546593
0.665164
0.829151
1.04542
1.31267
1.62642
2.01679
2.6264
3.89008
7.33716
20.7239
101.559
1296
81740.5
81740.7
885.163
19.2345
2.31705
0.561786
0.208208
0.106603
0.0727424
0.0658903
0.0805918
0.138456
0.359263
1.6148
16.9251
1073.08
81735.3
81735.6
57248.2
81735.6
81739.8
81734.4
81742.2
81736.2
81742.9
81735.3
81739.9
81737
81736.9
81734
81731.7
81729.7
81726.6
81724
81720.2
81718.5
81714.8
81714.6
81711.7
81713.6
81712.4
81717.2
81718.3
81725.8
81729.2
81738.8
81743.7
81753.5
81757.9
81764.9
81767.6
81770.5
81771.2
81770.3
81768
43.6675
13.5384
4.50373
1.94334
1.09333
0.7649
0.633017
0.595318
0.61782
0.692649
0.824914
1.02822
1.3234
1.73925
2.31226
3.07402
4.00838
5.00017
5.89864
6.75935
8.05622
11.0034
19.5214
52.9469
240.637
2751.76
81739.6
81740.7
4504.67
33.4396
2.99067
0.627595
0.214803
0.105503
0.071036
0.0650756
0.0824801
0.150941
0.432802
2.28093
32.0894
4609.45
81735.8
81736.9
81737
81736.4
81741.7
81734.5
81745.2
81735
81744.1
81739
81739.4
81737.8
81735.5
81734.3
81730.5
81730
81724.5
81724.6
81718.3
81719.6
81713.3
81716.4
81711
81717
81713.4
81722.4
81721.1
81732.5
81733.2
81746
81747.6
81758.7
81759.6
81765.9
81765.9
81767.7
81765.8
81763
22.0061
7.19387
2.99827
1.6419
1.14206
0.962805
0.943077
1.0384
1.25416
1.63038
2.24349
3.21308
4.7066
6.94133
10.1859
14.7042
20.4045
26.0187
29.0576
28.5057
26.5975
26.6758
32.8967
57.6649
149.254
648.921
6791.79
81739.7
81739.9
26537.1
50.7685
3.4967
0.654776
0.21197
0.10192
0.0689896
0.0650898
0.0871485
0.173704
0.566541
3.67971
76.956
54563.4
81736.8
81737.3
81737.2
81737
81743.8
81733.1
81746.9
81742.4
81742.7
81742.1
81740.4
81740.3
81736.9
81737.3
81732.3
81732.9
81726.7
81727.8
81720.9
81723.2
81716.7
81721
81715.7
81722.7
81719.1
81728.4
81726.8
81737.9
81737.8
81748.9
81749.2
81756.7
81756.7
81760.7
81760.2
81758.6
81754.4
11.6742
4.68841
2.49124
1.71682
1.47449
1.51454
1.7966
2.39673
3.52703
5.63899
9.6465
17.3234
31.8632
58.4187
104.434
179.119
285.17
385.442
389.126
285.947
179.037
118.594
98.0581
112.956
186.742
465.195
1974.56
19489.9
81740.4
81739.1
81739.7
65.934
3.70718
0.642422
0.202077
0.0972934
0.0676022
0.0670575
0.0969522
0.216033
0.833095
7.10244
263.085
81738.1
81739
81739.5
81740.2
81739
81746.3
81741.3
81747.4
81745.1
81745.3
81745.5
81743
81743.9
81739.9
81740.8
81735.3
81736.3
81729.7
81731.3
81724.4
81727.3
81721
81725.8
81720.7
81727.6
81724
81732.7
81730.6
81740.4
81739.5
81747.2
81747.5
81753
81753.9
81754.4
81751.5
81746.1
7.39295
3.80093
2.57938
2.2425
2.41304
3.11326
4.6978
8.15984
16.1973
36.7108
95.1101
280.493
923.731
3276.03
12078.7
45129.8
81750.3
81748.6
81744.9
31830.2
5629.7
1477.46
626.229
418.053
429.892
666.516
1614.23
6819.46
64277
81740.6
81739.3
81739.7
72.3668
3.59152
0.600808
0.18913
0.0934317
0.0681381
0.0726535
0.116252
0.299129
1.42929
17.5862
1654.23
81742.1
81742.3
81741.5
81739.9
81744.2
81747.8
81744.2
81748.6
81748.7
81746.6
81748.1
81744.3
81745.8
81740.6
81742
81735.5
81737.1
81729.9
81732.1
81724.8
81728.4
81721.8
81727.2
81721.6
81728.8
81724.6
81733.2
81730.3
81738
81737.1
81743.8
81745.2
81748.9
81747.5
81743.7
81738.7
5.78532
3.8509
3.36379
3.76099
5.26697
9.11123
19.4491
52.189
184.946
963.275
9478.92
81751.1
81752.5
81753.1
81752.6
81751.6
81750.1
81747.5
81746.5
81742.9
81743.7
81739.9
18525
4011.72
2035.9
1825.86
2646.66
6264.29
25904.4
81741.2
81739.7
81739.8
81737.9
67.6729
3.24603
0.54755
0.177648
0.0922593
0.0722336
0.084773
0.154428
0.476591
3.00727
62.5663
31183.5
81743.9
81741.4
81742.6
81741.1
81746.3
81746.7
81747.8
81748.1
81749.7
81745.7
81747.6
81742.4
81744.2
81737.9
81739.4
81732.1
81733.8
81726.1
81728.6
81721.1
81725.1
81718.4
81723.9
81718.4
81725.4
81721
81727.8
81725.3
81731.6
81732.4
81737.9
81738.1
81736.9
81732.6
81729
5.66059
4.93702
5.68483
8.55758
16.9268
45.435
180.437
1313.34
34717.2
81746.9
81747.7
81749.5
81751.3
81752.3
81752.6
81751.4
81750
81748.4
81745.8
81744.4
81742.7
81741.9
81742.4
81741.4
32653.9
11510.8
8733.54
11716
26396.4
81740.6
81740.8
81738.9
81739.1
81737.3
56.1526
2.82868
0.499915
0.171712
0.095951
0.0825266
0.109347
0.234144
0.908619
8.32309
367.497
81740.5
81743.4
81740.5
81743.1
81741.7
81747.7
81745.9
81748.6
81746.2
81747
81743.2
81743.8
81739.2
81739.3
81733.9
81733.7
81727.8
81727.8
81721.9
81722.6
81717.4
81719.2
81715
81718
81714.9
81718.1
81716
81719.3
81719.3
81724.1
81724.4
81726.1
81722.9
81720.2
81717.2
7.02517
8.23904
13.171
29.4254
99.2635
623.976
14439
81745.7
81744.7
81744.6
81745.9
81747.8
81750.1
81751.9
81752.1
81751.6
81750
81747.5
81745.8
81743.7
81742.2
81742.3
81742
81741.5
81742
81741.6
77274.4
47183.9
55747.5
81740.8
81741
81739.1
81739.2
81737.9
81738.2
43.9748
2.46687
0.470839
0.175346
0.107792
0.104237
0.160228
0.418421
2.17665
32.5299
4707.29
81739.1
81742.8
81741
81743.2
81743.5
81747.2
81745.4
81745.6
81745
81742.8
81742.1
81739.2
81738
81734.5
81732.9
81729
81727.5
81723.4
81722.4
81718.6
81718.6
81715.4
81716.2
81713.4
81714.5
81712.4
81713.3
81714.4
81714.4
81716.5
81714.1
81712.5
81708.4
81706.7
11.36
18.8942
46.6975
194.38
1995.16
81746.5
81745.6
81743.9
81743
81743
81744.1
81746.5
81749.1
81751.1
81752
81751.4
81748.7
81747.9
81744.4
81743.8
81741.6
81742.3
81741.5
81742.2
81741.6
81742.8
81742.1
81742.9
81741.6
81742.1
81740.2
81740.3
81738.8
81738.5
81738.4
71254.1
34.5225
2.23276
0.471112
0.194234
0.134137
0.149281
0.274285
0.914834
6.87095
202.019
81742.2
81739.6
81741.4
81743
81742.5
81745.5
81743.8
81747
81744.2
81746.3
81741.8
81744
81738.8
81740.6
81734.8
81736.6
81730.2
81732.2
81725.4
81727.8
81721.1
81724.1
81717.6
81720.7
81714.5
81716.6
81713.2
81713.3
81713.4
81711
81710.6
81705.4
81702.4
47508.4
25.1628
66.1069
323.986
5303.94
81746.4
81745.5
81744.1
81742.6
81741.4
81741.4
81743
81745.4
81748.2
81750.6
81751.6
81750.7
81750.6
81746.8
81746.3
81741.2
81742.3
81742
81741.7
81742.3
81742.1
81743.1
81742.5
81743.2
81742.2
81742.7
81741
81741.9
81739.1
81741.5
81739.8
81736.8
23910.4
28.6235
2.17047
0.515049
0.239267
0.189321
0.248424
0.565022
2.53884
30.8678
2483.77
81740.6
81742.2
81741.2
81745.2
81744
81750
81746.5
81750.7
81747.4
81749.4
81745.9
81747.2
81743.5
81744.6
81740.3
81741.4
81736.7
81737.8
81732.8
81733.9
81728.8
81729.8
81724.4
81724.7
81720
81719.2
81717.1
81715.5
81715.3
81710
81706.7
81700.4
11228.3
83.931
443.862
10002.4
81745.7
81745.4
81744.6
81743.2
81741.1
81740.1
81740.5
81742
81744.6
81747.6
81749.8
81751.4
81751.5
81749.8
81748.6
81745.3
81743.6
81742.4
81741.5
81742.4
81742
81743.3
81742.7
81744.1
81743
81744.2
81742.6
81743.7
81741.5
81743.3
81741.6
81739.1
81742
81733.6
11049.6
26.2068
2.33467
0.630007
0.334957
0.309865
0.492922
1.44686
9.50108
223.068
81742.9
81741.2
81746.2
81746.3
81750.2
81748.5
81753.7
81750.2
81751.4
81750.8
81749
81749.1
81747
81747
81745.1
81745
81742.9
81742.6
81740.2
81739.7
81737
81736.2
81732.7
81731.4
81727.1
81725.7
81723.9
81724.8
81720.9
81719.6
81711.8
12892.2
4408.2
516.305
12229.5
81744.9
81744.9
81744.9
81743.7
81741.9
81740.1
81739.1
81739.5
81741.4
81744
81746.7
81749.5
81750.6
81750.4
81749.8
81748.4
81746.1
81744
81742.3
81742.1
81742.5
81742.8
81743.6
81743.8
81744.4
81744.4
81745
81744.3
81744.9
81744.1
81745.4
81741.7
81744.9
81735.4
81748.3
81734.5
7103.76
27.2667
2.83779
0.880077
0.544564
0.602832
1.20386
4.85669
52.6178
3352.45
81746.6
81745.7
81748.8
81748.5
81748.2
81748.1
81747.7
81747.4
81744.5
81746.6
81742
81744.8
81740.9
81743.9
81740.3
81743.4
81739.5
81742.7
81738.5
81741.6
81736.7
81739.4
81733.2
81734.4
81730.6
81733.4
81731.3
81733.4
47123.6
8386.85
3467.27
2524.29
11025.7
81743.8
81744.4
81744.4
81743.8
81742.9
81741.2
81739
81738.1
81738.8
81740.9
81743.5
81746.4
81748.9
81749.2
81750.1
81748.7
81747.6
81746.4
81744.7
81743.1
81743.1
81742.8
81743.9
81743.6
81744.7
81744.4
81745.6
81744.8
81745.7
81744.8
81746.3
81742.1
81746.1
77092.1
80968.6
81736.8
81745.5
81741.6
6119.69
32.7641
3.97782
1.43647
1.05577
1.44218
3.80934
23.2392
522.055
81741.4
81743
81741.9
81739.6
81738.1
81736.7
81738.4
81735.3
81736.2
81733.1
81734.8
81732.2
81734.6
81732.6
81735.5
81733.5
81736.6
81734.6
81737.6
81735.2
81738.2
81734.7
81736.4
81732.7
81735
81733.6
35697.2
5939.38
2168.56
1380.38
1361.55
1936.12
81744.5
81743.8
81743.9
81743.6
81743.5
81742.1
81740.1
81738.2
81737.3
81738.1
81740.4
81743.2
81746.3
81747.8
81750.2
81749.1
81749.2
81746.9
81746.8
81745.5
81744.3
81743.6
81743.7
81743.7
81744.1
81744.6
81745.2
81745.4
81745.4
81745.8
81746.4
81743.8
81747.8
81740
63268.8
50149
55646.4
81742.7
81737.8
81741.5
6824.01
46.4124
6.61008
2.82604
2.53825
4.48549
17.0257
189.576
16722.9
81733.9