/*--------------------------------*- C++ -*----------------------------------*\
  =========                 |
  \\      /  F ield         | OpenFOAM: The Open Source CFD Toolbox
   \\    /   O peration     | Website:  https://openfoam.org
    \\  /    A nd           | Version:  7
     \\/     M anipulation  |
\*---------------------------------------------------------------------------*/
FoamFile
{
    version     2.0;
    format      ascii;
    class       surfaceScalarField;
    location    "30";
    object      phi;
}
// * * * * * * * * * * * * * * * * * * * * * * * * * * * * * * * * * * * * * //

dimensions      [0 3 -1 0 0 0 0];

internalField   nonuniform List<scalar> 
99520
(
-6.77169e-09
2.60629e-10
1.3874e-08
-4.49217e-09
5.08347e-09
-2.37707e-09
5.2479e-09
-1.26486e-09
6.25079e-09
1.12369e-10
5.98577e-09
-2.30445e-09
9.77982e-09
-5.52667e-10
5.61121e-09
-2.87589e-10
7.09792e-09
6.14491e-10
6.46092e-09
4.553e-10
7.52219e-09
3.04276e-10
7.51402e-09
1.46636e-09
6.20091e-09
2.70738e-09
6.12198e-09
4.88846e-09
5.18192e-09
7.32416e-09
4.9273e-09
1.43426e-08
3.44593e-10
1.0364e-08
1.13415e-08
6.56464e-09
1.11623e-08
3.50437e-09
1.04232e-08
1.69234e-09
9.17498e-09
8.60599e-10
8.19472e-09
4.99547e-10
7.72401e-09
3.19687e-10
7.54285e-09
2.16768e-10
7.4659e-09
1.53066e-10
7.42673e-09
1.10934e-10
7.40517e-09
8.15442e-11
7.39247e-09
6.02077e-11
7.38442e-09
4.42548e-11
7.37905e-09
3.2034e-11
7.37532e-09
2.24623e-11
7.37262e-09
1.48483e-11
7.37065e-09
8.69337e-12
7.36916e-09
3.66091e-12
7.36805e-09
-5.22578e-13
7.36716e-09
-4.03721e-12
7.36649e-09
-7.02705e-12
7.36592e-09
-9.56433e-12
7.36549e-09
-1.17254e-11
7.36511e-09
-1.35691e-11
7.36482e-09
-1.51531e-11
7.36456e-09
-1.6512e-11
7.36435e-09
-1.76781e-11
7.36416e-09
-1.86709e-11
7.364e-09
-1.95206e-11
7.36385e-09
-2.02361e-11
7.36372e-09
-2.08488e-11
7.36359e-09
-2.13818e-11
7.36348e-09
-2.1801e-11
7.36338e-09
-2.21545e-11
7.3633e-09
-2.24101e-11
7.36322e-09
-2.25853e-11
7.36317e-09
-2.26731e-11
7.36311e-09
-2.2731e-11
7.36303e-09
-2.26379e-11
7.36301e-09
-2.25694e-11
7.36291e-09
-2.23616e-11
7.36286e-09
-2.21477e-11
7.36283e-09
-2.1907e-11
7.36274e-09
-2.15893e-11
7.36274e-09
-2.1274e-11
7.36265e-09
-2.08724e-11
7.36266e-09
-2.05058e-11
7.36257e-09
-2.00308e-11
7.36261e-09
-1.96048e-11
7.36251e-09
-1.90778e-11
7.36256e-09
-1.86168e-11
7.36247e-09
-1.80589e-11
7.36252e-09
-1.7555e-11
7.36245e-09
-1.69859e-11
7.3625e-09
-1.64657e-11
7.36244e-09
-1.59123e-11
7.3625e-09
-1.53743e-11
7.36248e-09
-1.48429e-11
7.36253e-09
-1.42773e-11
7.36256e-09
-1.37982e-11
7.36258e-09
-1.32044e-11
7.36266e-09
-1.29004e-11
7.36257e-09
-1.23375e-11
7.36271e-09
7.36261e-09
-1.23424e-11
-3.92754e-09
-1.28025e-09
5.46841e-09
-2.90277e-09
4.0587e-09
-2.48779e-09
4.83292e-09
-2.19778e-09
5.96079e-09
-2.18657e-09
5.97456e-09
-1.18523e-09
8.77849e-09
-1.4957e-11
4.44094e-09
2.25513e-10
6.85746e-09
-5.86843e-10
7.27328e-09
3.71329e-10
6.56402e-09
1.43347e-09
6.45188e-09
1.98503e-09
5.64935e-09
3.06745e-09
5.03956e-09
4.42747e-09
3.82191e-09
4.64981e-09
4.70496e-09
5.6395e-09
-6.45088e-10
1.16315e-08
5.34947e-09
1.06748e-08
1.2119e-08
7.50661e-09
1.35914e-08
4.59983e-09
1.20817e-08
2.68322e-09
1.01113e-08
1.60276e-09
8.80444e-09
1.01443e-09
8.13115e-09
6.78717e-10
7.80163e-09
4.72813e-10
7.63266e-09
3.37971e-10
7.54009e-09
2.44815e-10
7.48571e-09
1.777e-10
7.45165e-09
1.27692e-10
7.42918e-09
8.94028e-11
7.41367e-09
5.94572e-11
7.40266e-09
3.55513e-11
7.39456e-09
1.62076e-11
7.38856e-09
2.92548e-13
7.38395e-09
-1.29343e-11
7.38042e-09
-2.41096e-11
7.37758e-09
-3.35939e-11
7.37536e-09
-4.17258e-11
7.37352e-09
-4.86973e-11
7.37205e-09
-5.47311e-11
7.37079e-09
-5.99479e-11
7.36977e-09
-6.44935e-11
7.36886e-09
-6.84336e-11
7.36811e-09
-7.18667e-11
7.36742e-09
-7.48237e-11
7.36683e-09
-7.74051e-11
7.36626e-09
-7.96324e-11
7.36577e-09
-8.15378e-11
7.36532e-09
-8.31105e-11
7.36493e-09
-8.44511e-11
7.3645e-09
-8.54386e-11
7.36422e-09
-8.62383e-11
7.36387e-09
-8.67363e-11
7.36364e-09
-8.70217e-11
7.36333e-09
-8.71076e-11
7.36312e-09
-8.69958e-11
7.36281e-09
-8.66335e-11
7.36264e-09
-8.62288e-11
7.36233e-09
-8.55314e-11
7.3622e-09
-8.48381e-11
7.3619e-09
-8.38248e-11
7.36182e-09
-8.28746e-11
7.36153e-09
-8.15946e-11
7.36148e-09
-8.04161e-11
7.36122e-09
-7.88992e-11
7.36121e-09
-7.75273e-11
7.36096e-09
-7.58351e-11
7.36098e-09
-7.4305e-11
7.36076e-09
-7.24749e-11
7.36081e-09
-7.08222e-11
7.36063e-09
-6.89147e-11
7.36071e-09
-6.71825e-11
7.36057e-09
-6.52336e-11
7.3607e-09
-6.34273e-11
7.36062e-09
-6.14795e-11
7.36076e-09
-5.95994e-11
7.36075e-09
-5.7781e-11
7.36083e-09
-5.5899e-11
7.36085e-09
-5.42548e-11
7.36094e-09
7.36106e-09
-5.26839e-11
-1.76914e-09
-1.85741e-09
2.34627e-09
-6.65435e-11
2.3561e-09
-3.39547e-09
8.16186e-09
-2.1064e-09
4.67173e-09
-2.25229e-09
6.12045e-09
-1.69116e-10
6.69532e-09
-1.94389e-10
4.46622e-09
2.93305e-10
6.36977e-09
-1.03894e-09
8.60553e-09
-1.72969e-11
5.54237e-09
1.16163e-09
5.27295e-09
2.02328e-09
4.78771e-09
3.08047e-09
3.98238e-09
3.94173e-09
2.96065e-09
5.03886e-09
3.60786e-09
4.8292e-09
-4.35439e-10
6.97447e-09
3.20417e-09
8.78811e-09
1.03053e-08
8.17399e-09
1.42054e-08
6.14915e-09
1.41065e-08
4.08212e-09
1.21783e-08
2.59633e-09
1.02902e-08
1.6798e-09
9.04768e-09
1.12985e-09
8.35159e-09
7.87073e-10
7.9755e-09
5.61604e-10
7.76563e-09
4.05734e-10
7.64171e-09
2.93356e-10
7.56415e-09
2.09487e-10
7.5131e-09
1.45228e-10
7.47804e-09
9.4779e-11
7.45312e-09
5.45297e-11
7.43492e-09
2.17696e-11
7.4213e-09
-5.13703e-12
7.41094e-09
-2.76597e-11
7.40288e-09
-4.65973e-11
7.39653e-09
-6.27866e-11
7.39145e-09
-7.66107e-11
7.38733e-09
-8.85816e-11
7.38395e-09
-9.89076e-11
7.38113e-09
-1.07931e-10
7.37877e-09
-1.15764e-10
7.37673e-09
-1.22632e-10
7.37497e-09
-1.28595e-10
7.37341e-09
-1.33824e-10
7.37202e-09
-1.38364e-10
7.37077e-09
-1.42274e-10
7.36965e-09
-1.45616e-10
7.36862e-09
-1.48429e-10
7.36768e-09
-1.50748e-10
7.36682e-09
-1.52655e-10
7.366e-09
-1.54041e-10
7.36535e-09
-1.55104e-10
7.3646e-09
-1.5574e-10
7.36398e-09
-1.56021e-10
7.36338e-09
-1.55918e-10
7.36282e-09
-1.5554e-10
7.36224e-09
-1.54827e-10
7.36172e-09
-1.53888e-10
7.36119e-09
-1.52621e-10
7.36074e-09
-1.51166e-10
7.36028e-09
-1.49413e-10
7.35987e-09
-1.47513e-10
7.35947e-09
-1.45334e-10
7.35913e-09
-1.43046e-10
7.3588e-09
-1.4052e-10
7.35851e-09
-1.37922e-10
7.35825e-09
-1.35119e-10
7.35803e-09
-1.32271e-10
7.35783e-09
-1.29268e-10
7.35768e-09
-1.26244e-10
7.35756e-09
-1.2311e-10
7.35749e-09
-1.19955e-10
7.35745e-09
-1.16753e-10
7.35747e-09
-1.13512e-10
7.3575e-09
-1.10362e-10
7.35758e-09
-1.07153e-10
7.35765e-09
-1.0407e-10
7.35776e-09
-1.01054e-10
7.35791e-09
7.35818e-09
-9.8331e-11
-8.14775e-10
-1.4237e-09
3.80997e-10
-1.34824e-09
2.8896e-09
-1.42318e-09
8.23678e-09
-4.45601e-11
3.29311e-09
-6.64841e-12
6.08253e-09
1.59959e-11
6.67268e-09
-9.43785e-12
4.49164e-09
-6.41664e-11
6.42449e-09
-2.95793e-09
1.14993e-08
-1.82605e-10
2.76705e-09
1.04234e-10
4.98611e-09
7.44314e-10
4.14763e-09
2.30562e-09
2.42108e-09
2.94974e-09
2.31658e-09
3.68886e-09
2.86873e-09
2.965e-09
2.88417e-10
3.96185e-09
2.20723e-09
6.18709e-09
8.08005e-09
7.20315e-09
1.31893e-08
6.47084e-09
1.48388e-08
4.87685e-09
1.37722e-08
3.34812e-09
1.18189e-08
2.24427e-09
1.01515e-08
1.52934e-09
9.06657e-09
1.07089e-09
8.43398e-09
7.66736e-10
8.06993e-09
5.55703e-10
7.85282e-09
4.03099e-10
7.71686e-09
2.88854e-10
7.62734e-09
2.00953e-10
7.56599e-09
1.31796e-10
7.52228e-09
7.63647e-11
7.49042e-09
3.1222e-11
7.46646e-09
-6.03414e-12
7.44827e-09
-3.71741e-11
7.43399e-09
-6.34526e-11
7.42284e-09
-8.5853e-11
7.41378e-09
-1.05043e-10
7.40655e-09
-1.21617e-10
7.40047e-09
-1.35954e-10
7.39552e-09
-1.48444e-10
7.39123e-09
-1.59312e-10
7.38765e-09
-1.68802e-10
7.38446e-09
-1.77079e-10
7.3817e-09
-1.84277e-10
7.37919e-09
-1.90501e-10
7.37698e-09
-1.95855e-10
7.37494e-09
-2.00339e-10
7.37316e-09
-2.04146e-10
7.37144e-09
-2.07253e-10
7.36994e-09
-2.09722e-10
7.3685e-09
-2.11614e-10
7.36719e-09
-2.12965e-10
7.3659e-09
-2.13727e-10
7.36478e-09
-2.14009e-10
7.36363e-09
-2.13749e-10
7.36263e-09
-2.13111e-10
7.36156e-09
-2.11975e-10
7.36067e-09
-2.10539e-10
7.35968e-09
-2.08617e-10
7.35892e-09
-2.06473e-10
7.35802e-09
-2.03861e-10
7.35737e-09
-2.01102e-10
7.35657e-09
-1.97894e-10
7.35605e-09
-1.94612e-10
7.35535e-09
-1.90916e-10
7.35494e-09
-1.8721e-10
7.35434e-09
-1.83128e-10
7.35406e-09
-1.79089e-10
7.35359e-09
-1.74725e-10
7.35343e-09
-1.70444e-10
7.35308e-09
-1.65887e-10
7.35305e-09
-1.61441e-10
7.35284e-09
-1.56791e-10
7.35292e-09
-1.52288e-10
7.35285e-09
-1.47726e-10
7.35303e-09
-1.4326e-10
7.35311e-09
-1.38888e-10
7.35336e-09
-1.3461e-10
7.35362e-09
7.35405e-09
-1.30657e-10
-1.12365e-09
-6.48896e-10
3.48916e-10
-5.64678e-10
2.33057e-09
1.37528e-09
6.29684e-09
1.06879e-09
3.59953e-09
1.00393e-09
6.14739e-09
9.15443e-10
6.76105e-09
3.84645e-10
5.0224e-09
-7.66856e-10
7.57586e-09
-7.3765e-10
1.14701e-08
-4.74043e-11
2.07677e-09
8.31734e-12
4.93039e-09
2.00565e-11
4.13584e-09
9.35857e-10
1.50532e-09
1.35265e-09
1.89969e-09
2.48521e-09
1.73619e-09
2.31706e-09
4.56402e-10
2.5813e-09
1.94292e-09
4.22338e-09
6.43778e-09
5.78082e-09
1.16318e-08
6.0423e-09
1.45771e-08
5.14052e-09
1.46739e-08
3.83569e-09
1.31236e-08
2.68949e-09
1.12977e-08
1.86632e-09
9.88971e-09
1.31497e-09
8.98546e-09
9.44321e-10
8.4406e-09
6.86593e-10
8.11073e-09
4.99888e-10
7.90347e-09
3.59921e-10
7.7674e-09
2.51725e-10
7.67402e-09
1.66416e-10
7.60776e-09
9.75927e-11
7.55911e-09
4.1522e-11
7.52274e-09
-5.08128e-12
7.49474e-09
-4.39271e-11
7.47304e-09
-7.69537e-11
7.45572e-09
-1.04932e-10
7.44193e-09
-1.29104e-10
7.43057e-09
-1.49798e-10
7.42132e-09
-1.67868e-10
7.41347e-09
-1.83443e-10
7.40693e-09
-1.97112e-10
7.40123e-09
-2.08935e-10
7.39635e-09
-2.19274e-10
7.39195e-09
-2.28172e-10
7.38811e-09
-2.3585e-10
7.38459e-09
-2.42338e-10
7.38152e-09
-2.47843e-10
7.37861e-09
-2.52326e-10
7.3761e-09
-2.56037e-10
7.3736e-09
-2.58896e-10
7.37142e-09
-2.61041e-10
7.36925e-09
-2.62427e-10
7.36733e-09
-2.63173e-10
7.36541e-09
-2.63188e-10
7.36373e-09
-2.62659e-10
7.362e-09
-2.61469e-10
7.36048e-09
-2.59841e-10
7.35891e-09
-2.57597e-10
7.35757e-09
-2.54999e-10
7.35616e-09
-2.51826e-10
7.355e-09
-2.48383e-10
7.35375e-09
-2.44408e-10
7.35275e-09
-2.40239e-10
7.35168e-09
-2.35589e-10
7.35085e-09
-2.30821e-10
7.34996e-09
-2.25631e-10
7.34931e-09
-2.20383e-10
7.34859e-09
-2.14777e-10
7.34813e-09
-2.09166e-10
7.3476e-09
-2.03266e-10
7.34732e-09
-1.97394e-10
7.34699e-09
-1.91327e-10
7.34688e-09
-1.8532e-10
7.34674e-09
-1.79275e-10
7.34682e-09
-1.73305e-10
7.3469e-09
-1.67461e-10
7.3472e-09
-1.61686e-10
7.34745e-09
-1.56087e-10
7.34802e-09
7.3486e-09
-1.50771e-10
-1.47801e-09
1.3592e-10
6.93101e-10
-9.87448e-10
1.84e-09
9.97202e-10
4.3121e-09
8.60687e-10
3.73601e-09
1.1718e-09
5.83616e-09
1.34063e-09
6.59218e-09
8.66946e-10
5.49597e-09
7.28694e-10
7.71409e-09
1.34166e-09
1.0857e-08
-1.18154e-10
3.53658e-09
-5.4451e-10
5.3566e-09
-8.34838e-10
4.42615e-09
-9.21704e-10
1.59204e-09
1.64098e-10
8.13873e-10
1.38258e-09
5.17545e-10
1.55114e-09
2.87769e-10
1.79295e-09
1.70092e-09
2.91341e-09
5.31721e-09
4.43724e-09
1.01078e-08
5.25505e-09
1.37592e-08
4.99441e-09
1.49344e-08
4.05747e-09
1.40605e-08
3.00128e-09
1.23538e-08
2.13628e-09
1.07548e-08
1.51766e-09
9.60409e-09
1.09166e-09
8.86676e-09
7.93843e-10
8.40853e-09
5.78483e-10
8.11893e-09
4.16852e-10
7.92888e-09
2.91983e-10
7.79899e-09
1.92872e-10
7.70675e-09
1.12927e-10
7.63923e-09
4.71543e-11
7.58843e-09
-7.3691e-12
7.54945e-09
-5.33345e-11
7.51892e-09
-9.2159e-11
7.4947e-09
-1.25464e-10
7.47513e-09
-1.5396e-10
7.45918e-09
-1.7869e-10
7.44594e-09
-2.00008e-10
7.43488e-09
-2.18655e-10
7.42546e-09
-2.34786e-10
7.4174e-09
-2.48925e-10
7.41028e-09
-2.61083e-10
7.4041e-09
-2.71604e-10
7.39853e-09
-2.80551e-10
7.39364e-09
-2.88174e-10
7.38907e-09
-2.94457e-10
7.38507e-09
-2.99669e-10
7.38128e-09
-3.03807e-10
7.37781e-09
-3.06988e-10
7.37454e-09
-3.09221e-10
7.37151e-09
-3.10611e-10
7.36862e-09
-3.11124e-10
7.36595e-09
-3.10869e-10
7.36338e-09
-3.0983e-10
7.36098e-09
-3.08112e-10
7.35869e-09
-3.05719e-10
7.35654e-09
-3.02715e-10
7.35451e-09
-2.99136e-10
7.3526e-09
-2.95003e-10
7.35083e-09
-2.90397e-10
7.34914e-09
-2.85288e-10
7.34763e-09
-2.79809e-10
7.34617e-09
-2.73881e-10
7.34493e-09
-2.67683e-10
7.34371e-09
-2.61094e-10
7.34274e-09
-2.54325e-10
7.34176e-09
-2.47222e-10
7.34106e-09
-2.40026e-10
7.34033e-09
-2.32548e-10
7.3399e-09
-2.25063e-10
7.33941e-09
-2.17361e-10
7.33924e-09
-2.09771e-10
7.339e-09
-2.02061e-10
7.33911e-09
-1.94542e-10
7.33924e-09
-1.87144e-10
7.33957e-09
-1.79734e-10
7.34014e-09
-1.72713e-10
7.34083e-09
7.34185e-09
-1.65869e-10
-1.42021e-09
7.60459e-10
7.95642e-10
-1.24728e-09
1.667e-09
-1.31925e-10
3.19667e-09
3.79801e-11
3.56603e-09
6.16271e-10
5.25781e-09
1.13922e-09
6.06916e-09
7.05355e-10
5.92978e-09
8.69971e-10
7.54941e-09
2.31091e-09
9.41603e-09
5.6106e-10
5.28635e-09
3.01542e-10
5.61607e-09
4.00608e-10
4.327e-09
2.26618e-10
1.76598e-09
5.2528e-10
5.15141e-10
9.8894e-10
5.38428e-11
1.11941e-09
1.57213e-10
1.30872e-09
1.51153e-09
2.07718e-09
4.54865e-09
3.35543e-09
8.82945e-09
4.37906e-09
1.27355e-08
4.58417e-09
1.47292e-08
4.04013e-09
1.46045e-08
3.16756e-09
1.32264e-08
2.32975e-09
1.15926e-08
1.67647e-09
1.02574e-08
1.20803e-09
9.33526e-09
8.76518e-10
8.74014e-09
6.36589e-10
8.35886e-09
4.5705e-10
8.10845e-09
3.18256e-10
7.93778e-09
2.08072e-10
7.817e-09
1.18695e-10
7.72862e-09
4.50382e-11
7.66215e-09
-1.64877e-11
7.61099e-09
-6.83814e-11
7.57088e-09
-1.12567e-10
7.53889e-09
-1.50421e-10
7.51302e-09
-1.83064e-10
7.49179e-09
-2.11288e-10
7.47417e-09
-2.35836e-10
7.45934e-09
-2.57163e-10
7.44675e-09
-2.75825e-10
7.43579e-09
-2.91956e-10
7.42633e-09
-3.05971e-10
7.4179e-09
-3.17925e-10
7.41055e-09
-3.28219e-10
7.40381e-09
-3.36758e-10
7.39779e-09
-3.43922e-10
7.39225e-09
-3.49717e-10
7.38713e-09
-3.54302e-10
7.38238e-09
-3.57698e-10
7.37793e-09
-3.60024e-10
7.37377e-09
-3.61281e-10
7.36985e-09
-3.61566e-10
7.36616e-09
-3.60893e-10
7.36266e-09
-3.59333e-10
7.35938e-09
-3.56946e-10
7.35625e-09
-3.53748e-10
7.35335e-09
-3.4986e-10
7.35054e-09
-3.45213e-10
7.348e-09
-3.40017e-10
7.34551e-09
-3.3411e-10
7.34333e-09
-3.27797e-10
7.34116e-09
-3.20815e-10
7.33934e-09
-3.13566e-10
7.33749e-09
-3.05701e-10
7.33604e-09
-2.977e-10
7.33451e-09
-2.89133e-10
7.33343e-09
-2.80549e-10
7.33223e-09
-2.71451e-10
7.33151e-09
-2.62453e-10
7.33062e-09
-2.52994e-10
7.33027e-09
-2.43766e-10
7.32969e-09
-2.34173e-10
7.32972e-09
-2.24885e-10
7.32955e-09
-2.15569e-10
7.32991e-09
-2.06306e-10
7.33035e-09
-1.97357e-10
7.33105e-09
-1.88493e-10
7.33219e-09
7.33348e-09
-1.80263e-10
-1.17057e-09
1.18947e-09
7.4153e-10
-1.10252e-09
1.59889e-09
-5.22279e-10
2.61637e-09
-3.56068e-10
3.39974e-09
1.8522e-10
4.71647e-09
6.44976e-10
5.60935e-09
5.03426e-10
6.07128e-09
7.90248e-10
7.26256e-09
1.94177e-09
8.26446e-09
1.06232e-09
6.16576e-09
1.21346e-09
5.46487e-09
1.45899e-09
4.08144e-09
1.15448e-09
2.07046e-09
9.70468e-10
6.99152e-10
9.52268e-10
7.20117e-11
9.23623e-10
1.8585e-10
1.02776e-09
1.40735e-09
1.55166e-09
4.02473e-09
2.55214e-09
7.82893e-09
3.57042e-09
1.17172e-08
4.05131e-09
1.42483e-08
3.84463e-09
1.48113e-08
3.19541e-09
1.38757e-08
2.44063e-09
1.23474e-08
1.78788e-09
1.09102e-08
1.29325e-09
9.82998e-09
9.34991e-10
9.09842e-09
6.74441e-10
8.61946e-09
4.79817e-10
8.30308e-09
3.29705e-10
8.08794e-09
2.10515e-10
7.9362e-09
1.13655e-10
7.82553e-09
3.35151e-11
7.7423e-09
-3.36956e-11
7.67826e-09
-9.06726e-11
7.62785e-09
-1.39369e-10
7.58761e-09
-1.81282e-10
7.55489e-09
-2.17529e-10
7.528e-09
-2.48998e-10
7.50557e-09
-2.76387e-10
7.48665e-09
-3.00346e-10
7.47042e-09
-3.21155e-10
7.45646e-09
-3.39306e-10
7.44419e-09
-3.54891e-10
7.4335e-09
-3.68386e-10
7.42387e-09
-3.79739e-10
7.41523e-09
-3.89324e-10
7.40741e-09
-3.97221e-10
7.40017e-09
-4.03597e-10
7.39351e-09
-4.08535e-10
7.38728e-09
-4.12125e-10
7.38148e-09
-4.14437e-10
7.37601e-09
-4.1554e-10
7.37089e-09
-4.15495e-10
7.36603e-09
-4.14346e-10
7.36148e-09
-4.12184e-10
7.35713e-09
-4.09014e-10
7.35309e-09
-4.04978e-10
7.3492e-09
-4.00008e-10
7.34564e-09
-3.94328e-10
7.34218e-09
-3.87777e-10
7.33908e-09
-3.80681e-10
7.33604e-09
-3.72765e-10
7.33342e-09
-3.6447e-10
7.33081e-09
-3.55411e-10
7.32867e-09
-3.4614e-10
7.32648e-09
-3.36156e-10
7.32483e-09
-3.26118e-10
7.32308e-09
-3.15413e-10
7.3219e-09
-3.04816e-10
7.32056e-09
-2.9358e-10
7.31987e-09
-2.82627e-10
7.31892e-09
-2.71081e-10
7.31871e-09
-2.5997e-10
7.31823e-09
-2.48526e-10
7.31847e-09
-2.37378e-10
7.31865e-09
-2.26334e-10
7.31928e-09
-2.15309e-10
7.32037e-09
-2.04869e-10
7.32172e-09
7.32352e-09
-1.94827e-10
-9.5302e-10
1.50461e-09
6.37765e-10
-9.50838e-10
1.59665e-09
-6.50923e-10
2.31641e-09
-4.22991e-10
3.17177e-09
-1.41248e-11
4.30757e-09
3.47103e-10
5.24808e-09
4.49702e-10
5.96866e-09
8.00847e-10
6.91136e-09
1.56823e-09
7.49707e-09
1.40539e-09
6.32853e-09
1.55089e-09
5.3194e-09
1.6861e-09
3.94616e-09
1.47195e-09
2.28466e-09
1.20042e-09
9.70626e-10
1.00116e-09
2.71341e-10
8.59115e-10
3.27828e-10
8.7199e-10
1.39454e-09
1.21728e-09
3.67937e-09
1.9756e-09
7.07069e-09
2.88921e-09
1.08035e-08
3.49664e-09
1.3641e-08
3.54006e-09
1.47678e-08
3.10951e-09
1.43064e-08
2.47118e-09
1.29857e-08
1.85031e-09
1.15312e-08
1.34713e-09
1.03331e-08
9.70345e-10
9.47533e-09
6.9303e-10
8.89669e-09
4.85845e-10
8.51037e-09
3.2639e-10
8.2473e-09
2.00079e-10
8.06262e-09
9.7282e-11
7.92822e-09
1.21002e-11
7.82758e-09
-5.97082e-11
7.74994e-09
-1.20761e-10
7.68898e-09
-1.73264e-10
7.63999e-09
-2.1859e-10
7.60022e-09
-2.57989e-10
7.56729e-09
-2.92295e-10
7.53975e-09
-3.2229e-10
7.51643e-09
-3.48476e-10
7.49642e-09
-3.71374e-10
7.47909e-09
-3.91193e-10
7.46396e-09
-4.08432e-10
7.45057e-09
-4.23133e-10
7.43854e-09
-4.35628e-10
7.42777e-09
-4.46102e-10
7.41785e-09
-4.54687e-10
7.40879e-09
-4.61562e-10
7.40031e-09
-4.66778e-10
7.3925e-09
-4.70488e-10
7.38509e-09
-4.72708e-10
7.37821e-09
-4.73584e-10
7.37164e-09
-4.73103e-10
7.36554e-09
-4.71426e-10
7.35967e-09
-4.68503e-10
7.35423e-09
-4.64538e-10
7.34898e-09
-4.59428e-10
7.34416e-09
-4.53438e-10
7.33947e-09
-4.46385e-10
7.33525e-09
-4.38628e-10
7.33111e-09
-4.29884e-10
7.32748e-09
-4.20619e-10
7.3239e-09
-4.10435e-10
7.32087e-09
-3.99917e-10
7.31784e-09
-3.88553e-10
7.31542e-09
-3.77042e-10
7.31297e-09
-3.6474e-10
7.31116e-09
-3.5248e-10
7.30926e-09
-3.39469e-10
7.30805e-09
-3.26694e-10
7.3067e-09
-3.13201e-10
7.30608e-09
-3.00132e-10
7.30528e-09
-2.86536e-10
7.30523e-09
-2.73356e-10
7.30511e-09
-2.60126e-10
7.30555e-09
-2.46923e-10
7.30642e-09
-2.34102e-10
7.30763e-09
-2.21622e-10
7.3095e-09
7.3116e-09
-2.09915e-10
-8.03173e-10
1.7713e-09
5.3647e-10
-8.61847e-10
1.65531e-09
-7.0742e-10
2.16197e-09
-4.95484e-10
2.95983e-09
-1.57394e-10
3.96948e-09
1.78494e-10
4.9122e-09
4.25573e-10
5.72155e-09
8.26918e-10
6.51003e-09
1.41991e-09
6.90402e-09
1.56298e-09
6.18557e-09
1.69098e-09
5.19129e-09
1.74768e-09
3.88957e-09
1.59437e-09
2.43787e-09
1.33488e-09
1.23025e-09
1.07297e-09
5.33135e-10
8.62924e-10
5.38024e-10
7.96962e-10
1.46037e-09
1.00567e-09
3.47082e-09
1.56666e-09
6.50956e-09
2.34086e-09
1.00295e-08
2.97525e-09
1.30065e-08
3.18276e-09
1.45604e-08
2.94021e-09
1.45488e-08
2.43042e-09
1.34957e-08
1.86444e-09
1.20971e-08
1.36994e-09
1.08278e-08
9.83393e-10
9.8617e-09
6.93737e-10
9.18652e-09
4.76076e-10
8.72783e-09
3.09133e-10
8.4144e-09
1.76931e-10
8.19459e-09
6.97377e-11
8.03557e-09
-1.95176e-11
7.91659e-09
-9.46753e-11
7.82523e-09
-1.59127e-10
7.7532e-09
-2.14547e-10
7.69547e-09
-2.62811e-10
7.64829e-09
-3.04857e-10
7.60915e-09
-3.41596e-10
7.57639e-09
-3.73823e-10
7.5484e-09
-4.02034e-10
7.5245e-09
-4.2667e-10
7.5036e-09
-4.4815e-10
7.48536e-09
-4.66719e-10
7.46901e-09
-4.8262e-10
7.45448e-09
-4.96125e-10
7.44121e-09
-5.07376e-10
7.42914e-09
-5.16589e-10
7.41791e-09
-5.23831e-10
7.40757e-09
-5.29288e-10
7.39782e-09
-5.32975e-10
7.38878e-09
-5.35072e-10
7.38016e-09
-5.3556e-10
7.37213e-09
-5.34625e-10
7.36444e-09
-5.32216e-10
7.35728e-09
-5.2854e-10
7.35039e-09
-5.23519e-10
7.344e-09
-5.17392e-10
7.33785e-09
-5.10037e-10
7.33219e-09
-5.01739e-10
7.32675e-09
-4.92335e-10
7.32182e-09
-4.82159e-10
7.31708e-09
-4.70992e-10
7.31287e-09
-4.59227e-10
7.30886e-09
-4.46594e-10
7.30539e-09
-4.33542e-10
7.30211e-09
-4.19737e-10
7.29938e-09
-4.05685e-10
7.29685e-09
-3.90985e-10
7.29486e-09
-3.76207e-10
7.29306e-09
-3.60874e-10
7.29179e-09
-3.45615e-10
7.2907e-09
-3.29983e-10
7.29011e-09
-3.14513e-10
7.28976e-09
-2.99058e-10
7.28982e-09
-2.8361e-10
7.29039e-09
-2.68428e-10
7.29133e-09
-2.53271e-10
7.29306e-09
-2.38927e-10
7.29511e-09
7.29781e-09
-2.25122e-10
-6.89297e-10
2.01519e-09
4.45319e-10
-7.89917e-10
1.75592e-09
-7.25445e-10
2.0975e-09
-5.56028e-10
2.79043e-09
-2.72096e-10
3.68557e-09
5.12762e-11
4.58884e-09
3.71926e-10
5.40094e-09
7.99876e-10
6.08204e-09
1.32723e-09
6.37682e-09
1.60534e-09
5.90736e-09
1.77145e-09
5.02532e-09
1.81267e-09
3.84824e-09
1.68112e-09
2.56947e-09
1.43256e-09
1.47875e-09
1.14803e-09
8.17745e-10
8.9848e-10
7.87557e-10
7.72321e-10
1.58661e-09
8.74886e-10
3.36822e-09
1.27775e-09
6.10674e-09
1.90891e-09
9.39829e-09
2.51128e-09
1.24041e-08
2.81128e-09
1.42604e-08
2.71621e-09
1.46439e-08
2.33047e-09
1.38814e-08
1.83344e-09
1.25941e-08
1.36183e-09
1.12993e-08
9.74989e-10
1.02486e-08
6.77336e-10
9.48409e-09
4.51852e-10
8.95331e-09
2.78514e-10
8.58764e-09
1.41902e-10
8.33119e-09
3.10121e-11
8.14634e-09
-6.10095e-11
8.00857e-09
-1.38969e-10
7.90305e-09
-2.05764e-10
7.81991e-09
-2.63675e-10
7.75325e-09
-3.1425e-10
7.69852e-09
-3.58412e-10
7.65328e-09
-3.97323e-10
7.61491e-09
-4.31318e-10
7.58253e-09
-4.61358e-10
7.55421e-09
-4.87531e-10
7.52979e-09
-5.10455e-10
7.50807e-09
-5.3022e-10
7.48881e-09
-5.47211e-10
7.4714e-09
-5.6157e-10
7.45559e-09
-5.73541e-10
7.44102e-09
-5.83218e-10
7.42759e-09
-5.90797e-10
7.41503e-09
-5.96322e-10
7.40333e-09
-5.99973e-10
7.39228e-09
-6.01755e-10
7.38191e-09
-6.0185e-10
7.37207e-09
-6.00239e-10
7.3628e-09
-5.97105e-10
7.35398e-09
-5.92419e-10
7.34569e-09
-5.86364e-10
7.33779e-09
-5.78916e-10
7.33039e-09
-5.70245e-10
7.32339e-09
-5.60352e-10
7.31685e-09
-5.49379e-10
7.31073e-09
-5.37366e-10
7.30505e-09
-5.24413e-10
7.29983e-09
-5.10613e-10
7.29503e-09
-4.96016e-10
7.29073e-09
-4.80769e-10
7.28683e-09
-4.64865e-10
7.28346e-09
-4.48503e-10
7.28046e-09
-4.31609e-10
7.27804e-09
-4.14449e-10
7.27592e-09
-3.96858e-10
7.27441e-09
-3.79221e-10
7.27313e-09
-3.61271e-10
7.27249e-09
-3.43545e-10
7.27204e-09
-3.25654e-10
7.27229e-09
-3.08099e-10
7.27286e-09
-2.90338e-10
7.27426e-09
-2.73131e-10
7.27607e-09
-2.56379e-10
7.27866e-09
7.28175e-09
-2.40573e-10
-5.9402e-10
2.24621e-09
3.63043e-10
-7.18903e-10
1.88083e-09
-7.08713e-10
2.08735e-09
-5.81791e-10
2.66355e-09
-3.45308e-10
3.44915e-09
-4.04154e-11
4.284e-09
3.09389e-10
5.05113e-09
7.4228e-10
5.64925e-09
1.22914e-09
5.88994e-09
1.57143e-09
5.56519e-09
1.77681e-09
4.81984e-09
1.8308e-09
3.79422e-09
1.72162e-09
2.6787e-09
1.49202e-09
1.70829e-09
1.2087e-09
1.10123e-09
9.42024e-10
1.05404e-09
7.74256e-10
1.75457e-09
7.95496e-10
3.3468e-09
1.07214e-09
5.83031e-09
1.57119e-09
8.89902e-09
2.1103e-09
1.18652e-08
2.44959e-09
1.39209e-08
2.4607e-09
1.4633e-08
2.18477e-09
1.41571e-08
1.76178e-09
1.30174e-08
1.32391e-09
1.17369e-08
9.45304e-10
1.06274e-08
6.44675e-10
9.7844e-09
4.13836e-10
9.1844e-09
2.35546e-10
8.76559e-09
9.54091e-11
8.47156e-09
-1.8308e-11
8.25967e-09
-1.12392e-10
8.10285e-09
-1.92412e-10
7.98265e-09
-2.60927e-10
7.88858e-09
-3.20864e-10
7.8126e-09
-3.73016e-10
7.75074e-09
-4.19209e-10
7.69889e-09
-4.59473e-10
7.65557e-09
-4.95467e-10
7.61789e-09
-5.26707e-10
7.58572e-09
-5.54412e-10
7.55729e-09
-5.78468e-10
7.5322e-09
-5.99391e-10
7.50967e-09
-6.17273e-10
7.48931e-09
-6.32428e-10
7.47067e-09
-6.4494e-10
7.45352e-09
-6.55043e-10
7.43759e-09
-6.62779e-10
7.42273e-09
-6.68353e-10
7.40877e-09
-6.71767e-10
7.39564e-09
-6.73226e-10
7.38322e-09
-6.72707e-10
7.37149e-09
-6.70412e-10
7.36035e-09
-6.66311e-10
7.34983e-09
-6.60596e-10
7.33983e-09
-6.53254e-10
7.3304e-09
-6.44449e-10
7.32148e-09
-6.34211e-10
7.31308e-09
-6.22652e-10
7.30522e-09
-6.09876e-10
7.29786e-09
-5.95914e-10
7.29108e-09
-5.8097e-10
7.28476e-09
-5.64974e-10
7.27909e-09
-5.48242e-10
7.27384e-09
-5.30593e-10
7.26929e-09
-5.12452e-10
7.26514e-09
-4.93521e-10
7.26174e-09
-4.74344e-10
7.25867e-09
-4.54482e-10
7.25639e-09
-4.34625e-10
7.25437e-09
-4.14205e-10
7.25317e-09
-3.94043e-10
7.25216e-09
-3.73552e-10
7.25198e-09
-3.53439e-10
7.25211e-09
-3.33152e-10
7.25307e-09
-3.13129e-10
7.25458e-09
-2.93241e-10
7.25686e-09
-2.74222e-10
7.25975e-09
7.26348e-09
-2.55912e-10
-5.11783e-10
2.46993e-09
2.88082e-10
-6.51356e-10
2.02045e-09
-6.75393e-10
2.11145e-09
-5.84151e-10
2.57238e-09
-3.8494e-10
3.25e-09
-1.00708e-10
3.99983e-09
2.52089e-10
4.69838e-09
6.74854e-10
5.22656e-09
1.12781e-09
5.437e-09
1.48885e-09
5.20423e-09
1.71785e-09
4.59075e-09
1.79345e-09
3.71861e-09
1.71403e-09
2.75799e-09
1.51368e-09
1.90879e-09
1.24708e-09
1.36758e-09
9.79883e-10
1.32165e-09
7.8609e-10
1.94813e-09
7.46577e-10
3.38667e-09
9.22522e-10
5.65406e-09
1.3058e-09
8.51606e-09
1.76798e-09
1.14027e-08
2.11026e-09
1.35789e-08
2.19073e-09
1.45522e-08
2.00596e-09
1.43422e-08
1.65495e-09
1.3368e-08
1.25805e-09
1.21342e-08
8.94492e-10
1.09906e-08
5.96347e-10
1.00829e-08
3.62396e-10
9.41795e-09
1.8112e-10
8.94723e-09
3.77946e-11
8.61443e-09
-7.75561e-11
8.37534e-09
-1.73657e-10
8.19844e-09
-2.54661e-10
8.06392e-09
-3.24997e-10
7.9582e-09
-3.85832e-10
7.8737e-09
-4.39789e-10
7.80405e-09
-4.86835e-10
7.7465e-09
-5.29187e-10
7.69703e-09
-5.65933e-10
7.65517e-09
-5.98787e-10
7.61842e-09
-6.27515e-10
7.58619e-09
-6.52763e-10
7.5574e-09
-6.74567e-10
7.53155e-09
-6.93309e-10
7.50801e-09
-7.09056e-10
7.48644e-09
-7.22076e-10
7.46647e-09
-7.32412e-10
7.4479e-09
-7.40282e-10
7.43049e-09
-7.45697e-10
7.41414e-09
-7.48867e-10
7.39868e-09
-7.49775e-10
7.38408e-09
-7.48633e-10
7.37021e-09
-7.45408e-10
7.35708e-09
-7.40314e-10
7.34459e-09
-7.33322e-10
7.33279e-09
-7.2463e-10
7.32159e-09
-7.1424e-10
7.31103e-09
-7.02311e-10
7.30108e-09
-6.88907e-10
7.29175e-09
-6.74122e-10
7.28306e-09
-6.58105e-10
7.27496e-09
-6.40864e-10
7.26757e-09
-6.22653e-10
7.26074e-09
-6.03374e-10
7.25467e-09
-5.83391e-10
7.24914e-09
-5.62499e-10
7.24443e-09
-5.41165e-10
7.24021e-09
-5.19074e-10
7.23685e-09
-4.96796e-10
7.23391e-09
-4.73913e-10
7.23184e-09
-4.51112e-10
7.23014e-09
-4.2792e-10
7.22931e-09
-4.05017e-10
7.22888e-09
-3.82011e-10
7.22934e-09
-3.59198e-10
7.23043e-09
-3.36382e-10
7.2323e-09
-3.1395e-10
7.23493e-09
-2.92198e-10
7.2383e-09
7.24259e-09
-2.7141e-10
-4.38474e-10
2.69008e-09
2.1836e-10
-5.88148e-10
2.17019e-09
-6.3602e-10
2.1594e-09
-5.73855e-10
2.51029e-09
-4.04722e-10
3.08094e-09
-1.4229e-10
3.73746e-09
1.98517e-10
4.35762e-09
6.02009e-10
4.82313e-09
1.0248e-09
5.01426e-09
1.38212e-09
4.84689e-09
1.62278e-09
4.35011e-09
1.72001e-09
3.62136e-09
1.67193e-09
2.80612e-09
1.50428e-09
2.07643e-09
1.26276e-09
1.60932e-09
1.00462e-09
1.57957e-09
7.97658e-10
2.15544e-09
7.12961e-10
3.47111e-09
8.09686e-10
5.55784e-09
1.09304e-09
8.23249e-09
1.47617e-09
1.10198e-08
1.79726e-09
1.32576e-08
1.91821e-09
1.44313e-08
1.80393e-09
1.44564e-08
1.51946e-09
1.36526e-08
1.16588e-09
1.24877e-08
8.23708e-10
1.13329e-08
5.31973e-10
1.03746e-08
2.98509e-10
9.65154e-09
1.15082e-10
9.13055e-09
-2.98051e-11
8.75942e-09
-1.46964e-10
8.49233e-09
-2.43866e-10
8.29534e-09
-3.26316e-10
8.14583e-09
-3.97092e-10
8.02924e-09
-4.5943e-10
7.93547e-09
-5.13759e-10
7.8591e-09
-5.62801e-10
7.79454e-09
-6.05448e-10
7.74043e-09
-6.43819e-10
7.69339e-09
-6.77568e-10
7.65244e-09
-7.07483e-10
7.61609e-09
-7.33574e-10
7.58365e-09
-7.56273e-10
7.55426e-09
-7.75647e-10
7.52745e-09
-7.91961e-10
7.50274e-09
-8.05295e-10
7.47981e-09
-8.15832e-10
7.45839e-09
-8.23639e-10
7.43827e-09
-8.28873e-10
7.41929e-09
-8.31578e-10
7.40134e-09
-8.31914e-10
7.38431e-09
-8.29905e-10
7.36815e-09
-8.2572e-10
7.35279e-09
-8.19379e-10
7.33821e-09
-8.11046e-10
7.32437e-09
-8.00761e-10
7.31126e-09
-7.88665e-10
7.29889e-09
-7.74844e-10
7.28721e-09
-7.5939e-10
7.2763e-09
-7.42466e-10
7.26606e-09
-7.24086e-10
7.25664e-09
-7.0451e-10
7.24788e-09
-6.83658e-10
7.24001e-09
-6.61895e-10
7.23276e-09
-6.39042e-10
7.22646e-09
-6.1556e-10
7.22077e-09
-5.91175e-10
7.21606e-09
-5.66436e-10
7.2119e-09
-5.40981e-10
7.20874e-09
-5.15446e-10
7.20605e-09
-4.89412e-10
7.20437e-09
-4.63559e-10
7.20315e-09
-4.37506e-10
7.20296e-09
-4.11721e-10
7.20338e-09
-3.85984e-10
7.2048e-09
-3.60306e-10
7.20705e-09
-3.35097e-10
7.21004e-09
-3.10463e-10
7.21405e-09
7.21897e-09
-2.86864e-10
-3.70189e-10
2.90881e-09
1.51588e-10
-5.27321e-10
2.3274e-09
-5.92765e-10
2.22493e-09
-5.54292e-10
2.4719e-09
-4.11201e-10
2.93792e-09
-1.72252e-10
3.49858e-09
1.47861e-10
4.03757e-09
5.26341e-10
4.44469e-09
9.20325e-10
4.62032e-09
1.26467e-09
4.50256e-09
1.50901e-09
4.1058e-09
1.62413e-09
3.50626e-09
1.60479e-09
2.8255e-09
1.4697e-09
2.21157e-09
1.25599e-09
1.82312e-09
1.01343e-09
1.82221e-09
8.01708e-10
2.36725e-09
6.85241e-10
3.58783e-09
7.18647e-10
5.52433e-09
9.17922e-10
8.03341e-09
1.22436e-09
1.07132e-08
1.51072e-09
1.29711e-08
1.64941e-09
1.42928e-08
1.58712e-09
1.45183e-08
1.36043e-09
1.38795e-08
1.05045e-09
1.27975e-08
7.33293e-10
1.16504e-08
4.52247e-10
1.06554e-08
2.21879e-10
9.88225e-09
3.82515e-11
9.31398e-09
-1.07526e-10
8.90549e-09
-2.25678e-10
8.61016e-09
-3.23393e-10
8.39298e-09
-4.06254e-10
8.22866e-09
-4.78098e-10
8.10068e-09
-5.40529e-10
7.99854e-09
-5.96602e-10
7.91431e-09
-6.45559e-10
7.84439e-09
-6.89731e-10
7.78452e-09
-7.28841e-10
7.7328e-09
-7.63727e-10
7.68737e-09
-7.9444e-10
7.647e-09
-8.21433e-10
7.61072e-09
-8.44798e-10
7.57772e-09
-8.64778e-10
7.54749e-09
-8.81494e-10
7.51948e-09
-8.95081e-10
7.49343e-09
-9.05667e-10
7.46895e-09
-9.13343e-10
7.44595e-09
-9.18225e-10
7.42413e-09
-9.20397e-10
7.4035e-09
-9.19962e-10
7.38383e-09
-9.17011e-10
7.36518e-09
-9.11645e-10
7.34737e-09
-9.03955e-10
7.33051e-09
-8.94057e-10
7.31442e-09
-8.8203e-10
7.29925e-09
-8.6803e-10
7.28482e-09
-8.52095e-10
7.27133e-09
-8.3445e-10
7.25857e-09
-8.15068e-10
7.24678e-09
-7.94262e-10
7.23572e-09
-7.71924e-10
7.2257e-09
-7.48464e-10
7.21639e-09
-7.23681e-10
7.20818e-09
-6.98082e-10
7.20066e-09
-6.71374e-10
7.1943e-09
-6.44151e-10
7.18859e-09
-6.16036e-10
7.18405e-09
-5.87703e-10
7.18011e-09
-5.58707e-10