/*--------------------------------*- C++ -*----------------------------------*\
  =========                 |
  \\      /  F ield         | OpenFOAM: The Open Source CFD Toolbox
   \\    /   O peration     | Website:  https://openfoam.org
    \\  /    A nd           | Version:  7
     \\/     M anipulation  |
\*---------------------------------------------------------------------------*/
FoamFile
{
    version     2.0;
    format      ascii;
    class       volVectorField;
    location    "30";
    object      U;
}
// * * * * * * * * * * * * * * * * * * * * * * * * * * * * * * * * * * * * * //

dimensions      [0 1 -1 0 0 0 0];

internalField   nonuniform List<vector> 
49920
(
(-0.00643677 0.000391607 -1.03e-29)
(-0.0133597 0.00491905 7.58688e-30)
(-0.00522504 0.00461889 4.4011e-29)
(-0.00347468 0.00613954 -6.18266e-29)
(-0.000748001 0.00599027 -4.43077e-29)
(-0.0019012 0.00881697 -6.8314e-29)
(-0.00166319 0.00615246 -4.28286e-29)
(-0.000108947 0.0039017 0)
(0.000926726 0.00480289 -6.15742e-29)
(0.002727 0.00737032 -1.76397e-29)
(0.00218949 0.00653424 1.69115e-28)
(0.00284785 0.00480942 0)
(0.0058758 0.00434763 2.80655e-28)
(0.0067251 0.00217332 9.12101e-36)
(0.0142853 0.00019535 0)
(0.00782679 -0.00199974 -2.05391e-28)
(0.0438583 0.002106 -3.57526e-28)
(0.0258532 0.00947896 2.19692e-29)
(0.0135862 0.0125679 0)
(0.0101966 0.012854 2.46375e-29)
(0.00827175 0.0129715 2.46449e-29)
(0.00733631 0.0131202 5.98391e-30)
(0.00710401 0.013155 0)
(0.007116 0.013116 -5.42368e-30)
(0.00722394 0.0130394 9.15013e-31)
(0.00738359 0.0129402 -9.98745e-33)
(0.00757241 0.012825 -2.06384e-30)
(0.00777781 0.0126979 0)
(0.00799287 0.0125612 0)
(0.00821346 0.0124164 0)
(0.00843694 0.0122645 0)
(0.00866153 0.012106 0)
(0.008886 0.0119415 0)
(0.00910952 0.0117714 -8.08126e-31)
(0.0093314 0.0115959 5.59137e-31)
(0.00955113 0.0114153 -6.31953e-31)
(0.0097683 0.0112298 -7.31093e-32)
(0.00998262 0.0110395 4.88564e-31)
(0.0101939 0.0108445 -6.37677e-31)
(0.0104018 0.0106451 -7.81271e-40)
(0.0106063 0.0104412 -9.07532e-40)
(0.0108072 0.0102331 6.40612e-31)
(0.0110042 0.0100208 -3.07797e-31)
(0.0111974 0.00980447 3.70377e-31)
(0.0113865 0.00958414 6.42397e-31)
(0.0115714 0.00935995 -1.03974e-30)
(0.0117521 0.00913199 2.17007e-31)
(0.0119284 0.00890041 0)
(0.0121002 0.00866526 0)
(0.0122676 0.0084267 0)
(0.0124303 0.00818469 0)
(0.0125885 0.00793948 0)
(0.0127417 0.00769096 0)
(0.0128902 0.00743947 -4.97274e-31)
(0.0130337 0.00718487 -1.26132e-32)
(0.0131724 0.00692747 -1.27211e-30)
(0.0133059 0.0066672 5.24665e-31)
(0.0134345 0.00640433 0)
(0.0135577 0.00613884 2.57167e-31)
(0.013676 0.005871 5.21543e-31)
(0.0137887 0.00560069 2.64335e-31)
(0.0138964 0.00532826 0)
(0.0139984 0.00505359 0)
(0.0140954 0.00477702 -2.5842e-31)
(0.0141865 0.00449842 -2.64545e-31)
(0.0142726 0.00421814 0)
(0.0143527 0.00393607 -1.57956e-38)
(0.0144277 0.00365256 6.41216e-31)
(0.0144967 0.00336748 0)
(0.0145604 0.00308118 3.20576e-31)
(0.0146181 0.00279358 -2.91177e-31)
(0.0146705 0.00250499 -2.93821e-31)
(0.0147169 0.00221534 0)
(0.0147579 0.00192491 -2.93231e-31)
(0.0147928 0.00163366 -2.98378e-31)
(0.0148223 0.00134185 6.90057e-32)
(0.0148458 0.00104948 -7.71844e-33)
(0.0148637 0.000756884 4.37238e-32)
(0.0148757 0.000464028 -5.90153e-32)
(0.0148819 0.000171299 2.02783e-32)
(-0.00339493 0.000340107 0)
(-0.00762971 0.0102768 0)
(-0.00420716 0.0114292 7.17176e-29)
(-0.00380117 0.0115659 -2.96863e-29)
(-0.00247594 0.0118314 -1.6785e-28)
(-0.00227248 0.0229872 -3.45009e-28)
(0.000654416 0.0104495 -1.49158e-28)
(0.00301124 0.0185705 5.6571e-30)
(0.00196864 0.0139553 0)
(0.00226997 0.0134704 -1.62003e-28)
(0.00504442 0.014297 3.25008e-28)
(0.00585885 0.0109073 -3.02378e-28)
(0.00715912 0.00906381 5.32069e-28)
(0.00927072 0.00811145 3.51373e-28)
(0.0126627 0.00727541 -2.5873e-28)
(0.00430154 -0.000926849 0)
(0.028519 0.0100248 0)
(0.0309267 0.0152391 3.95803e-29)
(0.0246717 0.0166882 3.84329e-30)
(0.0184486 0.0151103 -1.16655e-29)
(0.0133039 0.0136403 -4.05894e-30)
(0.0101872 0.0130334 0)
(0.00875989 0.0128157 0)
(0.00812339 0.0127185 0)
(0.00784914 0.0126444 2.73962e-31)
(0.0077694 0.0125641 -2.82135e-30)
(0.00779894 0.0124716 -2.08802e-30)
(0.00789246 0.0123668 9.25801e-31)
(0.00802555 0.012251 -1.01815e-30)
(0.00818404 0.0121252 -1.08419e-30)
(0.00835916 0.0119907 0)
(0.00854525 0.0118483 -4.62514e-31)
(0.00873847 0.0116987 -2.88226e-31)
(0.0089362 0.0115424 0)
(0.00913649 0.0113799 2.38222e-30)
(0.00933789 0.0112116 1.27212e-30)
(0.00953935 0.0110378 7.48421e-32)
(0.00974009 0.0108587 -1.10277e-30)
(0.00993951 0.0106745 1.07649e-39)
(0.0101371 0.0104854 -4.31536e-40)
(0.0103325 0.0102916 -4.99961e-40)
(0.0105253 0.0100931 1.71012e-39)
(0.0107152 0.00989023 9.47209e-31)
(0.010902 0.00968301 -3.94061e-31)
(0.0110855 0.00947156 -1.68588e-30)
(0.0112654 0.00925601 -3.03163e-30)
(0.0114417 0.00903649 0)
(0.0116141 0.00881314 -4.42728e-31)
(0.0117826 0.00858601 -4.78014e-31)
(0.0119469 0.00835515 0)
(0.0121072 0.00812079 1.30017e-30)
(0.012263 0.00788279 1.30142e-30)
(0.0124147 0.00764155 -1.29854e-30)
(0.0125615 0.00739679 -5.12397e-31)
(0.0127041 0.00714902 5.46272e-31)
(0.0128417 0.00689798 1.30451e-30)
(0.0129748 0.00664408 0)
(0.0131027 0.00638719 0)
(0.013226 0.00612769 0)
(0.013344 0.00586541 -6.53854e-31)
(0.0134572 0.00560072 -6.54125e-31)
(0.0135649 0.00533347 2.66623e-31)
(0.0136678 0.00506403 9.34627e-31)
(0.0137651 0.00479229 0)
(0.0138573 0.00451857 0)
(0.0139439 0.00424278 -2.6638e-31)
(0.0140254 0.00396527 1.03365e-30)
(0.0141011 0.00368596 1.31316e-30)
(0.0141716 0.00340517 -6.56623e-31)
(0.0142362 0.00312283 3.90387e-31)
(0.0142956 0.00283927 -9.35942e-31)
(0.014349 0.00255445 0)
(0.0143972 0.00226865 1.35543e-31)
(0.0144392 0.00198182 -4.5736e-32)
(0.0144761 0.00169426 -1.78818e-31)
(0.0145068 0.00140591 7.05692e-32)
(0.0145321 0.00111716 7.59413e-32)
(0.0145512 0.000827939 1.61836e-31)
(0.0145651 0.00053857 0)
(0.0145728 0.000249305 0)
(-0.00456925 -0.00440814 2.47811e-31)
(1.5926e-05 0.00359243 -6.73474e-32)
(-0.00229367 0.00469464 5.84278e-29)
(-0.00561261 0.0116722 0)
(-0.00292659 0.0115366 -7.16486e-29)
(-0.00099519 0.0131019 1.64613e-28)
(0.000739174 0.00786854 4.43021e-30)
(0.00167676 0.0113184 -1.40534e-30)
(0.00228519 0.018077 -1.18055e-29)
(0.00137627 0.0123354 -6.3635e-28)
(0.00330311 0.0107442 -2.33122e-29)
(0.00550465 0.0103011 -7.24109e-28)
(0.00776789 0.00873988 2.50609e-28)
(0.00759285 0.00534839 2.92825e-29)
(0.00547291 0.00312136 -1.15035e-28)
(0.013568 -0.00659734 0)
(0.0133095 0.00406636 0)
(0.0227141 0.0156206 1.33727e-36)
(0.0260302 0.020079 5.43101e-30)
(0.0228103 0.0188508 -1.1652e-29)
(0.0174077 0.0161791 -2.97034e-30)
(0.0130972 0.0142678 -6.85716e-30)
(0.0105873 0.0132582 -3.83811e-30)
(0.00925276 0.0127779 -2.04876e-30)
(0.00855699 0.0125314 -1.00103e-30)
(0.00821384 0.0123738 0)
(0.00806929 0.0122476 0)
(0.00804162 0.0121302 3.24662e-31)
(0.00808659 0.0120123 -4.51936e-38)
(0.00817868 0.0118901 -1.4387e-30)
(0.00830236 0.011762 -1.31464e-30)
(0.00844759 0.0116276 8.28559e-31)
(0.00860778 0.0114869 0)
(0.00877826 0.01134 9.2961e-31)
(0.00895583 0.011187 9.63544e-31)
(0.00913796 0.0110282 -2.32369e-40)
(0.00932302 0.0108639 -9.15831e-32)
(0.00950955 0.0106941 -2.23468e-30)
(0.00969667 0.0105193 8.41072e-31)
(0.00988345 0.0103392 7.88018e-31)
(0.0100694 0.0101544 -7.79737e-31)
(0.0102537 0.0099647 -7.34279e-31)
(0.0104362 0.00977046 1.43005e-30)
(0.0106164 0.00957166 3.93616e-31)
(0.010794 0.00936851 -2.99165e-39)
(0.0109687 0.00916107 -1.10117e-30)
(0.0111403 0.00894957 -1.10421e-30)
(0.0113086 0.0087339 0)
(0.0114735 0.00851436 -1.1074e-30)
(0.0116347 0.00829087 6.48805e-31)
(0.0117922 0.00806369 6.08801e-31)
(0.0119459 0.00783287 2.169e-38)
(0.0120953 0.00759836 1.63014e-30)
(0.0122407 0.00736043 0)
(0.0123818 0.00711911 0)
(0.0125184 0.00687443 -1.11726e-30)
(0.0126506 0.0066266 -1.11524e-30)
(0.012778 0.00637567 -1.12264e-30)
(0.0129008 0.00612185 -1.11987e-30)
(0.0130188 0.00586515 -5.31974e-31)
(0.013132 0.00560579 -1.38277e-30)
(0.01324 0.00534375 -2.77438e-31)
(0.0133432 0.0050793 1.75877e-38)
(0.0134411 0.00481243 0)
(0.013534 0.00454339 0)
(0.0136214 0.00427218 -5.70326e-31)
(0.0137038 0.00399907 3.01042e-31)
(0.0137805 0.00372407 6.00813e-31)
(0.0138521 0.00344743 -1.67753e-30)
(0.013918 0.00316919 -2.76331e-31)
(0.0139786 0.00288959 -1.00245e-30)
(0.0140334 0.00260867 1.38728e-31)
(0.0140829 0.00232663 -1.33882e-31)
(0.0141266 0.00204357 -1.40894e-31)
(0.0141649 0.00175965 2.7938e-31)
(0.0141973 0.00147503 0)
(0.0142241 0.00118987 0)
(0.0142451 0.000904283 1.38599e-31)
(0.0142605 0.000618514 1.93054e-32)
(0.0142703 0.000332861 3.67315e-33)
(-0.000898193 -0.00311903 8.20703e-31)
(-0.00156549 0.00893732 -5.18416e-31)
(-0.00311218 0.0251583 3.8631e-29)
(0.000271036 0.0048542 -3.0721e-29)
(0.000562879 0.00689056 0)
(0.000627411 0.00566539 -1.6119e-38)
(0.000559698 0.00431492 0)
(0.000806092 0.00584698 0)
(-0.00162289 0.00713809 0)
(-0.00152672 0.00818662 -2.77631e-28)
(0.00155285 0.00779098 -4.05849e-28)
(0.00244804 0.00705852 -1.8962e-28)
(0.00451869 0.00482058 2.95033e-28)
(0.00240921 0.00183173 1.47239e-29)
(0.0123396 0.00835553 -6.00126e-29)
(0.00725928 -0.00123664 1.76753e-29)
(0.00644849 0.00276884 0)
(0.0148269 0.0132812 1.65997e-30)
(0.0221985 0.0201549 -7.75122e-30)
(0.0231402 0.0210944 -1.95431e-29)
(0.019732 0.0188182 -3.61958e-30)
(0.0155124 0.016168 -7.20187e-30)
(0.0123427 0.0143099 -6.7416e-30)
(0.010394 0.0132604 -5.20181e-30)
(0.0092883 0.0126985 -3.76779e-30)
(0.00868297 0.0123744 -2.40439e-30)
(0.00836511 0.0121594 -9.85697e-33)
(0.00821741 0.011994 1.0797e-30)
(0.00817538 0.0118504 2.89803e-38)
(0.00820204 0.011715 3.49718e-31)
(0.00827489 0.0115813 -8.3926e-31)
(0.00837983 0.011446 2.06549e-31)
(0.00850728 0.0113071 -5.9601e-31)
(0.00865087 0.0111639 6.56188e-31)
(0.00880586 0.0110159 1.80242e-32)
(0.00896903 0.0108629 -8.67676e-31)
(0.00913778 0.0107048 -1.33639e-31)
(0.00931037 0.0105417 -9.73239e-31)
(0.00948527 0.0103735 3.6236e-31)
(0.00966144 0.0102004 -2.79019e-31)
(0.00983791 0.0100224 2.98255e-31)
(0.010014 0.00983969 -1.87025e-31)
(0.0101891 0.00965228 3.73454e-31)
(0.0103627 0.00946031 3.80409e-31)
(0.0105344 0.00926387 8.20862e-31)
(0.0107039 0.00906308 4.3571e-31)
(0.0108708 0.00885797 -9.06573e-31)
(0.0110351 0.00864876 9.09383e-31)
(0.0111962 0.00843527 -1.36892e-30)
(0.0113543 0.00821803 1.81121e-30)
(0.0115088 0.00799673 1.41212e-30)
(0.0116599 0.00777175 1.83197e-30)
(0.0118071 0.00754294 5.03011e-31)
(0.0119506 0.00731062 1.80975e-32)
(0.0120899 0.00707462 -1.35641e-31)
(0.0122253 0.00683528 -1.46932e-30)
(0.0123561 0.00659246 -1.46073e-30)
(0.0124827 0.00634655 -1.48063e-30)
(0.0126046 0.00609743 -9.3929e-31)
(0.0127221 0.00584546 5.32915e-31)
(0.0128347 0.00559049 1.0859e-30)
(0.0129427 0.00533292 2.85277e-31)
(0.0130455 0.0050726 -7.52865e-31)
(0.0131437 0.00480994 0)
(0.0132365 0.0045448 2.66469e-31)
(0.0133244 0.00427758 -9.47542e-31)
(0.0134068 0.00400818 2.06881e-31)
(0.0134844 0.00373697 9.61494e-31)
(0.0135562 0.00346389 -4.83902e-31)
(0.013623 0.00318928 -6.99438e-31)
(0.013684 0.00291309 -2.10688e-31)
(0.0137399 0.00263566 0)
(0.0137899 0.00235694 0)
(0.0138348 0.00207728 0)
(0.0138737 0.00179665 2.36295e-31)
(0.0139075 0.00151544 0)
(0.0139351 0.0012336 -7.12921e-32)
(0.0139575 0.000951463 -3.93156e-32)
(0.013974 0.000669091 3.9526e-32)
(0.0139853 0.000386869 -1.44683e-32)
(-0.00151684 -0.00212494 4.72375e-32)
(-0.00158539 0.00495336 4.97181e-32)
(0.000834198 0.0166876 0)
(0.00410234 0.011484 -1.2132e-30)
(0.00357469 0.0198203 0)
(0.00401151 0.0210875 2.02961e-37)
(0.00324289 0.0149562 -1.0284e-29)
(0.00314869 0.0213354 0)
(0.00311812 0.0335517 -1.97592e-28)
(0.000400657 0.00226763 -5.98138e-29)
(0.00125579 0.00626758 2.4851e-31)
(0.00107296 0.00453692 -1.18473e-28)
(0.000521871 0.00200326 5.28119e-29)
(0.00430187 0.00668956 3.89617e-29)
(0.00534917 0.00317763 0)
(0.00429371 -0.00095571 1.33087e-29)
(0.00473723 0.00226464 -3.32744e-30)
(0.00993116 0.0106088 1.30926e-29)
(0.0173255 0.0183053 3.38282e-29)
(0.0211072 0.0214793 1.04613e-29)
(0.0202815 0.0205873 -7.45468e-30)
(0.0170955 0.018024 -5.71289e-30)
(0.0138329 0.0156276 3.98348e-30)
(0.0114654 0.0140163 0)
(0.00999523 0.0130705 0)
(0.00913853 0.0125196 1.15462e-30)
(0.00865344 0.0121747 -6.82589e-31)
(0.00839126 0.0119338 3.34593e-31)
(0.00826709 0.0117453 7.43898e-31)
(0.00823213 0.0115833 3.2979e-31)
(0.00825711 0.0114339 6.03262e-32)
(0.0083238 0.0112899 -3.8777e-31)
(0.00842006 0.0111469 -9.28784e-31)
(0.00853778 0.0110028 -5.10723e-31)
(0.00867101 0.0108558 -5.9624e-31)
(0.0088157 0.0107053 6.41944e-31)
(0.00896857 0.0105507 0)
(0.00912743 0.0103919 -9.07933e-31)
(0.0092903 0.0102284 7.19412e-31)
(0.00945597 0.0100604 1.04772e-30)
(0.00962308 0.00988773 -1.08302e-30)
(0.00979092 0.0097105 -8.01515e-31)
(0.00995856 0.00952861 1.182e-30)
(0.0101256 0.00934225 0)
(0.0102913 0.00915132 -1.64647e-30)
(0.0104554 0.00895604 8.31047e-31)
(0.0106176 0.00875638 1.27476e-30)
(0.0107775 0.00855244 1.70335e-30)
(0.010935 0.00834444 8.31772e-31)
(0.0110894 0.0081322 -1.32817e-30)
(0.0112409 0.00791613 -3.7742e-31)
(0.011389 0.00769608 2.21954e-30)
(0.0115338 0.00747224 8.60654e-31)
(0.0116749 0.00724464 -8.61708e-31)
(0.0118123 0.00701338 8.65649e-31)
(0.0119457 0.00677852 0)
(0.0120751 0.00654021 0)
(0.0122002 0.00629856 8.75483e-31)
(0.0123211 0.00605369 -8.82515e-31)
(0.0124374 0.00580575 -8.84151e-31)
(0.0125493 0.00555482 -5.33952e-31)
(0.0126564 0.00530106 -1.93443e-31)
(0.0127588 0.00504459 -5.5148e-31)
(0.0128564 0.00478556 4.50099e-31)
(0.012949 0.00452409 0)
(0.0130366 0.00426035 -4.5377e-31)
(0.013119 0.00399447 7.23546e-31)
(0.0131963 0.00372661 7.30534e-31)
(0.0132683 0.00345691 -4.60525e-31)
(0.0133351 0.00318555 2.62325e-31)
(0.0133965 0.00291264 2.70075e-31)
(0.0134526 0.00263836 0)
(0.0135031 0.00236286 0)
(0.0135482 0.00208631 -2.25614e-31)
(0.0135878 0.00180892 0)
(0.0136219 0.00153083 0)
(0.0136504 0.00125231 0)
(0.0136733 0.000973432 0)
(0.0136909 0.000694382 -3.80849e-32)
(0.0137029 0.000415452 -4.09821e-32)
(-0.00225557 -0.000490783 -5.37472e-31)
(-0.00271283 0.00327415 8.30035e-31)
(0.000555514 0.00828718 -6.12749e-32)
(0.00263593 0.00600848 -1.20011e-30)
(0.00262076 0.0110278 1.84052e-30)
(0.00370409 0.0125641 -3.09207e-29)
(0.00335772 0.00929691 -1.06397e-30)
(0.00362026 0.0147051 -1.64643e-29)
(0.00539346 0.0239484 3.25191e-29)
(0.00321519 0.00743533 2.48609e-29)
(0.00212203 0.0163617 3.99289e-29)
(0.00190335 0.0137454 -4.20522e-29)
(-0.000617322 0.00561339 -7.15445e-30)
(-9.98647e-05 0.0025058 -1.64447e-29)
(0.00183385 0.000812238 -6.88094e-30)
(0.00281269 -0.000207286 -3.32217e-30)
(0.00362844 0.0023115 -8.32241e-31)
(0.00706405 0.00869093 2.48938e-32)
(0.0132409 0.0160878 -8.01798e-30)
(0.018232 0.0207135 0)
(0.0195179 0.021378 -5.26603e-30)
(0.0177628 0.0194798 -7.73552e-30)
(0.0149185 0.0169557 2.03098e-30)
(0.0124019 0.0149205 1.1804e-31)
(0.0106531 0.0135888 -3.87686e-31)
(0.00956524 0.0127771 0)
(0.00891928 0.0122727 -1.19803e-30)
(0.00854754 0.0119354 -5.33328e-32)
(0.00834624 0.0116879 1.5298e-31)
(0.00825413 0.0114887 0)
(0.00823503 0.011316 -1.79488e-31)
(0.00826628 0.0111573 1.0891e-31)
(0.00833358 0.0110056 -3.57321e-31)
(0.0084269 0.0108566 -4.61662e-31)
(0.00853962 0.0107077 -1.04207e-30)
(0.00866651 0.0105571 5.71028e-31)
(0.00880416 0.0104041 -7.96834e-31)
(0.00894954 0.0102476 -1.53074e-30)
(0.00910076 0.0100875 0)
(0.0092559 0.00992315 -5.90622e-40)
(0.00941384 0.00975472 -6.48391e-40)
(0.0095733 0.0095819 0)
(0.00973356 0.00940476 1.87252e-30)
(0.00989371 0.00922308 1.17666e-30)
(0.0100535 0.00903712 -7.72556e-31)
(0.0102121 0.00884659 1.56935e-30)
(0.0103695 0.0086519 7.892e-31)
(0.010525 0.00845279 1.24493e-30)
(0.0106784 0.00824957 -1.26586e-30)
(0.0108291 0.0080421 8.06064e-31)
(0.0109773 0.00783073 8.07687e-31)
(0.0111223 0.00761522 8.14521e-31)
(0.0112644 0.00739596 3.14818e-31)
(0.0114029 0.00717271 -1.35048e-30)
(0.0115382 0.00694584 0)
(0.0116695 0.00671515 -5.26544e-31)
(0.0117972 0.00648105 -5.4677e-31)
(0.0119206 0.00624336 1.37411e-30)
(0.0120402 0.00600252 -2.9091e-31)
(0.0121552 0.00575833 -8.51765e-31)
(0.0122661 0.00551124 0)
(0.0123721 0.00526106 1.39728e-30)
(0.0124739 0.00500826 1.68972e-32)
(0.0125706 0.00475265 3.20608e-31)
(0.0126629 0.00449471 4.34685e-31)
(0.0127497 0.00423425 7.06654e-31)
(0.0128321 0.00397176 5.39372e-31)
(0.0129089 0.00370708 2.73046e-31)
(0.0129811 0.00344066 -1.79054e-31)
(0.0130475 0.00317237 7.16294e-31)
(0.0131092 0.00290264 4.4252e-31)
(0.013165 0.00263138 0)
(0.013216 0.002359 2.19995e-31)
(0.013261 0.00208546 -1.27889e-31)
(0.0133012 0.00181116 -4.60513e-32)
(0.0133354 0.00153612 -2.68837e-31)
(0.0133647 0.00126077 -1.42849e-31)
(0.0133881 0.00098496 -7.18828e-32)
(0.0134064 0.000709071 -7.69463e-32)
(0.0134193 0.000433359 2.60084e-32)
(-0.00215039 0.000893481 -1.90545e-31)
(-0.00270204 0.00305074 5.11036e-31)
(-0.000652076 0.00594335 0)
(0.000505157 0.00575959 0)
(0.00104918 0.00858106 -1.15009e-30)
(0.00278931 0.00969043 -1.66267e-30)
(0.00283743 0.00887145 -2.5121e-30)
(0.00278426 0.0120784 -3.22529e-30)
(0.0056461 0.0158017 0)
(0.00442649 0.00696369 0)
(0.0019724 0.00957989 1.69282e-29)
(0.0023902 0.00740102 0)
(0.00110968 0.00230676 0)
(0.000667622 0.000436926 0)
(0.00136114 -0.000194287 -3.52658e-30)
(0.00189915 -0.000244307 -2.72905e-30)
(0.00274824 0.00209601 -2.66292e-30)
(0.00535291 0.00733776 -5.72784e-30)
(0.0102761 0.014079 -7.65303e-30)
(0.0153799 0.0193954 -2.51569e-30)
(0.0180044 0.0213753 6.40633e-30)
(0.0176393 0.0204122 -6.34026e-32)
(0.0155307 0.0181207 -1.67722e-30)
(0.0131373 0.0158664 -8.35341e-31)
(0.0112354 0.0142047 0)
(0.00995576 0.0131247 9.35869e-31)
(0.00915919 0.012441 -3.19816e-31)
(0.00868223 0.0119912 3.97243e-31)
(0.00840763 0.0116731 -4.73429e-32)
(0.00826253 0.011429 0)
(0.00820296 0.0112269 -2.16207e-31)
(0.0082021 0.0110491 -2.28069e-33)
(0.00824283 0.010885 5.51555e-32)
(0.0083139 0.0107282 3.80575e-31)
(0.00840741 0.0105748 6.2812e-39)
(0.00851781 0.0104223 -1.86202e-31)
(0.00864089 0.0102689 -7.69982e-31)
(0.00877355 0.0101135 -5.70297e-31)
(0.00891336 0.00995527 0)
(0.00905844 0.00979375 -6.26823e-31)
(0.00920725 0.00962855 6.48625e-31)
(0.00935853 0.00945944 0)
(0.00951128 0.00928618 6.84482e-31)
(0.00966495 0.00910882 1.10749e-30)
(0.00981855 0.008927 4.40088e-31)
(0.00997202 0.00874118 1.87385e-38)
(0.0101242 0.00855068 0)
(0.0102753 0.00835622 2.79961e-31)
(0.0104243 0.00815731 2.66258e-31)
(0.0105715 0.00795445 7.41441e-31)
(0.010716 0.00774729 7.48506e-31)
(0.0108582 0.00753627 -2.62345e-31)
(0.0109971 0.00732109 7.74279e-31)
(0.0111333 0.00710217 -1.04041e-30)
(0.0112659 0.00687924 2.3278e-31)
(0.0113954 0.00665273 0)
(0.0115209 0.00642242 5.3214e-31)
(0.011643 0.00618875 1.86725e-30)
(0.0117607 0.0059515 1.55296e-32)
(0.0118747 0.00571115 -5.51794e-31)
(0.011984 0.00546748 0)
(0.0120895 0.00522098 -2.68709e-31)
(0.01219 0.00497144 5.51899e-31)
(0.0122863 0.00471935 4.0705e-31)
(0.0123775 0.00446453 4.10891e-31)
(0.0124644 0.00420746 8.22954e-31)
(0.0125459 0.00394798 0)
(0.0126229 0.00368657 0)
(0.0126943 0.00342307 0)
(0.0127612 0.00315795 -4.1826e-31)
(0.0128222 0.00289108 4.21514e-31)
(0.0128787 0.00262291 0)
(0.0129292 0.00235336 2.10499e-31)
(0.012975 0.00208287 2.07993e-31)
(0.0130149 0.00181139 2.07609e-31)
(0.0130501 0.00153948 2.05221e-31)
(0.0130793 0.0012669 0)
(0.0131037 0.000994116 0)
(0.0131227 0.00072121 -8.58806e-32)
(0.0131366 0.000448619 -1.47037e-32)
(-0.0017325 0.00177327 0)
(-0.002096 0.00292072 4.79958e-31)
(-0.00108936 0.00509686 2.95093e-31)
(-0.000288747 0.00620844 2.71608e-31)
(0.000476529 0.00867054 5.42458e-31)
(0.00199441 0.00994978 -2.2768e-31)
(0.00236918 0.010308 0)
(0.0024764 0.0125173 3.92587e-30)
(0.00502869 0.0140022 0)
(0.00469227 0.0089945 0)
(0.00320444 0.00833121 -8.74937e-31)
(0.00371924 0.00593394 -1.10878e-30)
(0.00302309 0.00245396 0)
(0.001965 0.000448201 1.38582e-30)
(0.00154596 -0.000441065 -1.96157e-30)
(0.00155959 -0.000240614 5.70481e-31)
(0.00222821 0.00190022 8.93298e-32)
(0.00429371 0.00635495 -3.70544e-30)
(0.0082147 0.0123822 1.17238e-30)
(0.0129162 0.0178809 -6.83385e-31)
(0.0162082 0.0208165 1.89225e-30)
(0.0169582 0.0208245 0)
(0.0156879 0.0190121 1.96794e-30)
(0.0136256 0.0167535 -1.4111e-30)
(0.0117112 0.0148623 -6.49386e-31)
(0.0102994 0.0135357 5.52092e-31)
(0.00937108 0.0126657 1.16228e-32)
(0.00879464 0.0120922 4.31092e-31)
(0.00845006 0.0116946 -2.05897e-31)
(0.00825516 0.0113992 0)
(0.0081585 0.0111634 -5.90466e-32)
(0.00812854 0.010963 -1.58416e-31)
(0.00814545 0.0107838 0)
(0.00819639 0.0106171 6.22818e-31)
(0.00827253 0.0104574 3.70998e-31)
(0.00836771 0.0103012 0)
(0.00847733 0.0101461 2.64676e-31)
(0.00859801 0.00999047 8.0465e-31)
(0.00872706 0.00983319 0)
(0.00886247 0.00967347 -5.6136e-31)
(0.00900249 0.00951074 5.83997e-31)
(0.00914576 0.00934454 0)
(0.00929146 0.00917474 -1.02516e-30)
(0.00943843 0.00900084 -1.07142e-30)
(0.00958646 0.00882319 0)
(0.00973408 0.00864097 6.53031e-31)
(0.00988165 0.00845486 0)
(0.0100279 0.00826428 6.65953e-31)
(0.010173 0.00806971 6.72146e-31)
(0.0103161 0.00787079 0)
(0.0104574 0.00766791 0)
(0.010596 0.00746078 -6.92989e-31)
(0.0107324 0.00724977 1.94461e-31)
(0.0108656 0.00703463 -1.38461e-32)
(0.0109961 0.00681574 1.24686e-30)
(0.0111231 0.00659289 5.29267e-31)
(0.0112469 0.00636647 5.47315e-31)
(0.0113669 0.0061363 7.27996e-31)
(0.0114834 0.0059028 0)
(0.0115956 0.00566579 7.39191e-31)
(0.0117041 0.0054257 0)
(0.0118081 0.00518238 -7.49625e-31)
(0.0119081 0.00493627 5.36144e-31)
(0.0120032 0.00468722 1.49061e-32)
(0.0120942 0.00443569 -5.49161e-31)
(0.01218 0.00418156 1.17195e-31)
(0.0122616 0.00392525 -6.58503e-31)
(0.0123378 0.00366668 0)
(0.0124095 0.00340626 3.89196e-31)
(0.0124757 0.00314392 -7.83193e-31)
(0.0125373 0.00288004 -3.91853e-31)
(0.0125932 0.00261462 -3.93538e-31)
(0.0126444 0.00234801 3.92073e-31)
(0.0126899 0.00208023 0)
(0.0127306 0.00181177 1.24746e-31)
(0.0127657 0.00154249 3.2246e-31)
(0.0127958 0.00127291 -6.63339e-32)
(0.0128208 0.00100285 2.44352e-32)
(0.0128407 0.00073287 -9.18882e-32)
(0.0128556 0.00046334 0)
(-0.00136612 0.0023498 6.81799e-34)
(-0.00162946 0.00277396 -5.91656e-32)
(-0.00114045 0.00429202 -2.73335e-31)
(-0.000509422 0.00578826 0)
(0.000260795 0.00792291 4.94708e-31)
(0.00141202 0.00943479 1.57747e-31)
(0.00204094 0.0104426 0)
(0.00253182 0.0121843 6.40308e-31)
(0.00438785 0.0131029 0)
(0.00466233 0.0102741 0)
(0.00410452 0.00866957 -2.1313e-30)
(0.00421311 0.00612012 1.50511e-30)
(0.00356129 0.00303851 -2.63384e-32)
(0.00251323 0.000833268 1.32229e-30)
(0.00178846 -0.000245088 5.0998e-31)
(0.00153482 -5.90967e-05 1.31329e-30)
(0.00198731 0.00182759 2.85279e-30)
(0.00362424 0.00566029 5.02747e-30)
(0.00678569 0.0110119 3.37033e-32)
(0.0109285 0.0163932 -4.6542e-30)
(0.0144284 0.0199338 -4.01476e-30)
(0.0159568 0.020803 -8.12599e-30)
(0.015473 0.0195896 -7.09686e-30)
(0.0138583 0.0175062 -5.33952e-31)
(0.0120563 0.0155053 0)
(0.0105833 0.0139789 0)
(0.0095514 0.0129303 -4.94067e-31)
(0.00888467 0.012228 2.38734e-31)
(0.00847365 0.0117448 -3.68629e-33)
(0.00823152 0.0113934 -1.71607e-31)
(0.00810047 0.0111206 0)
(0.00804412 0.0108952 0)
(0.00803975 0.010699 1.95767e-31)
(0.00807272 0.0105207 2.60843e-31)
(0.00813333 0.0103533 0)
(0.00821476 0.0101923 0)
(0.00831212 0.0100344 1.01704e-31)
(0.00842173 0.00987767 1.07132e-31)
(0.00854075 0.00972047 -4.77455e-31)
(0.00866702 0.0095618 -5.41608e-39)
(0.00879866 0.00940079 -5.68741e-39)
(0.0089345 0.00923706 5.5037e-31)
(0.00907312 0.00906988 -1.50381e-31)
(0.00921411 0.00889942 -7.18141e-31)
(0.00935588 0.00872478 0)
(0.00949855 0.00854643 0)
(0.00964094 0.0083638 0)
(0.00978284 0.00817718 -6.08718e-31)
(0.00992354 0.00798626 0)
(0.010063 0.00779133 0)
(0.0102005 0.00759212 4.84163e-31)
(0.0103361 0.00738892 1.25364e-32)
(0.0104693 0.00718153 -5.19214e-31)
(0.0106 0.00697023 -6.51977e-31)
(0.0107278 0.00675487 0)
(0.0108528 0.00653574 0)
(0.0109743 0.00631273 1.20552e-30)
(0.0110927 0.00608615 4.11149e-31)
(0.0112073 0.00585592 1.09159e-30)
(0.0113183 0.00562235 1.24003e-30)
(0.0114253 0.00538538 -1.53643e-31)
(0.0115284 0.00514536 1.37133e-32)
(0.0116271 0.00490224 -1.08798e-30)
(0.0117217 0.00465637 -1.08447e-30)
(0.0118116 0.00440772 -1.08337e-30)
(0.0118973 0.00415663 -1.07891e-30)
(0.011978 0.00390312 -1.52779e-30)
(0.0120543 0.00364751 -7.09323e-33)
(0.0121254 0.00338983 2.68864e-31)
(0.0121918 0.00313037 -3.6431e-31)
(0.012253 0.00286921 -3.63689e-31)
(0.0123094 0.0026066 -3.66105e-31)
(0.0123604 0.00234267 3.63346e-31)
(0.0124065 0.00207776 0)
(0.0124472 0.0018119 -1.2085e-31)
(0.0124829 0.00154559 -3.10656e-31)
(0.0125136 0.00127859 0)
(0.0125393 0.00101136 8.8192e-32)
(0.0125602 0.000744243 3.33456e-32)
(0.0125758 0.000477659 1.48257e-32)
(-0.00109507 0.00277857 0)
(-0.00134349 0.0027499 -1.69702e-31)
(-0.00112455 0.00377761 7.66143e-32)
(-0.000647491 0.00519264 -8.7298e-32)
(4.83086e-05 0.00697395 9.98074e-31)
(0.00097954 0.00851671 -5.9942e-31)
(0.0017489 0.00977506 0)
(0.00250717 0.0111348 0)
(0.00388999 0.0117266 6.09937e-31)
(0.00446366 0.0100742 -7.0941e-31)
(0.00436701 0.00829353 -1.2082e-30)
(0.00424395 0.00588667 1.09257e-30)
(0.00365667 0.00323629 -6.79573e-31)
(0.00277949 0.00118403 2.00284e-31)
(0.00202757 0.000103535 -3.26022e-30)
(0.00164873 0.000226339 -3.2084e-30)
(0.00191825 0.00185994 3.01188e-30)
(0.0032091 0.00518785 1.77892e-30)
(0.00579058 0.0099423 2.72882e-30)
(0.00937845 0.0150528 -7.76288e-31)
(0.0128149 0.0189137 4.11774e-30)
(0.0148201 0.020469 3.65346e-30)
(0.0149918 0.019872 -9.52084e-31)
(0.0138589 0.0180854 6.68529e-38)
(0.0122602 0.0160886 -7.08894e-31)
(0.0107961 0.0144242 0)
(0.00969567 0.0132177 -3.91475e-31)
(0.00895202 0.0123887 -1.15046e-31)
(0.00847929 0.0118168 -3.07305e-31)
(0.00819229 0.0114061 2.76137e-31)
(0.00802896 0.0110939 2.63606e-31)
(0.0079484 0.0108419 0)
(0.00792493 0.0106275 1.65217e-31)
(0.00794196 0.0104366 0)
(0.00798883 0.0102607 2.72825e-31)
(0.00805798 0.010094 -6.49136e-31)
(0.00814436 0.00993268 3.43722e-31)
(0.0082438 0.00977405 1.55552e-32)
(0.00835363 0.00961632 -7.73971e-31)
(0.00847138 0.00945804 -1.03562e-39)
(0.00859534 0.00929833 -1.06821e-39)
(0.00872393 0.00913631 8.36846e-31)
(0.00885622 0.00897168 2.02755e-32)
(0.00899076 0.00880362 2.27799e-30)
(0.00912714 0.00863216 9.0516e-31)
(0.00926445 0.00845688 -5.40109e-31)
(0.00940201 0.00827767 0)
(0.00953931 0.00809441 -5.54732e-31)
(0.00967592 0.00790708 -5.65477e-31)
(0.00981142 0.00771561 -4.77381e-31)
(0.00994547 0.00752001 -4.99409e-31)
(0.0100777 0.00732029 4.98959e-31)
(0.010208 0.00711646 5.21006e-31)
(0.0103359 0.00690858 -6.02227e-31)
(0.0104612 0.0066967 0)
(0.0105838 0.0064809 -6.1561e-31)
(0.0107033 0.00626125 1.89416e-38)
(0.0108197 0.00603789 -6.27889e-31)
(0.0109327 0.0058109 -5.39572e-31)
(0.0110421 0.00558042 8.65519e-32)
(0.0111478 0.00534656 -2.96766e-38)
(0.0112496 0.00510951 -5.37855e-31)
(0.0113474 0.00486938 -5.49076e-31)
(0.011441 0.00462637 -6.55944e-31)
(0.0115303 0.00438059 6.64989e-31)
(0.0116153 0.0041323 0)
(0.0116956 0.00388158 1.93373e-31)
(0.0117714 0.00362869 8.71775e-31)
(0.0118424 0.00337373 -3.37707e-31)
(0.0119087 0.00311697 7.65353e-32)
(0.0119699 0.00285849 7.97284e-32)
(0.0120263 0.00259856 0)
(0.0120775 0.00233732 0)
(0.0121239 0.00207504 0)
(0.0121649 0.001812 1.68875e-31)
(0.0122012 0.00154826 -2.12061e-31)
(0.0122323 0.00128405 6.60219e-32)
(0.012259 0.00101949 -6.42864e-32)
(0.0122805 0.000755087 2.48548e-39)
(0.0122973 0.000491367 -1.92302e-32)
(-0.000883685 0.00313823 -1.13055e-32)
(-0.00113236 0.00283183 -1.11533e-31)
(-0.0010627 0.00353232 -1.05883e-31)
(-0.000719036 0.00476295 8.40205e-31)
(-0.000127485 0.00629553 8.31005e-31)
(0.00066753 0.0077651 5.55059e-31)
(0.0014776 0.00903877 1.43757e-30)
(0.00234736 0.0101154 1.67782e-32)
(0.00348372 0.0104706 7.84549e-31)
(0.00418035 0.00938072 2.2573e-32)
(0.00433513 0.00771781 -6.23343e-31)
(0.00420672 0.0055805 2.44364e-30)
(0.00370984 0.00333277 -5.26095e-31)
(0.00296334 0.00151802 2.34693e-30)
(0.0022441 0.000505037 7.77513e-32)
(0.00181253 0.00056873 -5.59906e-30)
(0.00194742 0.00197573 -8.28728e-31)
(0.00296503 0.00488573 0)
(0.00509459 0.00912407 0)
(0.00818649 0.013901 1.81513e-30)
(0.0114201 0.0178784 3.23271e-30)
(0.013671 0.0199379 0)
(0.0143436 0.0199088 -6.11872e-31)
(0.0136688 0.0184833 -6.65929e-38)
(0.0123259 0.0165833 8.15299e-31)
(0.0109306 0.0148466 8.92086e-31)
(0.00979904 0.013512 0)
(0.00899578 0.0125651 1.76135e-38)
(0.00846779 0.0119046 -8.06511e-31)
(0.00813873 0.011433 -6.7391e-31)
(0.00794475 0.0110796 6.70649e-31)
(0.00784184 0.0108001 7.46038e-31)
(0.00780094 0.0105667 6.58873e-31)
(0.00780391 0.0103629 8.75365e-31)
(0.00783849 0.0101778 2.40351e-31)
(0.00789696 0.010005 0)
(0.0079733 0.00983966 0)
(0.00806378 0.0096788 -7.8997e-31)
(0.0081652 0.00952005 -4.43221e-31)
(0.00827523 0.00936178 -4.11737e-31)
(0.00839199 0.00920285 4.35418e-31)
(0.00851392 0.00904231 4.06985e-31)
(0.00863985 0.00887952 -8.87006e-31)
(0.00876859 0.00871379 0)
(0.00889957 0.00854497 0)
(0.00903164 0.00837246 -4.93094e-31)
(0.0091645 0.00819632 -1.41e-30)
(0.00929727 0.00801613 -9.46083e-31)
(0.00942982 0.00783207 -1.97336e-30)
(0.0095614 0.0076438 -9.83414e-31)
(0.00969198 0.00745154 1.51626e-30)
(0.00982088 0.00725503 1.02597e-30)
(0.00994815 0.00705453 -5.48582e-31)
(0.0100732 0.00684982 0)
(0.010196 0.0066412 -5.28822e-31)
(0.0103161 0.00642849 -1.11822e-30)
(0.0104337 0.00621203 -1.8238e-38)
(0.010548 0.00599165 -5.86204e-31)
(0.0106593 0.00576773 0)
(0.010767 0.00554012 -5.40185e-31)
(0.0108714 0.00530924 -5.50424e-31)
(0.0109718 0.00507494 0)
(0.0110687 0.00483768 0)
(0.0111612 0.00459732 -8.25504e-32)
(0.01125 0.00435434 1.76879e-30)
(0.011334 0.00410862 -1.1497e-30)
(0.0114142 0.00386062 -1.15302e-30)
(0.0114893 0.00361026 8.33275e-31)
(0.0115604 0.00335798 2.206e-31)
(0.0116262 0.00310372 5.65544e-31)
(0.0116878 0.00284789 3.11355e-31)
(0.0117439 0.00259047 -6.07132e-33)
(0.0117958 0.00233188 5.95995e-33)
(0.011842 0.00207219 -7.90847e-31)
(0.0118838 0.00181178 -3.6608e-31)
(0.0119203 0.00155069 -5.56995e-31)
(0.0119524 0.00128905 -4.02303e-31)