/*--------------------------------*- C++ -*----------------------------------*\
  =========                 |
  \\      /  F ield         | OpenFOAM: The Open Source CFD Toolbox
   \\    /   O peration     | Website:  https://openfoam.org
    \\  /    A nd           | Version:  7
     \\/     M anipulation  |
\*---------------------------------------------------------------------------*/
FoamFile
{
    version     2.0;
    format      ascii;
    class       volVectorField;
    location    "30";
    object      Us;
}
// * * * * * * * * * * * * * * * * * * * * * * * * * * * * * * * * * * * * * //

dimensions      [0 1 -1 0 0 0 0];

internalField   nonuniform List<vector> 
49920
(
(-1.15695e-10 -1.25829e-10 0)
(-7.11036e-11 -4.30464e-12 0)
(-4.8287e-11 3.02801e-11 0)
(-3.28908e-11 4.24164e-11 0)
(-1.95298e-11 4.65382e-11 0)
(-1.05287e-11 4.64324e-11 0)
(-3.74326e-12 4.663e-11 0)
(2.19753e-12 4.57928e-11 0)
(7.91434e-12 4.73927e-11 0)
(1.55034e-11 4.92512e-11 0)
(2.45318e-11 4.82258e-11 0)
(3.56923e-11 4.33281e-11 0)
(4.81111e-11 3.21411e-11 0)
(5.91357e-11 1.16473e-11 0)
(6.0462e-11 -2.62379e-11 0)
(5.49736e-11 -1.19729e-10 0)
(-4.63726e-11 -2.24606e-10 0)
(-4.75514e-10 3.43756e-09 0)
(1.40203e-08 2.97775e-08 0)
(6.12313e-08 8.72839e-08 0)
(1.42688e-07 1.71426e-07 0)
(2.53661e-07 2.75975e-07 0)
(3.88901e-07 3.95679e-07 0)
(5.43848e-07 5.26229e-07 0)
(7.14702e-07 6.64159e-07 0)
(8.98339e-07 8.06799e-07 0)
(1.09224e-06 9.52201e-07 0)
(1.29441e-06 1.09904e-06 0)
(1.50329e-06 1.24647e-06 0)
(1.71768e-06 1.39406e-06 0)
(1.93661e-06 1.5416e-06 0)
(2.15931e-06 1.6891e-06 0)
(2.38508e-06 1.83663e-06 0)
(2.61323e-06 1.98431e-06 0)
(2.84306e-06 2.13222e-06 0)
(3.07375e-06 2.28035e-06 0)
(3.30435e-06 2.42861e-06 0)
(3.53372e-06 2.57674e-06 0)
(3.76052e-06 2.7243e-06 0)
(3.98319e-06 2.87068e-06 0)
(4.19994e-06 3.01506e-06 0)
(4.40875e-06 3.15642e-06 0)
(4.60742e-06 3.29353e-06 0)
(4.79355e-06 3.42499e-06 0)
(4.96463e-06 3.54924e-06 0)
(5.11809e-06 3.66458e-06 0)
(5.25138e-06 3.76924e-06 0)
(5.362e-06 3.86141e-06 0)
(5.44766e-06 3.93933e-06 0)
(5.50634e-06 4.00132e-06 0)
(5.53637e-06 4.04585e-06 0)
(5.53654e-06 4.07163e-06 0)
(5.50613e-06 4.07765e-06 0)
(5.44504e-06 4.06323e-06 0)
(5.35374e-06 4.02807e-06 0)
(5.23335e-06 3.97228e-06 0)
(5.0856e-06 3.89638e-06 0)
(4.91281e-06 3.80132e-06 0)
(4.71779e-06 3.68845e-06 0)
(4.5038e-06 3.55946e-06 0)
(4.27441e-06 3.41639e-06 0)
(4.03341e-06 3.26153e-06 0)
(3.7847e-06 3.09737e-06 0)
(3.53213e-06 2.92651e-06 0)
(3.27943e-06 2.75158e-06 0)
(3.03006e-06 2.57519e-06 0)
(2.7872e-06 2.39984e-06 0)
(2.55358e-06 2.22781e-06 0)
(2.33153e-06 2.06117e-06 0)
(2.12287e-06 1.90168e-06 0)
(1.92897e-06 1.75078e-06 0)
(1.7507e-06 1.60956e-06 0)
(1.58849e-06 1.47874e-06 0)
(1.44236e-06 1.3587e-06 0)
(1.31197e-06 1.24949e-06 0)
(1.19665e-06 1.15086e-06 0)
(1.09552e-06 1.0623e-06 0)
(1.00746e-06 9.83099e-07 0)
(9.31249e-07 9.12389e-07 0)
(8.65573e-07 8.49203e-07 0)
(-9.06775e-08 2.62721e-08 0)
(-1.83323e-10 5.04391e-11 0)
(-1.13311e-10 8.39086e-11 0)
(-7.95403e-11 1.03094e-10 0)
(-5.04784e-11 1.17201e-10 0)
(-2.57187e-11 1.1896e-10 0)
(-5.40881e-12 1.19138e-10 0)
(7.92599e-12 1.14739e-10 0)
(1.80517e-11 1.20184e-10 0)
(3.79647e-11 1.30391e-10 0)
(6.35638e-11 1.26253e-10 0)
(9.0609e-11 1.10859e-10 0)
(1.17086e-10 8.07505e-11 0)
(1.39597e-10 3.29729e-11 0)
(1.58952e-10 -2.98051e-11 0)
(1.83042e-10 -1.36184e-10 0)
(1.68372e-10 -2.01059e-10 0)
(2.99716e-08 4.99443e-08 0)
(1.36772e-07 2.00337e-07 0)
(3.35089e-07 4.46035e-07 0)
(6.11483e-07 7.53989e-07 0)
(9.46212e-07 1.09534e-06 0)
(1.32223e-06 1.45101e-06 0)
(1.72665e-06 1.80929e-06 0)
(2.15016e-06 2.16331e-06 0)
(2.58613e-06 2.50933e-06 0)
(3.02989e-06 2.84562e-06 0)
(3.47816e-06 3.17173e-06 0)
(3.92864e-06 3.48796e-06 0)
(4.37965e-06 3.79502e-06 0)
(4.82991e-06 4.0938e-06 0)
(5.27836e-06 4.38523e-06 0)
(5.72402e-06 4.67013e-06 0)
(6.16586e-06 4.94917e-06 0)
(6.60275e-06 5.22281e-06 0)
(7.03341e-06 5.49125e-06 0)
(7.45636e-06 5.75444e-06 0)
(7.86988e-06 6.01203e-06 0)
(8.27206e-06 6.26345e-06 0)
(8.66076e-06 6.50782e-06 0)
(9.03366e-06 6.74404e-06 0)
(9.38824e-06 6.97082e-06 0)
(9.7219e-06 7.18665e-06 0)
(1.00319e-05 7.38989e-06 0)
(1.03155e-05 7.57881e-06 0)
(1.057e-05 7.75159e-06 0)
(1.07927e-05 7.90641e-06 0)
(1.0981e-05 8.04146e-06 0)
(1.11326e-05 8.15503e-06 0)
(1.12452e-05 8.24547e-06 0)
(1.1317e-05 8.3113e-06 0)
(1.13463e-05 8.35121e-06 0)
(1.13321e-05 8.3641e-06 0)
(1.12734e-05 8.34908e-06 0)
(1.117e-05 8.30556e-06 0)
(1.1022e-05 8.23321e-06 0)
(1.08302e-05 8.13203e-06 0)
(1.05959e-05 8.00235e-06 0)
(1.03211e-05 7.84486e-06 0)
(1.00083e-05 7.66067e-06 0)
(9.66076e-06 7.45125e-06 0)
(9.28223e-06 7.21848e-06 0)
(8.87708e-06 6.96467e-06 0)
(8.45017e-06 6.69247e-06 0)
(8.0067e-06 6.4049e-06 0)
(7.55217e-06 6.10527e-06 0)
(7.09223e-06 5.79711e-06 0)
(6.63248e-06 5.48407e-06 0)
(6.1784e-06 5.16984e-06 0)
(5.73511e-06 4.85803e-06 0)
(5.30729e-06 4.55205e-06 0)
(4.89903e-06 4.25498e-06 0)
(4.51371e-06 3.96953e-06 0)
(4.15392e-06 3.69787e-06 0)
(3.82145e-06 3.44163e-06 0)
(3.51725e-06 3.20185e-06 0)
(3.2415e-06 2.97896e-06 0)
(2.99361e-06 2.77287e-06 0)
(2.7724e-06 2.58298e-06 0)
(2.57616e-06 2.4083e-06 0)
(-3.39134e-08 1.19407e-07 0)
(4.21185e-09 8.4941e-08 0)
(-2.02872e-10 2.55948e-10 0)
(-1.21919e-10 1.72401e-10 0)
(-7.60775e-11 1.96974e-10 0)
(-3.30476e-11 1.99333e-10 0)
(3.01232e-12 2.08765e-10 0)
(1.62867e-11 1.87852e-10 0)
(1.26694e-11 1.97182e-10 0)
(4.71916e-11 1.95363e-10 0)
(9.0625e-11 1.87101e-10 0)
(1.32217e-10 1.63319e-10 0)
(1.77886e-10 1.25274e-10 0)
(2.28985e-10 6.01164e-11 0)
(2.9359e-10 -1.06698e-11 0)
(2.8534e-10 -1.18516e-10 0)
(4.57531e-08 8.77243e-08 0)
(1.91553e-07 3.50838e-07 0)
(4.65235e-07 7.81562e-07 0)
(8.54479e-07 1.31077e-06 0)
(1.32907e-06 1.87523e-06 0)
(1.85929e-06 2.43742e-06 0)
(2.42247e-06 2.97902e-06 0)
(3.00305e-06 3.49258e-06 0)
(3.59095e-06 3.97641e-06 0)
(4.1798e-06 4.43162e-06 0)
(4.76569e-06 4.86062e-06 0)
(5.34622e-06 5.26625e-06 0)
(5.91991e-06 5.65138e-06 0)
(6.4858e-06 6.01863e-06 0)
(7.04317e-06 6.37029e-06 0)
(7.59137e-06 6.70826e-06 0)
(8.12971e-06 7.03406e-06 0)
(8.65736e-06 7.3488e-06 0)
(9.17336e-06 7.6532e-06 0)
(9.67656e-06 7.94765e-06 0)
(1.01656e-05 8.23219e-06 0)
(1.06391e-05 8.5066e-06 0)
(1.10952e-05 8.77037e-06 0)
(1.15323e-05 9.02279e-06 0)
(1.19484e-05 9.26297e-06 0)
(1.23416e-05 9.48987e-06 0)
(1.27099e-05 9.70237e-06 0)
(1.30514e-05 9.89926e-06 0)
(1.3364e-05 1.00793e-05 0)
(1.36459e-05 1.02414e-05 0)
(1.38952e-05 1.03842e-05 0)
(1.41102e-05 1.05066e-05 0)
(1.42891e-05 1.06077e-05 0)
(1.44305e-05 1.06863e-05 0)
(1.45329e-05 1.07416e-05 0)
(1.4595e-05 1.07728e-05 0)
(1.46156e-05 1.07792e-05 0)
(1.45937e-05 1.07601e-05 0)
(1.45285e-05 1.0715e-05 0)
(1.44194e-05 1.06435e-05 0)
(1.42661e-05 1.05453e-05 0)
(1.40685e-05 1.04203e-05 0)
(1.38271e-05 1.02685e-05 0)
(1.35426e-05 1.00902e-05 0)
(1.32163e-05 9.88573e-06 0)
(1.28501e-05 9.656e-06 0)
(1.24465e-05 9.40206e-06 0)
(1.20085e-05 9.12535e-06 0)
(1.15399e-05 8.82771e-06 0)
(1.1045e-05 8.51133e-06 0)
(1.05287e-05 8.17883e-06 0)
(9.99654e-06 7.83315e-06 0)
(9.45427e-06 7.47754e-06 0)
(8.90797e-06 7.11549e-06 0)
(8.36376e-06 6.7506e-06 0)
(7.82768e-06 6.38648e-06 0)
(7.30543e-06 6.02663e-06 0)
(6.80223e-06 5.67427e-06 0)
(6.32259e-06 5.33227e-06 0)
(5.8702e-06 5.00302e-06 0)
(5.44782e-06 4.68834e-06 0)
(5.05721e-06 4.38945e-06 0)
(4.69911e-06 4.10698e-06 0)
(4.37336e-06 3.84099e-06 0)
(8.50848e-08 4.58657e-07 0)
(5.55281e-08 2.22081e-07 0)
(7.93465e-09 5.03486e-09 0)
(-4.25496e-11 3.90578e-10 0)
(-4.22778e-10 4.69763e-09 0)
(3.20022e-09 4.10327e-08 0)
(4.39588e-09 3.14652e-08 0)
(5.6986e-09 3.29251e-08 0)
(-1.95174e-10 4.81464e-09 0)
(4.01328e-11 2.72723e-10 0)
(1.12957e-10 2.52806e-10 0)
(1.76586e-10 2.21364e-10 0)
(2.93375e-10 2.14076e-10 0)
(4.58437e-10 1.80637e-10 0)
(4.37074e-10 4.09302e-11 0)
(7.89908e-08 1.67668e-07 0)
(2.8891e-07 6.02939e-07 0)
(6.48177e-07 1.26507e-06 0)
(1.13718e-06 2.0391e-06 0)
(1.719e-06 2.82608e-06 0)
(2.35751e-06 3.57291e-06 0)
(3.02506e-06 4.26023e-06 0)
(3.70317e-06 4.88584e-06 0)
(4.38055e-06 5.45464e-06 0)
(5.05071e-06 5.97384e-06 0)
(5.71018e-06 6.45072e-06 0)
(6.35724e-06 6.89189e-06 0)
(6.99113e-06 7.30297e-06 0)
(7.61155e-06 7.68864e-06 0)
(8.21838e-06 8.05264e-06 0)
(8.81147e-06 8.39796e-06 0)
(9.39059e-06 8.72687e-06 0)
(9.95535e-06 9.04109e-06 0)
(1.05052e-05 9.34179e-06 0)
(1.10394e-05 9.62975e-06 0)
(1.1557e-05 9.90537e-06 0)
(1.2057e-05 1.01687e-05 0)
(1.25383e-05 1.04197e-05 0)
(1.29996e-05 1.06579e-05 0)
(1.34396e-05 1.08827e-05 0)
(1.3857e-05 1.10937e-05 0)
(1.42504e-05 1.12901e-05 0)
(1.46186e-05 1.14711e-05 0)
(1.49602e-05 1.1636e-05 0)
(1.5274e-05 1.17841e-05 0)
(1.55588e-05 1.19147e-05 0)
(1.58134e-05 1.20271e-05 0)
(1.60368e-05 1.21208e-05 0)
(1.62279e-05 1.21952e-05 0)
(1.63857e-05 1.22499e-05 0)
(1.65091e-05 1.22844e-05 0)
(1.65974e-05 1.22983e-05 0)
(1.66494e-05 1.22913e-05 0)
(1.66642e-05 1.22631e-05 0)
(1.66411e-05 1.22133e-05 0)
(1.6579e-05 1.21416e-05 0)
(1.64773e-05 1.20478e-05 0)
(1.63352e-05 1.19316e-05 0)
(1.61522e-05 1.17927e-05 0)
(1.5928e-05 1.16311e-05 0)
(1.56625e-05 1.14466e-05 0)
(1.5356e-05 1.12394e-05 0)
(1.50092e-05 1.10096e-05 0)
(1.46232e-05 1.07576e-05 0)
(1.41998e-05 1.04842e-05 0)
(1.37413e-05 1.01902e-05 0)
(1.32508e-05 9.877e-06 0)
(1.27319e-05 9.54623e-06 0)
(1.21891e-05 9.19991e-06 0)
(1.16273e-05 8.84039e-06 0)
(1.10522e-05 8.47034e-06 0)
(1.04696e-05 8.09271e-06 0)
(9.88587e-06 7.71062e-06 0)
(9.30726e-06 7.32724e-06 0)
(8.73991e-06 6.94572e-06 0)
(8.18954e-06 6.56905e-06 0)
(7.66128e-06 6.19992e-06 0)
(7.15941e-06 5.84065e-06 0)
(6.68728e-06 5.49309e-06 0)
(6.24715e-06 5.15859e-06 0)
(3.66419e-07 1.28124e-06 0)
(2.79896e-07 7.83044e-07 0)
(1.44717e-07 3.20605e-07 0)
(1.65553e-09 2.36693e-09 0)
(-1.91798e-08 1.18203e-08 0)
(-3.067e-09 6.05019e-08 0)
(1.12654e-08 4.04722e-08 0)
(2.26114e-08 4.17903e-08 0)
(1.69099e-08 6.27443e-09 0)
(2.00524e-09 3.50801e-09 0)
(5.47709e-10 1.06643e-09 0)
(3.63359e-10 7.45053e-10 0)
(7.22754e-10 1.47311e-09 0)
(6.15088e-10 2.99933e-10 0)
(1.55164e-07 3.57438e-07 0)
(4.65747e-07 1.07308e-06 0)
(9.34379e-07 2.02304e-06 0)
(1.52642e-06 3.04713e-06 0)
(2.19771e-06 4.02925e-06 0)
(2.91103e-06 4.9164e-06 0)
(3.64036e-06 5.69818e-06 0)
(4.36952e-06 6.38354e-06 0)
(5.08936e-06 6.98726e-06 0)
(5.79521e-06 7.52406e-06 0)
(6.48502e-06 8.00662e-06 0)
(7.15815e-06 8.44525e-06 0)
(7.81465e-06 8.84807e-06 0)
(8.45482e-06 9.22141e-06 0)
(9.07899e-06 9.5701e-06 0)
(9.68739e-06 9.89785e-06 0)
(1.02801e-05 1.02074e-05 0)
(1.08569e-05 1.05008e-05 0)
(1.14176e-05 1.07796e-05 0)
(1.19618e-05 1.10446e-05 0)
(1.24886e-05 1.12964e-05 0)
(1.29976e-05 1.15354e-05 0)
(1.34877e-05 1.17616e-05 0)
(1.39582e-05 1.19748e-05 0)
(1.44082e-05 1.21748e-05 0)
(1.48366e-05 1.23611e-05 0)
(1.52426e-05 1.25334e-05 0)
(1.56252e-05 1.26912e-05 0)
(1.59836e-05 1.28341e-05 0)
(1.6317e-05 1.29616e-05 0)
(1.66246e-05 1.30734e-05 0)
(1.69057e-05 1.3169e-05 0)
(1.71595e-05 1.32482e-05 0)
(1.73854e-05 1.33107e-05 0)
(1.75826e-05 1.33564e-05 0)
(1.77506e-05 1.3385e-05 0)
(1.78887e-05 1.33964e-05 0)
(1.79961e-05 1.33906e-05 0)
(1.80722e-05 1.33673e-05 0)
(1.81162e-05 1.33265e-05 0)
(1.81273e-05 1.32681e-05 0)
(1.81046e-05 1.31919e-05 0)
(1.80473e-05 1.30977e-05 0)
(1.79545e-05 1.29853e-05 0)
(1.78253e-05 1.28546e-05 0)
(1.76589e-05 1.27052e-05 0)
(1.74547e-05 1.25368e-05 0)
(1.72119e-05 1.23494e-05 0)
(1.69303e-05 1.21426e-05 0)
(1.66098e-05 1.19164e-05 0)
(1.62506e-05 1.16706e-05 0)
(1.58535e-05 1.14056e-05 0)
(1.54197e-05 1.11215e-05 0)
(1.49511e-05 1.0819e-05 0)
(1.44503e-05 1.04989e-05 0)
(1.39204e-05 1.01623e-05 0)
(1.33655e-05 9.81089e-06 0)
(1.27902e-05 9.44634e-06 0)
(1.21999e-05 9.07082e-06 0)
(1.16003e-05 8.68676e-06 0)
(1.09978e-05 8.29678e-06 0)
(1.03986e-05 7.90362e-06 0)
(9.80896e-06 7.51007e-06 0)
(9.23484e-06 7.11883e-06 0)
(8.68153e-06 6.7324e-06 0)
(8.15355e-06 6.35302e-06 0)
(8.1885e-07 2.83547e-06 0)
(7.4349e-07 2.20776e-06 0)
(5.93085e-07 1.58459e-06 0)
(3.69193e-07 1.0417e-06 0)
(2.18002e-07 8.07037e-07 0)
(1.85027e-07 6.8356e-07 0)
(1.83955e-07 5.66855e-07 0)
(1.77547e-07 4.55675e-07 0)
(1.47751e-07 3.14158e-07 0)
(7.14782e-08 1.40607e-07 0)
(2.38938e-09 1.03569e-09 0)
(4.77061e-10 1.31568e-09 0)
(9.71931e-08 1.79108e-07 0)
(3.7812e-07 9.12902e-07 0)
(8.15017e-07 2.01167e-06 0)
(1.39697e-06 3.25168e-06 0)
(2.07654e-06 4.46673e-06 0)
(2.80807e-06 5.56192e-06 0)
(3.5589e-06 6.5073e-06 0)
(4.30951e-06 7.31091e-06 0)
(5.04953e-06 7.9951e-06 0)
(5.77412e-06 8.58373e-06 0)
(6.48143e-06 9.09739e-06 0)
(7.17111e-06 9.55239e-06 0)
(7.84352e-06 9.96123e-06 0)
(8.49923e-06 1.03333e-05 0)
(9.13879e-06 1.06756e-05 0)
(9.76265e-06 1.09933e-05 0)
(1.03711e-05 1.12903e-05 0)
(1.09641e-05 1.15694e-05 0)
(1.15416e-05 1.18327e-05 0)
(1.21034e-05 1.20817e-05 0)
(1.26491e-05 1.23172e-05 0)
(1.3178e-05 1.254e-05 0)
(1.36897e-05 1.27503e-05 0)
(1.41834e-05 1.29482e-05 0)
(1.46584e-05 1.31338e-05 0)
(1.5114e-05 1.33067e-05 0)
(1.55495e-05 1.34668e-05 0)
(1.59641e-05 1.36138e-05 0)
(1.63572e-05 1.37474e-05 0)
(1.67282e-05 1.38673e-05 0)
(1.70764e-05 1.39732e-05 0)
(1.74012e-05 1.40649e-05 0)
(1.77023e-05 1.41421e-05 0)
(1.79791e-05 1.42048e-05 0)
(1.82311e-05 1.42528e-05 0)
(1.8458e-05 1.42861e-05 0)
(1.86592e-05 1.43045e-05 0)
(1.88343e-05 1.43083e-05 0)
(1.89828e-05 1.42973e-05 0)
(1.91043e-05 1.42716e-05 0)
(1.91982e-05 1.42312e-05 0)
(1.92639e-05 1.41762e-05 0)
(1.93006e-05 1.41065e-05 0)
(1.93077e-05 1.40221e-05 0)
(1.92844e-05 1.3923e-05 0)
(1.92298e-05 1.3809e-05 0)
(1.9143e-05 1.36799e-05 0)
(1.90231e-05 1.35356e-05 0)
(1.8869e-05 1.33757e-05 0)
(1.868e-05 1.32e-05 0)
(1.84552e-05 1.30082e-05 0)
(1.81939e-05 1.27999e-05 0)
(1.78954e-05 1.25748e-05 0)
(1.75597e-05 1.23326e-05 0)
(1.71868e-05 1.20732e-05 0)
(1.67771e-05 1.17965e-05 0)
(1.63318e-05 1.15026e-05 0)
(1.58524e-05 1.11917e-05 0)
(1.53414e-05 1.08644e-05 0)
(1.48018e-05 1.05215e-05 0)
(1.42373e-05 1.01642e-05 0)
(1.36525e-05 9.79397e-06 0)
(1.30527e-05 9.41247e-06 0)
(1.24436e-05 9.02177e-06 0)
(1.18312e-05 8.62414e-06 0)
(1.12219e-05 8.22203e-06 0)
(1.06219e-05 7.81792e-06 0)
(1.0037e-05 7.41429e-06 0)
(1.32824e-06 5.09954e-06 0)
(1.33155e-06 4.54394e-06 0)
(1.26021e-06 3.97497e-06 0)
(1.10846e-06 3.43862e-06 0)
(9.57401e-07 3.01058e-06 0)
(8.85177e-07 2.67707e-06 0)
(8.66097e-07 2.39895e-06 0)
(8.64147e-07 2.13985e-06 0)
(8.60227e-07 1.88769e-06 0)
(8.27621e-07 1.66071e-06 0)
(7.98235e-07 1.5955e-06 0)
(8.70773e-07 1.8918e-06 0)
(1.10393e-06 2.66004e-06 0)
(1.56158e-06 3.88201e-06 0)
(2.16807e-06 5.19311e-06 0)
(2.85816e-06 6.40986e-06 0)
(3.58321e-06 7.46382e-06 0)
(4.31516e-06 8.34868e-06 0)
(5.04013e-06 9.08606e-06 0)
(5.75227e-06 9.70491e-06 0)
(6.44971e-06 1.02319e-05 0)
(7.13225e-06 1.06884e-05 0)
(7.80029e-06 1.10908e-05 0)
(8.45434e-06 1.14513e-05 0)
(9.09485e-06 1.17785e-05 0)
(9.72208e-06 1.20791e-05 0)
(1.03361e-05 1.23577e-05 0)
(1.0937e-05 1.26177e-05 0)
(1.15243e-05 1.28617e-05 0)
(1.20979e-05 1.30915e-05 0)
(1.26573e-05 1.33082e-05 0)
(1.32019e-05 1.35126e-05 0)
(1.37311e-05 1.37053e-05 0)
(1.42444e-05 1.38866e-05 0)
(1.4741e-05 1.40564e-05 0)
(1.52202e-05 1.42148e-05 0)
(1.56814e-05 1.43616e-05 0)
(1.61239e-05 1.44965e-05 0)
(1.65471e-05 1.46195e-05 0)
(1.69504e-05 1.47301e-05 0)
(1.73333e-05 1.48282e-05 0)
(1.76952e-05 1.49137e-05 0)
(1.80357e-05 1.49862e-05 0)
(1.83545e-05 1.50457e-05 0)
(1.86511e-05 1.50921e-05 0)
(1.89251e-05 1.51253e-05 0)
(1.91764e-05 1.51454e-05 0)
(1.94045e-05 1.51524e-05 0)
(1.96091e-05 1.51463e-05 0)
(1.97899e-05 1.51273e-05 0)
(1.99466e-05 1.50954e-05 0)
(2.00787e-05 1.50507e-05 0)
(2.01858e-05 1.49934e-05 0)
(2.02675e-05 1.49235e-05 0)
(2.03232e-05 1.48411e-05 0)
(2.03522e-05 1.47462e-05 0)
(2.03539e-05 1.46388e-05 0)
(2.03275e-05 1.45189e-05 0)
(2.02722e-05 1.43864e-05 0)
(2.01871e-05 1.42411e-05 0)
(2.00712e-05 1.40829e-05 0)
(1.99236e-05 1.39113e-05 0)
(1.97434e-05 1.37262e-05 0)
(1.95295e-05 1.35272e-05 0)
(1.92812e-05 1.33138e-05 0)
(1.89976e-05 1.30857e-05 0)
(1.86783e-05 1.28425e-05 0)
(1.83229e-05 1.25838e-05 0)
(1.79316e-05 1.23094e-05 0)
(1.75049e-05 1.20189e-05 0)
(1.70438e-05 1.17124e-05 0)
(1.65499e-05 1.139e-05 0)
(1.60257e-05 1.1052e-05 0)
(1.54742e-05 1.06991e-05 0)
(1.48993e-05 1.03323e-05 0)
(1.43054e-05 9.95266e-06 0)
(1.36979e-05 9.5618e-06 0)
(1.30823e-05 9.1615e-06 0)
(1.24648e-05 8.75381e-06 0)
(1.18514e-05 8.34094e-06 0)
(1.7731e-06 7.74063e-06 0)
(1.88105e-06 7.36114e-06 0)
(1.93782e-06 6.96834e-06 0)
(1.94408e-06 6.57629e-06 0)
(1.93188e-06 6.19751e-06 0)
(1.94417e-06 5.85817e-06 0)
(1.9924e-06 5.57201e-06 0)
(2.06831e-06 5.34259e-06 0)
(2.16078e-06 5.19402e-06 0)
(2.25578e-06 5.18445e-06 0)
(2.3657e-06 5.41842e-06 0)
(2.55028e-06 5.98448e-06 0)
(2.86695e-06 6.85739e-06 0)
(3.32782e-06 7.86614e-06 0)
(3.89406e-06 8.82585e-06 0)
(4.51552e-06 9.6648e-06 0)
(5.16007e-06 1.03736e-05 0)
(5.81114e-06 1.09682e-05 0)
(6.46105e-06 1.1471e-05 0)
(7.10646e-06 1.19024e-05 0)
(7.74588e-06 1.22791e-05 0)
(8.37852e-06 1.26137e-05 0)
(9.00383e-06 1.29153e-05 0)
(9.62127e-06 1.31907e-05 0)
(1.02302e-05 1.34448e-05 0)
(1.08301e-05 1.36812e-05 0)
(1.14203e-05 1.39024e-05 0)
(1.2e-05 1.41103e-05 0)
(1.25685e-05 1.43062e-05 0)
(1.3125e-05 1.44908e-05 0)
(1.36687e-05 1.46649e-05 0)
(1.41989e-05 1.48287e-05 0)
(1.47148e-05 1.49822e-05 0)
(1.52156e-05 1.51256e-05 0)
(1.57006e-05 1.52586e-05 0)
(1.6169e-05 1.53811e-05 0)
(1.66202e-05 1.5493e-05 0)
(1.70535e-05 1.55939e-05 0)
(1.74684e-05 1.56836e-05 0)
(1.78644e-05 1.57619e-05 0)
(1.82409e-05 1.58287e-05 0)
(1.85975e-05 1.58838e-05 0)
(1.89339e-05 1.5927e-05 0)
(1.92496e-05 1.59583e-05 0)
(1.95445e-05 1.59777e-05 0)
(1.98181e-05 1.59851e-05 0)
(2.00703e-05 1.59807e-05 0)
(2.03007e-05 1.59644e-05 0)
(2.05092e-05 1.59364e-05 0)
(2.06954e-05 1.58968e-05 0)
(2.0859e-05 1.58457e-05 0)
(2.09998e-05 1.57833e-05 0)
(2.11173e-05 1.57096e-05 0)
(2.12112e-05 1.56249e-05 0)
(2.1281e-05 1.55291e-05 0)
(2.13262e-05 1.54224e-05 0)
(2.13463e-05 1.53048e-05 0)
(2.13405e-05 1.51762e-05 0)
(2.13082e-05 1.50367e-05 0)
(2.12485e-05 1.48861e-05 0)
(2.11607e-05 1.47244e-05 0)
(2.10438e-05 1.45511e-05 0)
(2.0897e-05 1.43663e-05 0)
(2.07192e-05 1.41694e-05 0)
(2.05096e-05 1.39601e-05 0)
(2.02671e-05 1.37381e-05 0)
(1.99911e-05 1.35029e-05 0)
(1.96809e-05 1.32541e-05 0)
(1.93359e-05 1.29911e-05 0)
(1.89561e-05 1.27137e-05 0)
(1.85417e-05 1.24213e-05 0)
(1.80933e-05 1.21139e-05 0)
(1.76122e-05 1.17912e-05 0)
(1.71001e-05 1.14534e-05 0)
(1.65597e-05 1.11006e-05 0)
(1.59942e-05 1.07336e-05 0)
(1.54075e-05 1.0353e-05 0)
(1.48044e-05 9.96e-06 0)
(1.419e-05 9.55602e-06 0)
(1.35701e-05 9.14273e-06 0)
(2.10579e-06 1.03793e-05 0)
(2.31052e-06 1.01681e-05 0)
(2.48928e-06 9.95126e-06 0)
(2.64497e-06 9.7323e-06 0)
(2.7892e-06 9.51674e-06 0)
(2.93862e-06 9.32417e-06 0)
(3.10475e-06 9.17954e-06 0)
(3.29046e-06 9.10895e-06 0)
(3.49305e-06 9.14487e-06 0)
(3.70911e-06 9.32539e-06 0)
(3.94537e-06 9.67697e-06 0)
(4.22557e-06 1.01866e-05 0)
(4.57413e-06 1.07899e-05 0)
(4.99546e-06 1.13968e-05 0)
(5.47943e-06 1.1952e-05 0)
(6.00668e-06 1.24394e-05 0)
(6.5615e-06 1.28622e-05 0)
(7.1335e-06 1.32305e-05 0)
(7.71614e-06 1.35551e-05 0)
(8.30511e-06 1.3845e-05 0)
(8.89737e-06 1.41076e-05 0)
(9.49055e-06 1.43482e-05 0)
(1.00827e-05 1.45709e-05 0)
(1.06721e-05 1.47785e-05 0)
(1.12572e-05 1.49732e-05 0)
(1.18365e-05 1.51566e-05 0)
(1.24089e-05 1.53297e-05 0)
(1.29731e-05 1.54931e-05 0)
(1.35279e-05 1.56475e-05 0)
(1.40722e-05 1.5793e-05 0)
(1.46051e-05 1.59297e-05 0)
(1.51255e-05 1.60576e-05 0)
(1.56326e-05 1.61765e-05 0)
(1.61255e-05 1.62863e-05 0)
(1.66033e-05 1.63868e-05 0)
(1.70653e-05 1.64777e-05 0)
(1.7511e-05 1.65587e-05 0)
(1.79395e-05 1.66296e-05 0)
(1.83504e-05 1.66901e-05 0)
(1.87431e-05 1.67402e-05 0)
(1.91172e-05 1.67796e-05 0)
(1.94723e-05 1.68082e-05 0)
(1.98079e-05 1.68258e-05 0)
(2.01239e-05 1.68326e-05 0)
(2.04198e-05 1.68283e-05 0)
(2.06954e-05 1.68132e-05 0)
(2.09505e-05 1.67872e-05 0)
(2.11848e-05 1.67504e-05 0)
(2.1398e-05 1.67029e-05 0)
(2.159e-05 1.66448e-05 0)
(2.17604e-05 1.65762e-05 0)
(2.19089e-05 1.64974e-05 0)
(2.20353e-05 1.64083e-05 0)
(2.21392e-05 1.63091e-05 0)
(2.22201e-05 1.61999e-05 0)
(2.22778e-05 1.60808e-05 0)
(2.23117e-05 1.59518e-05 0)
(2.23212e-05 1.5813e-05 0)
(2.23058e-05 1.56642e-05 0)
(2.22648e-05 1.55056e-05 0)
(2.21975e-05 1.53369e-05 0)
(2.21031e-05 1.5158e-05 0)
(2.19809e-05 1.49688e-05 0)
(2.18298e-05 1.47689e-05 0)
(2.16492e-05 1.45581e-05 0)
(2.14379e-05 1.4336e-05 0)
(2.11953e-05 1.41023e-05 0)
(2.09206e-05 1.38565e-05 0)
(2.06129e-05 1.35981e-05 0)
(2.02718e-05 1.33266e-05 0)
(1.98972e-05 1.30417e-05 0)
(1.94889e-05 1.27428e-05 0)
(1.90474e-05 1.24296e-05 0)
(1.85738e-05 1.21019e-05 0)
(1.80695e-05 1.17595e-05 0)
(1.75366e-05 1.14025e-05 0)
(1.6978e-05 1.10311e-05 0)
(1.63972e-05 1.0646e-05 0)
(1.57983e-05 1.02478e-05 0)
(1.51862e-05 9.8378e-06 0)
(2.33616e-06 1.28014e-05 0)
(2.61668e-06 1.27065e-05 0)
(2.88709e-06 1.26138e-05 0)
(3.1496e-06 1.25265e-05 0)
(3.40864e-06 1.24509e-05 0)
(3.67002e-06 1.23992e-05 0)
(3.9391e-06 1.23887e-05 0)
(4.21889e-06 1.24385e-05 0)
(4.51026e-06 1.25652e-05 0)
(4.81403e-06 1.27773e-05 0)
(5.13401e-06 1.3066e-05 0)
(5.47802e-06 1.34037e-05 0)
(5.85445e-06 1.37542e-05 0)
(6.26782e-06 1.40883e-05 0)
(6.71806e-06 1.43942e-05 0)
(7.20059e-06 1.46711e-05 0)
(7.70942e-06 1.49222e-05 0)
(8.23888e-06 1.51516e-05 0)
(8.78404e-06 1.53633e-05 0)
(9.34077e-06 1.55603e-05 0)
(9.90557e-06 1.5745e-05 0)
(1.04755e-05 1.5919e-05 0)
(1.10478e-05 1.60836e-05 0)
(1.16204e-05 1.62398e-05 0)
(1.21912e-05 1.63881e-05 0)
(1.27584e-05 1.65289e-05 0)
(1.33203e-05 1.66624e-05 0)
(1.38755e-05 1.67888e-05 0)
(1.44226e-05 1.69079e-05 0)
(1.49603e-05 1.70198e-05 0)
(1.54875e-05 1.71242e-05 0)
(1.6003e-05 1.72208e-05 0)
(1.6506e-05 1.73095e-05 0)
(1.69955e-05 1.73899e-05 0)
(1.74706e-05 1.74618e-05 0)
(1.79306e-05 1.75248e-05 0)
(1.83749e-05 1.75788e-05 0)
(1.88026e-05 1.76234e-05 0)
(1.92134e-05 1.76584e-05 0)
(1.96067e-05 1.76837e-05 0)
(1.9982e-05 1.76991e-05 0)
(2.03388e-05 1.77045e-05 0)
(2.06769e-05 1.76998e-05 0)
(2.0996e-05 1.7685e-05 0)
(2.12956e-05 1.76601e-05 0)
(2.15755e-05 1.76251e-05 0)
(2.18354e-05 1.758e-05 0)
(2.20751e-05 1.7525e-05 0)
(2.22943e-05 1.746e-05 0)
(2.24928e-05 1.73853e-05 0)
(2.26703e-05 1.73008e-05 0)
(2.28265e-05 1.72068e-05 0)
(2.29611e-05 1.71032e-05 0)
(2.30739e-05 1.69903e-05 0)
(2.31645e-05 1.6868e-05 0)
(2.32324e-05 1.67364e-05 0)
(2.32774e-05 1.65957e-05 0)
(2.32989e-05 1.64458e-05 0)
(2.32964e-05 1.62866e-05 0)
(2.32695e-05 1.61183e-05 0)
(2.32175e-05 1.59407e-05 0)
(2.31398e-05 1.57537e-05 0)
(2.30356e-05 1.55572e-05 0)
(2.29044e-05 1.53509e-05 0)
(2.27452e-05 1.51347e-05 0)
(2.25573e-05 1.49083e-05 0)
(2.23399e-05 1.46713e-05 0)
(2.20921e-05 1.44233e-05 0)
(2.18134e-05 1.4164e-05 0)
(2.15029e-05 1.38929e-05 0)
(2.11603e-05 1.36096e-05 0)
(2.07852e-05 1.33135e-05 0)
(2.03776e-05 1.30041e-05 0)
(1.99379e-05 1.26812e-05 0)
(1.94668e-05 1.23443e-05 0)
(1.89656e-05 1.19932e-05 0)
(1.84362e-05 1.16278e-05 0)
(1.78811e-05 1.12482e-05 0)
(1.73035e-05 1.08548e-05 0)
(1.67071e-05 1.04481e-05 0)
(2.49258e-06 1.49597e-05 0)
(2.82969e-06 1.49317e-05 0)
(3.16458e-06 1.49099e-05 0)
(3.49847e-06 1.48977e-05 0)
(3.83313e-06 1.49e-05 0)
(4.17069e-06 1.49236e-05 0)
(4.51323e-06 1.49768e-05 0)
(4.86246e-06 1.5067e-05 0)
(5.21967e-06 1.51979e-05 0)
(5.58628e-06 1.53666e-05 0)
(5.96445e-06 1.55619e-05 0)
(6.35737e-06 1.57683e-05 0)
(6.76877e-06 1.59715e-05 0)
(7.20193e-06 1.61638e-05 0)
(7.65853e-06 1.63435e-05 0)
(8.13817e-06 1.65118e-05 0)
(8.6389e-06 1.66706e-05 0)
(9.15789e-06 1.68215e-05 0)
(9.692e-06 1.69656e-05 0)
(1.02381e-05 1.71037e-05 0)
(1.07931e-05 1.72362e-05 0)
(1.13542e-05 1.73635e-05 0)
(1.1919e-05 1.74857e-05 0)
(1.24851e-05 1.76027e-05 0)
(1.30504e-05 1.77145e-05 0)
(1.36131e-05 1.78209e-05 0)
(1.41713e-05 1.79219e-05 0)
(1.47236e-05 1.80171e-05 0)
(1.52686e-05 1.81063e-05 0)
(1.58048e-05 1.81892e-05 0)
(1.63311e-05 1.82655e-05 0)
(1.68463e-05 1.83349e-05 0)
(1.73495e-05 1.83971e-05 0)
(1.78398e-05 1.84516e-05 0)
(1.83162e-05 1.84983e-05 0)
(1.8778e-05 1.85368e-05 0)
(1.92245e-05 1.85668e-05 0)
(1.96551e-05 1.85882e-05 0)
(2.00692e-05 1.86007e-05 0)
(2.04662e-05 1.86041e-05 0)
(2.08457e-05 1.85984e-05 0)
(2.12073e-05 1.85833e-05 0)
(2.15505e-05 1.85589e-05 0)
(2.18751e-05 1.8525e-05 0)
(2.21806e-05 1.84818e-05 0)
(2.24668e-05 1.84291e-05 0)
(2.27334e-05 1.83671e-05 0)
(2.298e-05 1.82957e-05 0)
(2.32065e-05 1.8215e-05 0)
(2.34125e-05 1.81252e-05 0)
(2.35978e-05 1.80262e-05 0)
(2.3762e-05 1.79181e-05 0)
(2.3905e-05 1.78011e-05 0)
(2.40263e-05 1.76751e-05 0)
(2.41258e-05 1.75403e-05 0)
(2.4203e-05 1.73966e-05 0)
(2.42575e-05 1.72442e-05 0)
(2.42891e-05 1.7083e-05 0)
(2.42973e-05 1.6913e-05 0)
(2.42816e-05 1.67343e-05 0)
(2.42415e-05 1.65467e-05 0)
(2.41766e-05 1.63502e-05 0)
(2.40863e-05 1.61447e-05 0)
(2.39699e-05 1.593e-05 0)
(2.38268e-05 1.5706e-05 0)
(2.36563e-05 1.54724e-05 0)
(2.34578e-05 1.52289e-05 0)
(2.32305e-05 1.49753e-05 0)
(2.29737e-05 1.47113e-05 0)
(2.26868e-05 1.44363e-05 0)
(2.23692e-05 1.41501e-05 0)
(2.20205e-05 1.3852e-05 0)
(2.16403e-05 1.35418e-05 0)
(2.12288e-05 1.32188e-05 0)
(2.07861e-05 1.28827e-05 0)
(2.03131e-05 1.2533e-05 0)
(1.98108e-05 1.21696e-05 0)
(1.92809e-05 1.17922e-05 0)
(1.87258e-05 1.14008e-05 0)
(1.81483e-05 1.09956e-05 0)
(2.60099e-06 1.68903e-05 0)
(2.98205e-06 1.68957e-05 0)
(3.36466e-06 1.69074e-05 0)
(3.74939e-06 1.69282e-05 0)
(4.13702e-06 1.69609e-05 0)
(4.52841e-06 1.70089e-05 0)
(4.92446e-06 1.70749e-05 0)
(5.32609e-06 1.71604e-05 0)
(5.73424e-06 1.72645e-05 0)
(6.15003e-06 1.73833e-05 0)
(6.57489e-06 1.75105e-05 0)
(7.0107e-06 1.76395e-05 0)
(7.45959e-06 1.77655e-05 0)
(7.92355e-06 1.78864e-05 0)
(8.40385e-06 1.80022e-05 0)
(8.90075e-06 1.81136e-05 0)
(9.41353e-06 1.82213e-05 0)
(9.94069e-06 1.8326e-05 0)
(1.04803e-05 1.84278e-05 0)
(1.103e-05 1.85268e-05 0)
(1.15875e-05 1.86229e-05 0)
(1.21506e-05 1.8716e-05 0)
(1.2717e-05 1.88058e-05 0)
(1.32846e-05 1.8892e-05 0)
(1.38516e-05 1.89743e-05 0)
(1.4416e-05 1.90523e-05 0)
(1.49763e-05 1.91258e-05 0)
(1.5531e-05 1.91944e-05 0)
(1.60785e-05 1.92577e-05 0)
(1.66177e-05 1.93154e-05 0)
(1.71473e-05 1.9367e-05 0)
(1.76662e-05 1.94124e-05 0)
(1.81735e-05 1.9451e-05 0)
(1.86681e-05 1.94826e-05 0)
(1.91492e-05 1.95068e-05 0)
(1.96161e-05 1.95235e-05 0)
(2.00681e-05 1.95323e-05 0)
(2.05045e-05 1.95329e-05 0)
(2.09247e-05 1.95253e-05 0)
(2.13282e-05 1.95093e-05 0)
(2.17145e-05 1.94846e-05 0)
(2.20832e-05 1.94513e-05 0)
(2.24338e-05 1.94092e-05 0)
(2.27659e-05 1.93583e-05 0)
(2.30793e-05 1.92986e-05 0)
(2.33735e-05 1.923e-05 0)
(2.36483e-05 1.91526e-05 0)
(2.39033e-05 1.90664e-05 0)
(2.41382e-05 1.89715e-05 0)
(2.43527e-05 1.88678e-05 0)
(2.45466e-05 1.87554e-05 0)
(2.47195e-05 1.86344e-05 0)
(2.48712e-05 1.85048e-05 0)
(2.50013e-05 1.83666e-05 0)
(2.51096e-05 1.82199e-05 0)
(2.51957e-05 1.80646e-05 0)
(2.52593e-05 1.79009e-05 0)
(2.53e-05 1.77286e-05 0)
(2.53176e-05 1.75478e-05 0)
(2.53115e-05 1.73585e-05 0)
(2.52815e-05 1.71605e-05 0)
(2.5227e-05 1.6954e-05 0)
(2.51476e-05 1.67386e-05 0)
(2.50428e-05 1.65144e-05 0)
(2.49122e-05 1.62812e-05 0)
(2.4755e-05 1.60388e-05 0)
(2.45708e-05 1.57869e-05 0)
(2.4359e-05 1.55254e-05 0)
(2.41188e-05 1.5254e-05 0)
(2.38499e-05 1.49723e-05 0)
(2.35515e-05 1.46799e-05 0)
(2.32232e-05 1.43764e-05 0)
(2.28647e-05 1.40615e-05 0)
(2.24757e-05 1.37346e-05 0)
(2.20563e-05 1.33953e-05 0)
(2.16068e-05 1.30432e-05 0)
(2.11279e-05 1.26779e-05 0)
(2.06206e-05 1.2299e-05 0)
(2.00866e-05 1.19063e-05 0)
(1.9528e-05 1.14998e-05 0)
(2.6792e-06 1.86499e-05 0)
(3.09714e-06 1.86689e-05 0)
(3.51866e-06 1.86925e-05 0)
(3.94397e-06 1.87226e-05 0)
(4.37343e-06 1.87606e-05 0)
(4.80743e-06 1.8808e-05 0)
(5.24645e-06 1.88652e-05 0)
(5.69101e-06 1.89321e-05 0)
(6.14176e-06 1.90072e-05 0)
(6.59947e-06 1.90881e-05 0)
(7.06517e-06 1.91719e-05 0)
(7.54005e-06 1.92562e-05 0)
(8.02538e-06 1.93392e-05 0)
(8.52225e-06 1.94202e-05 0)
(9.03133e-06 1.94992e-05 0)
(9.55276e-06 1.95763e-05 0)
(1.00861e-05 1.96517e-05 0)
(1.06303e-05 1.97256e-05 0)
(1.11841e-05 1.97978e-05 0)
(1.17457e-05 1.98683e-05 0)
(1.23135e-05 1.99368e-05 0)
(1.28855e-05 2.0003e-05 0)
(1.346e-05 2.00667e-05 0)
(1.4035e-05 2.01274e-05 0)
(1.4609e-05 2.01848e-05 0)
(1.51802e-05 2.02386e-05 0)
(1.57471e-05 2.02882e-05 0)
(1.63084e-05 2.03335e-05 0)
(1.68625e-05 2.03739e-05 0)
(1.74084e-05 2.04091e-05 0)
(1.79449e-05 2.04388e-05 0)
(1.84708e-05 2.04626e-05 0)
(1.89852e-05 2.04801e-05 0)
(1.94873e-05 2.04911e-05 0)
(1.9976e-05 2.04951e-05 0)
(2.04508e-05 2.04921e-05 0)
(2.09109e-05 2.04817e-05 0)
(2.13556e-05 2.04637e-05 0)
(2.17844e-05 2.04379e-05 0)
(2.21966e-05 2.04043e-05 0)
(2.25919e-05 2.03626e-05 0)
(2.29697e-05 2.03127e-05 0)
(2.33295e-05 2.02546e-05 0)
(2.36711e-05 2.01883e-05 0)
(2.39939e-05 2.01136e-05 0)
(2.42977e-05 2.00306e-05 0)
(2.4582e-05 1.99392e-05 0)
(2.48466e-05 1.98395e-05 0)
(2.50911e-05 1.97314e-05 0)
(2.53151e-05 1.9615e-05 0)
(2.55185e-05 1.94903e-05 0)
(2.57008e-05 1.93572e-05 0)
(2.58617e-05 1.92158e-05 0)
(2.6001e-05 1.90662e-05 0)
(2.61184e-05 1.89082e-05 0)
(2.62135e-05 1.8742e-05 0)
(2.6286e-05 1.85674e-05 0)
(2.63356e-05 1.83844e-05 0)
(2.6362e-05 1.81931e-05 0)
(2.63648e-05 1.79933e-05 0)
(2.63437e-05 1.77851e-05 0)
(2.62983e-05 1.75683e-05 0)
(2.62283e-05 1.73429e-05 0)
(2.61332e-05 1.71087e-05 0)
(2.60125e-05 1.68656e-05 0)
(2.58659e-05 1.66135e-05 0)
(2.56929e-05 1.63522e-05 0)
(2.5493e-05 1.60814e-05 0)
(2.52656e-05 1.5801e-05 0)
(2.50103e-05 1.55106e-05 0)
(2.47266e-05 1.521e-05 0)
(2.4414e-05 1.48987e-05 0)
(2.40722e-05 1.45764e-05 0)
(2.37008e-05 1.42427e-05 0)
(2.32999e-05 1.38971e-05 0)
(2.28693e-05 1.35392e-05 0)
(2.24096e-05 1.31686e-05 0)
(2.19214e-05 1.2785e-05 0)
(2.14058e-05 1.23879e-05 0)
(2.08643e-05 1.19771e-05 0)
(2.73763e-06 2.02887e-05 0)
(3.18879e-06 2.03109e-05 0)
(3.64482e-06 2.03356e-05 0)
(4.10576e-06 2.0364e-05 0)
(4.57173e-06 2.03967e-05 0)
(5.04292e-06 2.04345e-05 0)
(5.51958e-06 2.04774e-05 0)
(6.00204e-06 2.0525e-05 0)
(6.4907e-06 2.05763e-05 0)
(6.98609e-06 2.06301e-05 0)
(7.48886e-06 2.06853e-05 0)
(7.99971e-06 2.07409e-05 0)
(8.51934e-06 2.07961e-05 0)