/*--------------------------------*- C++ -*----------------------------------*\
  =========                 |
  \\      /  F ield         | OpenFOAM: The Open Source CFD Toolbox
   \\    /   O peration     | Website:  https://openfoam.org
    \\  /    A nd           | Version:  7
     \\/     M anipulation  |
\*---------------------------------------------------------------------------*/
FoamFile
{
    version     2.0;
    format      ascii;
    class       surfaceScalarField;
    location    "3000";
    object      alphaPhi;
}
// * * * * * * * * * * * * * * * * * * * * * * * * * * * * * * * * * * * * * //

dimensions      [0 3 -1 0 0 0 0];

internalField   nonuniform List<scalar> 
319200
(
-3.23339e-18
3.04338e-17
-7.75342e-20
4.58493e-18
-2.22018e-16
-2.21908e-17
-2.97324e-16
1.56313e-18
-3.5238e-16
-3.40032e-17
-4.92653e-16
-4.56459e-17
-6.26921e-16
-6.66218e-17
-6.05115e-16
-4.97713e-18
-7.47626e-16
4.48965e-17
-8.46137e-16
8.6815e-18
-8.901e-16
-1.46732e-17
-9.60478e-16
1.52454e-17
-1.08495e-15
-1.11137e-16
-6.50229e-16
-1.67637e-16
-4.02814e-16
-1.12798e-16
-6.99116e-16
-6.15912e-17
-8.11879e-16
-9.14356e-17
-1.04268e-15
5.36982e-17
-9.00514e-16
1.36039e-16
-7.4263e-16
1.16492e-16
-1.45279e-15
6.51752e-17
-1.63552e-15
8.99248e-17
-9.51921e-16
6.16349e-17
-1.14636e-15
9.03072e-17
-2.24605e-15
3.95893e-17
-2.39828e-15
-2.23568e-16
-1.32265e-15
-2.17025e-16
-5.09606e-16
-1.1031e-16
-4.45938e-16
-5.62398e-17
-3.78495e-16
-2.34611e-18
-1.24906e-17
1.36223e-16
-3.6446e-16
1.51567e-16
-6.47931e-16
5.17374e-17
-1.67367e-15
-3.19374e-17
-2.64105e-15
-7.22097e-17
-2.78332e-15
-1.43777e-17
-1.37616e-15
4.81281e-17
-7.90521e-16
-1.59111e-16
-3.3486e-16
-1.23632e-16
5.79105e-17
8.06651e-17
-1.25809e-15
1.20742e-16
-2.44287e-15
5.85045e-17
-2.6364e-15
-5.57822e-17
-1.21277e-15
-9.09573e-17
-3.13049e-16
-6.31412e-17
-1.52227e-16
-1.16268e-17
-2.03718e-16
6.03559e-17
-9.12237e-16
-5.60829e-17
-1.69608e-15
-8.97371e-17
-2.61085e-15
1.33303e-16
-3.48638e-15
5.82387e-16
-2.17095e-15
1.01814e-16
-1.05563e-15
-2.16193e-16
1.74151e-16
-3.46386e-17
-2.79405e-16
-2.38062e-17
-2.08555e-16
-1.39847e-16
-8.92538e-17
-2.18711e-16
-5.69105e-16
-1.41184e-16
-7.74749e-16
1.00511e-16
-9.93302e-16
2.1612e-16
-7.84079e-16
2.43101e-17
-6.30703e-16
-1.91738e-16
-5.87774e-16
-8.08209e-17
-5.87491e-16
-3.6332e-17
-7.88821e-16
1.29131e-16
-8.53263e-16
8.07566e-17
-7.73376e-16
-1.67303e-16
-1.88503e-15
-3.86069e-16
-1.1735e-15
-3.51866e-16
-1.04272e-15
2.33157e-16
-2.02863e-15
3.29236e-16
-1.79798e-15
2.39711e-16
-4.3988e-16
1.10919e-16
-3.24144e-16
-1.66351e-17
-3.84177e-16
-5.27129e-17
-3.19104e-16
6.28043e-18
-5.07636e-16
7.06997e-17
-1.16577e-15
3.43609e-17
-4.56591e-16
3.29908e-17
-5.70384e-16
2.24745e-17
-6.85196e-16
1.42817e-16
-8.30399e-16
-7.21239e-17
-8.6806e-16
-2.6518e-16
-6.25925e-16
-3.31232e-16
-4.08392e-16
-9.38367e-17
-4.00183e-16
9.27162e-17
-4.25615e-16
1.13986e-16
-5.2898e-16
6.17979e-17
-5.63798e-16
-1.04892e-17
-9.08215e-16
-9.97527e-17
-1.62375e-15
7.60677e-17
-1.09319e-15
5.8302e-17
-1.18906e-15
1.89951e-17
-2.68233e-16
5.19892e-17
-1.05257e-15
-1.03613e-16
-5.61012e-16
-7.8398e-17
-1.29261e-15
-6.20281e-17
-3.47953e-16
-1.71617e-17
-8.04638e-16
3.4979e-17
-3.95547e-16
-2.68819e-17
-8.29826e-16
8.13906e-19
-1.08179e-15
1.50583e-16
-1.01964e-15
-1.16023e-16
-7.80229e-16
-1.77021e-16
-1.01944e-15
1.67252e-16
-9.52375e-16
3.9825e-17
-1.00695e-15
-1.60436e-17
-3.27872e-17
1.51143e-16
-8.85441e-17
1.42405e-16
1.39719e-16
1.15526e-16
-1.44105e-15
1.24837e-16
-1.05111e-15
1.18424e-16
-1.66362e-15
-1.73067e-18
-9.15954e-16
-2.00616e-16
-8.66881e-16
-1.40468e-16
-8.79398e-16
-9.92219e-17
-1.14828e-15
-5.20634e-17
-7.657e-16
2.97731e-17
-4.70992e-16
-1.36339e-16
-4.26767e-16
-1.69988e-16
-4.09871e-16
1.28015e-16
-3.16759e-16
2.3444e-16
-3.47814e-16
2.36951e-16
-3.53866e-16
2.19434e-16
7.6642e-17
1.70731e-16
4.16725e-16
-2.22681e-17
-5.25628e-16
-1.70405e-16
-8.3599e-16
-1.51899e-16
-8.78805e-16
-6.00705e-18
-9.35765e-16
7.3558e-18
-1.44881e-15
-9.42254e-17
-1.7134e-15
-1.37718e-16
-6.95039e-16
1.89308e-17
-3.01397e-16
8.2299e-17
-4.0678e-17
-7.32055e-17
-4.3841e-16
-3.44961e-16
-4.04142e-16
-7.65369e-17
-6.84621e-16
2.34871e-16
-1.15746e-15
-1.13035e-17
-9.58316e-16
4.48731e-18
-1.19308e-15
-8.38488e-17
-1.00302e-15
-1.54862e-16
-1.05767e-15
-2.14718e-18
-2.26679e-15
1.8797e-16
-2.82494e-16
2.36455e-16
-2.16932e-15
-2.26982e-18
-1.69806e-16
-4.13664e-17
-1.8642e-15
-3.3822e-17
-5.91268e-16
-1.24483e-16
-6.21543e-16
-2.57868e-16
-8.46788e-16
2.16545e-17
-5.91912e-16
2.23388e-16
-5.95765e-16
3.03796e-17
-5.34018e-16
-2.96412e-17
-5.10004e-16
1.77751e-18
-2.41715e-16
5.11756e-17
1.15144e-16
1.58251e-16
-1.8898e-16
4.60389e-17
-3.34917e-16
-4.08204e-17
-6.50915e-16
-1.27925e-16
-5.07498e-16
-1.07306e-16
-3.44421e-16
1.94258e-17
-4.92757e-16
1.0585e-16
-5.5273e-16
9.85399e-18
-9.72305e-16
-6.95627e-17
-4.61002e-16
-9.24126e-17
-6.13743e-16
-7.52152e-17
-3.25347e-16
2.85038e-17
-3.46267e-16
7.56124e-17
2.75829e-16
1.69003e-16
1.81117e-15
1.07762e-16
4.02819e-16
-9.39135e-18
-3.4106e-16
-8.24157e-18
-3.73992e-16
-8.03912e-17
-9.31713e-16
-5.51985e-17
-1.28742e-15
-1.70997e-16
-5.78533e-16
1.10257e-16
-6.0858e-16
1.60328e-16
-7.52089e-16
5.29993e-17
-9.81206e-16
-9.11668e-17
-1.18539e-15
-5.37214e-17
-8.41742e-16
-7.94154e-17
-7.47938e-16
-1.54733e-16
-6.26111e-16
-1.78056e-16
-4.6638e-16
-6.43448e-17
-1.66334e-16
5.55517e-17
-2.56684e-17
5.12839e-17
-3.08236e-16
-1.05683e-17
-5.32084e-16
-4.81505e-17
2.0578e-16
-7.03894e-17
4.19522e-16
-1.93647e-16
4.99584e-16
-2.71477e-16
1.16682e-15
-2.18378e-16
3.03463e-15
-1.04347e-16
9.45102e-16
1.78161e-17
-1.38765e-15
-1.47774e-17
9.35347e-16
2.7576e-16
1.23854e-14
-1.83615e-15
2.34612e-14
-3.26083e-15
2.0838e-15
-6.71401e-16
9.81557e-15
7.80154e-17
3.30276e-15
7.04926e-18
5.11528e-16
-2.95146e-17
-1.37924e-15
-1.51154e-16
-3.28689e-17
-8.5367e-17
3.14464e-15
2.18976e-16
6.5224e-15
1.04702e-16
4.93979e-15
-1.21595e-16
2.25604e-15
-7.4463e-17
1.21759e-15
2.00436e-17
1.0208e-15
2.50817e-17
8.66632e-16
-2.12055e-17
3.63944e-16
-8.17845e-20
7.30198e-17
4.19563e-17
-8.93327e-17
-9.71126e-18
-8.5578e-17
-2.37783e-17
-7.474e-16
4.56693e-17
-1.27101e-16
8.96742e-17
7.08437e-16
2.24241e-17
7.51156e-16
1.7166e-17
1.69861e-16
-2.18251e-17
-2.9668e-16
-7.57501e-17
-6.21483e-16
-1.01687e-16
-4.75556e-16
-5.66594e-17
-3.41117e-16
-4.21289e-17
-2.21482e-16
6.85573e-19
-1.02417e-16
1.52263e-17
3.68127e-17
2.26057e-17
1.66686e-16
1.0847e-17
-6.05851e-17
-4.35537e-18
-2.32849e-16
-1.1601e-18
-1.05538e-16
-1.11708e-17
-2.92106e-17
1.91635e-18
3.5126e-17
2.67614e-17
1.03657e-16
3.55254e-17
-3.04073e-17
1.71079e-17
-2.68909e-17
1.00958e-17
-4.31525e-17
7.90744e-18
-4.94124e-17
1.13187e-17
-3.85828e-17
1.17064e-17
-5.24734e-17
7.07984e-18
-4.31083e-17
5.95846e-18
-2.82834e-17
1.3206e-17
-1.73718e-17
1.2862e-17
-7.71858e-18
1.51153e-17
-4.96176e-18
1.02253e-17
2.70772e-18
6.06318e-18
-4.82444e-17
3.83526e-17
-3.71945e-16
9.04746e-17
-3.05727e-16
-3.12101e-19
-5.55119e-16
-2.14974e-17
-2.73608e-16
-1.86137e-18
-3.82562e-16
-4.10078e-17
-2.50095e-16
-2.8569e-17
-1.0285e-16
-1.25587e-18
2.70846e-17
6.24489e-18
1.48941e-16
1.3457e-17
2.55778e-16
-6.38046e-18
3.43365e-16
-8.22685e-17
7.23807e-16
9.63568e-18
-3.66125e-17
-1.40203e-17
5.36459e-16
1.22071e-16
1.38055e-16
6.65248e-17
2.66366e-16
6.20381e-17
3.68885e-16
1.64734e-17
4.22384e-16
-3.10434e-17
4.9527e-16
-1.45141e-18
4.89007e-16
2.31494e-17
8.42729e-16
-3.66403e-18
3.23214e-16
5.77688e-18
7.44988e-16
9.09526e-17
-9.84337e-19
-1.70182e-18
5.01981e-16
-3.10527e-17
1.74908e-16
6.62105e-19
4.84569e-16
3.56479e-17
5.3166e-16
5.20051e-17
8.97113e-16
2.95712e-17
-1.69083e-16
-2.82024e-17
7.78422e-16
3.37543e-17
2.42562e-16
2.38325e-17
1.82527e-16
2.08681e-17
2.52333e-16
1.70334e-17
5.67128e-16
5.67837e-17
2.71777e-16
1.51842e-17
9.30578e-16
-3.13608e-17
1.9488e-16
-1.60097e-16
1.3309e-15
-1.0195e-16
8.90298e-16
-5.35697e-17
9.53543e-16
7.24503e-17
8.20908e-16
2.68198e-16
6.35532e-16
2.70252e-16
5.74797e-16
1.20945e-16
6.43441e-16
-7.49727e-17
6.80951e-16
-1.51062e-16
6.49951e-16
-1.51246e-16
5.72026e-16
-5.5531e-17
4.77132e-16
-1.0241e-16
4.89585e-16
-4.45683e-18
5.12175e-16
1.16677e-19
4.8482e-16
2.55131e-16
-2.06767e-15
2.93741e-15
-7.44576e-15
2.35344e-15
-1.54187e-15
6.4899e-16
-6.76753e-15
6.83538e-18
-1.41498e-15
-1.15089e-17
-2.24216e-15
-2.26213e-18
-1.84113e-15
1.7192e-18
-1.31449e-15
-8.54397e-17
-7.76647e-16
-4.1682e-17
-1.8518e-16
2.89301e-18
4.08438e-16
3.78623e-17
7.82372e-16
1.24997e-16
9.2706e-16
1.60401e-16
6.55881e-16
1.31612e-16
1.92272e-15
-6.52796e-17
-2.22145e-16
-1.78968e-16
1.48235e-15
-8.65518e-18
5.01558e-16
5.84747e-17
1.35608e-15
8.94002e-17
1.4871e-15
1.32367e-16
1.68758e-15
8.85837e-17
1.79533e-15
1.0538e-16
1.55496e-15
1.91506e-16
2.99124e-15
1.33369e-17
-4.53604e-16
-5.3759e-17
8.54337e-16
1.35485e-15
-4.60726e-15
4.14119e-17
5.21556e-16
-6.83783e-18
-3.51579e-15
-1.13649e-16
1.03535e-15
6.2322e-17
-1.48621e-15
-3.91245e-17
8.59428e-16
-1.26262e-16
-7.90678e-16
-3.19054e-17
9.19303e-16
-1.09296e-16
3.52279e-16
-1.9725e-16
1.14782e-15
-3.56606e-17
1.38943e-15
-1.3875e-16
1.81588e-15
-2.32685e-16
1.78847e-15
7.31352e-17
1.93969e-15
-1.0665e-16
1.8651e-15
1.02324e-16
1.93134e-15
-3.69578e-17
2.01951e-15
-5.90552e-17
2.05158e-15
-1.8247e-18
1.5553e-15
2.00318e-16
3.18128e-15
4.6472e-16
6.34282e-16
-7.9663e-17
3.61607e-15
1.01962e-15
-5.80591e-16
-3.12721e-16
2.73565e-15
-6.37678e-17
1.10644e-16
3.30842e-17
1.23282e-15
1.52978e-16
1.08097e-15
3.19298e-16
9.458e-16
1.44508e-16
1.06094e-15
-1.054e-16
1.07848e-15
-7.07606e-18
-3.63688e-16
9.5698e-18
2.29553e-15
-7.51644e-20
-1.74243e-16
-2.48394e-17
2.07558e-15
7.23173e-17
1.44935e-15
7.04478e-17
1.4457e-15
3.78349e-17
1.43602e-15
1.51895e-17
1.65836e-15
1.1874e-17
-7.24513e-16
-2.61538e-16
1.73515e-15
1.94443e-16
5.12584e-16
-1.02545e-16
5.59869e-15
-1.20961e-16
1.34589e-16
1.50511e-16
7.96773e-16
1.458e-16
-7.22557e-17
-2.58666e-16
1.70727e-15
-4.01458e-16
1.59868e-15
-5.10406e-16
2.29177e-15
3.22535e-17
1.67524e-15
2.1648e-16
1.98707e-15
3.0753e-16
1.07539e-15
5.72893e-16
8.7676e-16
2.83212e-16
7.8958e-16
1.42205e-16
6.68687e-16
1.13891e-16
6.40276e-16
2.04411e-17
5.73776e-16
5.92092e-17
7.76729e-16
-2.47765e-16
1.13993e-15
-3.91312e-16
1.29099e-15
-2.46512e-16
1.34823e-15
-8.32939e-17
1.28354e-15
-7.11704e-17
1.09081e-15
1.66424e-16
8.60477e-16
2.70747e-16
8.30405e-16
3.19784e-17
8.77618e-16
-4.68358e-17
8.85972e-16
-7.17854e-18
1.05593e-15
-1.53052e-16
1.20422e-15
-1.13419e-16
1.45818e-15
-1.92356e-16
1.70726e-15
-1.60466e-16
1.72597e-15
-1.12739e-18
1.84414e-15
-1.06788e-16
2.26314e-15
-1.25144e-16
3.28445e-17
-5.68754e-17
-5.2539e-17
-1.01403e-16
-4.96402e-17
3.49375e-17
-8.50994e-17
-1.40152e-16
-4.80671e-17
-2.92449e-16
-3.69303e-17
-4.33184e-16
-2.3041e-17
-3.23581e-16
-5.28065e-17
-3.91399e-16
-2.65116e-17
-4.36842e-16
-9.92189e-20
-4.71933e-16
-3.97955e-17
-6.02682e-16
-3.17147e-17
-6.25708e-16
5.48096e-18
-5.59831e-16
-6.71017e-17
-3.37158e-16
-1.3706e-16
-5.91292e-16
-1.21601e-16
-4.18468e-16
-4.7672e-17
-9.23983e-16
9.52672e-17
-6.56208e-16
1.8875e-16
-4.94976e-16
-2.17966e-17
-4.60938e-16
-4.68865e-17
-1.01438e-15
3.07598e-18
-6.48658e-16
1.47658e-16
5.96111e-17
1.73416e-17
-1.36907e-15
-4.36602e-17
-1.19479e-15
3.19017e-17
-7.74665e-16
2.52175e-17
-7.10856e-16
-2.91908e-17
-4.14781e-16
-1.62846e-16
-1.26544e-16
-6.9621e-17
-4.69566e-17
6.4727e-17
-6.70001e-17
-9.21864e-17
-1.04483e-16
-5.60446e-17
-2.17666e-16
-3.32078e-17
-7.64606e-16
2.98355e-17
-1.79856e-15
1.19825e-16
-8.02957e-16
1.27989e-16
-9.10287e-16
-1.82615e-17
-6.45548e-16
-4.70264e-17
-3.30406e-16
-6.38209e-17
2.93604e-16
-1.28144e-16
-5.37051e-16
-1.54194e-16
-1.48215e-15
-4.54707e-17
-1.82806e-15
-1.0763e-16
-8.20279e-16
-1.07933e-16
-6.30333e-16
1.48438e-16
-6.01749e-16
1.22614e-16
-3.35739e-16
-6.29974e-17
-3.17884e-16
-9.42789e-17
-8.38149e-16
-8.33116e-17
-1.25301e-15
-1.82358e-17
-1.34514e-15
3.06717e-16
-6.36306e-16
1.15559e-16
-1.35703e-15
4.27044e-17
-1.76386e-15
-1.29256e-16
-1.03724e-15
-3.06211e-16
-6.78231e-16
-1.82861e-16
-4.09379e-16
-1.25013e-16
-4.61475e-16
-7.40817e-17
-5.65659e-16
2.0142e-16
-3.47946e-16
1.98686e-16
-3.7734e-16
1.49356e-17
-5.25203e-16
-8.44171e-17
-6.56443e-16
1.42844e-17
-7.58441e-16
9.42721e-17
-6.22457e-16
2.49745e-17
-6.76798e-16
1.66215e-16
-1.09789e-15
2.66304e-16
-1.81458e-15
2.38265e-16
-1.93113e-15
2.27752e-16
-1.7439e-15
5.80284e-17
-1.17477e-15
-2.78266e-16
-7.13106e-16
-2.19435e-16
-5.23804e-16
-8.29435e-17
-6.45353e-16
-3.39311e-17
-6.11859e-16
-8.30445e-18
-6.70904e-16
-1.22249e-16
-6.76525e-16
-1.7771e-16
-8.92648e-16
-8.93809e-17
-1.34836e-15
1.47869e-16
-5.89756e-16
7.91829e-17
-5.73523e-16
-7.29919e-17
-6.40102e-16
-2.47593e-17
-1.38212e-15
1.51091e-16
-1.65802e-15
8.58562e-17
-1.58582e-15
-9.03073e-17
-1.10377e-15
-3.64009e-16
-6.23253e-16
-2.38974e-16
-1.87081e-16
1.1546e-16
-2.33782e-17
1.7832e-16
-1.45539e-15
1.80009e-16
-1.24192e-16
2.2576e-16
-7.23039e-16
1.88808e-16
3.32239e-18
5.95337e-18
-6.24664e-16
-1.15522e-16
-4.50732e-16
-1.31128e-16
-2.91097e-16
-1.26052e-16
-1.65885e-16
-1.67402e-16
-4.5118e-18
-1.52637e-16
-4.33939e-16
-9.15408e-17
-1.25032e-15
3.52741e-17
-5.71047e-16
-7.03672e-17
-1.15236e-15
-1.25956e-16
-1.5727e-15
1.95388e-16
-9.54547e-16
-1.98212e-17
-5.67171e-16
-1.51851e-16
-7.82939e-16
1.76487e-16
-7.70772e-16
8.68869e-17
-6.14486e-16
-1.04253e-16
-5.29777e-18
-1.62528e-16
-8.42353e-16
-1.23753e-16
-6.04485e-16
-9.78156e-17
-1.0956e-15
-8.23466e-17
-6.62304e-16
6.76939e-17
-7.70646e-16
-2.51248e-17
-7.33041e-16
-3.3425e-17
-6.51327e-16
1.31314e-17
-4.20557e-16
2.74474e-17
-5.04777e-17
1.00201e-16
3.29486e-16
1.76576e-16
3.73306e-16
1.27838e-16
4.49335e-16
-8.79416e-17
1.54537e-16
-1.63246e-16
3.5204e-17
-5.0773e-18
-1.80141e-16
1.73451e-17
-2.41031e-16
5.74897e-17
-3.34573e-16
2.05737e-17
-7.31216e-16
-6.14756e-17
-6.15241e-16
-2.40051e-17
-4.36073e-16
-5.2914e-17
-6.98103e-16
-1.87409e-16
-1.38271e-15
-1.37854e-16
-2.18068e-15
3.03069e-16
-1.96712e-15
3.03158e-16
-1.73862e-15
-1.25511e-17
-1.62257e-15
-6.9397e-17
-1.34675e-15
7.44925e-17
-8.73461e-16
-2.7399e-16
-9.20124e-16
-3.14311e-16
-1.12755e-15
-3.85649e-17
-1.00947e-15
-3.03379e-17
-7.13421e-16
-1.43161e-16
-7.29165e-16
4.78467e-17
-9.45517e-16
1.45116e-16
3.13272e-16
7.78441e-18
-4.70269e-16
1.49892e-17
-3.41142e-16
8.41989e-17
-3.14678e-16
6.95984e-18
-6.44334e-16
-4.1001e-17
-1.09099e-15
-1.81251e-17
-1.18681e-15
3.72069e-17
-1.34326e-15
-4.54038e-17
-1.03995e-15
-1.81112e-16
-6.78487e-16
-1.55893e-16
-4.30287e-16
1.73452e-17
-7.03324e-16
2.39325e-16
-4.76238e-16
1.4929e-16
-6.56004e-16
1.19117e-16
-4.32127e-16
1.40678e-16
-6.41352e-16
9.59906e-17
-5.15184e-16
4.9622e-17
-3.02859e-16
-2.36267e-17
1.04938e-16
-7.17917e-17
-1.59706e-16
-6.45679e-17
-4.83193e-16
-2.35421e-17
-8.25442e-16
4.45727e-17
-1.03402e-15
7.26402e-17
-6.80829e-16
-3.87784e-17
-5.33318e-16
-1.23748e-16
3.37067e-16
-8.69515e-17
4.12894e-16
-1.30412e-16
3.8676e-16
-8.91985e-17
-5.39432e-16
1.07758e-16
-1.5045e-15
3.06876e-16
-8.14882e-16
1.4778e-16
-1.02179e-15
-1.74529e-16
-5.91124e-16
-2.78581e-16
-4.60011e-16
-4.43565e-17
-4.5731e-16
1.0934e-16
-4.01464e-16
7.02351e-17
-7.39607e-16
-1.22064e-17
-4.50707e-16
5.87407e-17
-6.7178e-16
-1.06019e-16
-1.10028e-15
-2.55139e-16
-9.64563e-16
-7.91553e-17
-6.28854e-16
-7.3278e-18
-2.68628e-16
-5.76553e-17
-3.96422e-16
-8.55007e-17
-1.59278e-15
-5.53359e-17
3.9449e-16
1.81162e-16
3.92651e-15
-8.67222e-16
8.50528e-15
-1.39942e-15
6.42149e-15
-1.4093e-15
2.72775e-15
2.46896e-16
6.14203e-16
-1.9797e-16
-8.71811e-16
-3.33138e-17
3.9559e-15
6.93329e-17
1.58956e-14
-9.40631e-16
3.02217e-14
-3.59325e-15
2.26418e-14
-2.47308e-15
5.99486e-15
-3.37431e-16
1.09896e-15
-5.74231e-18
-1.05994e-15
-5.73135e-18
-7.54148e-16
6.31356e-17
-1.27716e-15
1.1028e-16
6.16614e-16
-5.52997e-17
6.95283e-16
1.06335e-16
3.78064e-15
1.53985e-16
9.55512e-16
-2.90433e-17
-1.02083e-16
5.46881e-17
-1.60276e-16
1.63946e-18
-1.24064e-16
-2.7283e-17
-3.86729e-16
5.03092e-17
-5.66511e-16
5.92357e-17
-3.74738e-16
-3.23872e-18
-3.59645e-16
1.90161e-17
-5.56057e-16
4.00242e-17
-2.84109e-16
5.80122e-17
-6.4407e-18
2.37799e-17
-8.25716e-17
-1.17165e-17
-2.55049e-16
-2.36884e-17
-4.01719e-16
-3.14505e-18
-5.8542e-16
3.9823e-18
-6.50164e-16
-2.1511e-17
-6.31569e-16
-2.30279e-17
-4.41875e-16
-2.97636e-17
-2.70387e-16
-1.57467e-17
-2.65072e-16
-2.77812e-17
-1.11527e-16
-1.44654e-17
-1.70509e-16
3.56146e-17
-5.80527e-17
3.99353e-17
-1.10297e-16
2.55829e-17
-3.33744e-17
2.07281e-17
3.9869e-16
6.3129e-18
8.39087e-17
-1.98927e-17
-9.34518e-17
2.04641e-17
-6.55888e-17
3.64179e-17
-8.89468e-17
2.20436e-17
-6.68917e-17
1.38952e-17
-7.11086e-17
6.11858e-18
-7.07449e-17
1.14551e-17
-7.70305e-17
1.33359e-17
-7.86569e-17
2.14361e-17
-4.63007e-17
3.12603e-17
-3.61648e-17
2.35249e-17
-3.25933e-17
2.32402e-17
-1.55808e-17
1.70348e-17
-3.74778e-17
-2.35257e-17
-4.73499e-16
-1.4483e-16
-7.14892e-17
-1.36413e-17
-3.34014e-16
-1.83132e-17
-5.95408e-17
1.03244e-17
-2.04449e-16
-3.78065e-17
-9.70629e-17
-2.80257e-18
-1.6665e-17
2.16797e-17
5.22993e-17
1.40205e-17
1.21499e-16
1.94875e-17
2.01725e-16
1.61257e-17
2.32199e-16
-3.7334e-18
1.4572e-16
3.18698e-18
-1.03531e-16
3.09354e-17
4.56496e-16
8.02468e-17
3.17143e-16
6.22513e-17
4.34293e-16
6.7296e-17
5.01803e-16
8.6114e-17
4.32944e-16
1.11934e-16
3.9295e-16
6.46391e-17
4.28788e-16
-1.90252e-17
6.436e-16
-8.96371e-17
2.07889e-16
-2.71671e-17
7.03462e-16
8.62501e-17
1.53197e-17
-3.40666e-18
6.47317e-16
2.61604e-17
2.11631e-16
2.92836e-17
5.88327e-16
2.78781e-17
5.20504e-16
7.37009e-18
6.00773e-16
3.93131e-17
-2.2641e-16
7.9789e-17
6.97134e-16
6.47988e-17
-1.70081e-16
-8.85928e-19
9.97191e-17
1.63468e-17
6.62557e-17
7.46115e-18
7.5358e-16
-3.60373e-17
-4.26447e-16
-6.73315e-17
1.20921e-15
-2.07911e-18
1.75471e-16
5.9962e-17
1.0038e-15
2.58254e-17
4.37066e-16
-6.12861e-17
6.41082e-16
-1.87576e-17
7.87709e-16
3.1366e-17
9.56158e-16
1.98149e-16
1.01481e-15
2.93641e-16
1.12213e-15
1.07638e-16
1.13315e-15
-6.20852e-18
7.50594e-16
1.14185e-18
4.79115e-16
-6.40114e-17
4.28224e-16
-2.73648e-16
2.69309e-16
-3.25293e-16
-2.32776e-16
2.39921e-17
-4.64872e-16
3.4944e-17
-2.47616e-15
1.43784e-15
-7.08354e-15
6.31402e-15
2.15596e-16
9.90346e-16
-3.53277e-15
-1.2004e-17
-1.26899e-15
2.56043e-17
-8.23712e-16
-6.56278e-18
-2.53473e-16
-3.20438e-17
3.19717e-16
-7.77572e-17
6.46352e-16
3.20824e-17
8.23072e-16
1.23293e-16
9.50809e-16
1.53826e-16
1.09275e-15
1.11734e-16
1.21587e-15
1.15844e-16
1.22145e-15
2.14893e-17
1.1485e-15
4.99834e-17
-2.81683e-16
1.26951e-16
1.31469e-15
1.32913e-16
5.47752e-16
-4.92099e-17
1.33968e-15
-8.08117e-17
1.60401e-15
2.17514e-17
1.81525e-15
1.763e-16
1.9021e-15
2.19451e-16
2.04889e-15
-4.15192e-17
3.90176e-15
-2.45689e-16
4.70546e-16
-1.37808e-16
2.10321e-15
1.62771e-15
-3.54058e-15
7.49036e-16
9.03947e-16
-1.62441e-16
-3.31046e-16
9.79612e-17
9.61602e-16
8.7944e-17
3.74863e-16
1.05482e-16
3.04682e-16
2.74467e-16
3.68034e-16
-7.13626e-18
6.34739e-16
-1.14501e-16
8.15543e-16
-2.26108e-16
8.20076e-16
-9.59678e-17
9.10622e-16
-8.64312e-17
1.04344e-15
-1.92456e-16
1.0287e-15
-1.34422e-16
1.20286e-15
9.80612e-18
1.27492e-15
-4.79713e-17
1.49146e-15
6.22631e-18
1.24382e-15
2.53581e-16
9.56513e-16
1.52612e-16
6.24428e-16
5.5738e-17
2.41e-15
3.22386e-16
2.26407e-16
2.34012e-16
1.28635e-15
2.96364e-16
-3.61763e-16
4.34667e-16
2.64824e-15
-7.3902e-17
3.00067e-16
9.50996e-18
1.54652e-15
7.47324e-17
1.58622e-15
1.18374e-16
1.81261e-15
2.18324e-16
1.85684e-15
1.09382e-16
1.52544e-15
2.3597e-16
1.25318e-15
2.74025e-16
1.15702e-15
1.14568e-16
1.23179e-15
-6.79232e-17
1.37724e-15
-1.33178e-16
1.47398e-15
-4.58873e-17
1.48251e-15
8.49622e-17
1.33754e-15
1.70181e-16
1.3289e-15
-2.52887e-17
1.37176e-16
-5.03579e-16
2.75523e-15
-1.66978e-16
-1.49186e-16
1.56492e-16
2.47407e-15
-1.43946e-16
1.416e-15
-3.41159e-17
2.17772e-15
1.8974e-16
1.38752e-15
2.34372e-16
1.35078e-15
-2.19673e-16
1.42574e-15
-6.474e-16
1.46694e-15
-5.17377e-16
1.52286e-15
-8.71914e-17
1.59999e-15
3.23256e-17
1.88122e-15
6.91997e-17
2.35326e-15
2.69408e-16
2.1224e-15
5.03377e-16
1.74185e-15
5.33525e-16
1.79849e-15
4.98462e-17
1.91473e-15
-5.25798e-17
2.00274e-15
3.52766e-18
1.83715e-15
-9.5576e-18
1.30383e-15
-1.6728e-16
1.58741e-15
-3.38536e-16
1.16217e-15
-5.62378e-17
1.16824e-15
1.83489e-16
1.25053e-15
5.55143e-17
1.61359e-15
-1.56358e-16
1.6734e-15
-1.01041e-16
1.63972e-15
-6.28927e-18
1.77604e-15
-1.36249e-16
1.71759e-15
-8.5846e-17
1.55799e-15
8.65647e-18
1.58979e-15
-2.60527e-16
1.51656e-15
-7.49566e-17
1.35023e-15
9.61361e-17
1.45089e-15
2.43096e-17
1.59955e-15
-1.11086e-16
-4.61948e-17
-5.00946e-17
-9.61321e-17
-1.51329e-16
-6.75422e-18
-9.24766e-17
4.74995e-18
-2.20519e-17
-8.17437e-18
-5.95717e-17
1.0902e-17
-1.75401e-16
-5.58784e-18
-1.58983e-16
2.22617e-18
-1.87479e-16
5.24117e-18
-1.73192e-16
2.61235e-17
-1.36923e-17
6.21594e-17
-3.96932e-16
2.65756e-17
-2.57084e-16
-7.25608e-18
-1.53324e-16
-4.77782e-17
-3.44962e-16
3.71944e-20
-1.92533e-16
6.58097e-18
-4.16619e-18
-1.14831e-17
8.28799e-17
-4.97761e-17
-3.48179e-16
-3.77848e-17
-3.19675e-16
-4.7516e-17
-3.28429e-16
-3.4926e-17
-2.17453e-16
-8.55024e-17
-2.42648e-16
-4.75557e-17
-4.09525e-16
-1.72004e-17
-4.21263e-16
-8.84912e-17
-3.11641e-16
9.21402e-17
-3.54168e-16
1.41168e-16
-3.28038e-16
2.11007e-17
-5.09399e-16
3.56976e-17
-5.04094e-16
7.72549e-17
-2.02449e-16
-1.0667e-16
-6.48033e-17
-6.56028e-17
1.55461e-16
-1.03295e-16
1.47841e-16
-1.69431e-16
-4.3029e-16
-2.22795e-16
-9.43224e-16
-5.03084e-17
-2.94609e-16
5.07111e-17
-1.82679e-16
-3.53714e-17
-3.81288e-16
-1.04953e-16
-4.30463e-16
-1.54832e-16
-3.9726e-16
-1.56957e-16
-3.17363e-16
4.06546e-17
-3.05404e-16
9.62203e-17
-4.46533e-16
5.90073e-17
-6.75152e-16
8.37595e-17
-3.5077e-16
-3.86963e-17
-6.15189e-16
-1.36014e-16
-6.72205e-16
1.09748e-17
-8.06719e-16
9.20428e-17
-1.1024e-15
1.63793e-16
-1.08364e-15
-9.24396e-17
-6.41548e-16
-1.82917e-16
-5.96238e-16
6.01237e-17
-5.70821e-16
8.67646e-17
-2.63544e-16
3.67019e-17
-1.06448e-16
1.96737e-16
3.68938e-16
2.20196e-16
3.79751e-16
1.09554e-16
-3.62416e-16
-9.94991e-18
-5.95819e-16
-2.98628e-16
-7.14303e-16
-2.6502e-16
-5.50872e-16
-8.17895e-17
-4.97944e-16
9.07822e-17
-3.26603e-16
9.89328e-17
-7.35435e-16
-3.87558e-17
-8.22747e-16
7.4794e-18
-6.64818e-16
-1.16273e-16
-5.89038e-16
-9.47511e-17
-9.09187e-16
-5.61617e-18
-1.30585e-15
1.16777e-16
-8.97913e-16
1.21365e-16
-1.47236e-15
1.85369e-16
-1.48781e-15
-2.27098e-16
-1.29395e-15
-3.30931e-16
-9.28609e-16
-3.07244e-16
-4.55807e-16
1.10935e-16
-3.69894e-16
2.76121e-16
-4.73803e-16
2.20183e-16
-7.19638e-16
2.60361e-16
-5.5556e-16
7.25257e-17
-2.56242e-16
-1.07612e-16
1.46963e-17
-6.24601e-17
-1.84763e-15
8.27356e-17
-9.61741e-16
-1.04851e-16
-1.19155e-15
-2.86182e-16
-1.03939e-15
-1.77447e-16
-8.15318e-16
-5.21261e-17
-3.13223e-15
-2.9723e-16
-3.21422e-16
-8.92597e-17
-9.37318e-16
-1.10779e-16
-1.53415e-16
1.64015e-16
-1.31546e-15
4.90381e-17
-7.75292e-16
2.47221e-17
-1.47527e-15
3.37856e-17
-9.15143e-16
-1.03209e-16
-1.05891e-15
-1.92607e-16
-1.20694e-15
-5.40398e-17
-6.05624e-16
1.46351e-16
-5.86314e-16
-6.97555e-17
-7.13858e-16
-2.32985e-16
-9.19043e-16
-1.85567e-17
-5.73291e-16
3.98864e-16
-8.46663e-16
6.38901e-17
-9.53247e-16
2.20997e-17
-3.69477e-16
7.58306e-17
2.17549e-16
-7.78257e-17
1.4547e-16
-6.90806e-17
-4.33925e-16
3.05809e-17
-6.81206e-16
8.90823e-17
-9.61713e-16
6.01779e-17
-4.71248e-16
-2.39793e-17
-8.31706e-16
-1.96235e-16
-2.65814e-16
-8.79655e-17
-5.69265e-16
5.14201e-17
-5.64005e-16
8.94833e-17
-6.94809e-16
2.27314e-17
-7.57866e-16
-7.8708e-17
-2.80648e-16
-3.23671e-17
2.1039e-16
2.91501e-17
7.35204e-17
3.27895e-17
-3.62886e-16
2.11287e-17
-7.39657e-16
-2.85071e-17
-5.03434e-16
-1.81757e-17
-2.70281e-16
-1.87348e-17
-3.23163e-16
-8.44302e-17
-4.30257e-16
4.33818e-17
-6.57274e-16
7.62996e-17
-6.96213e-16
1.48508e-16
-9.34885e-16
1.02449e-16
-7.5719e-16
-3.85289e-17
-1.04266e-15
1.69863e-17
-5.72973e-16
1.06107e-16
-9.3057e-16
6.8585e-17
-2.92707e-16
1.5783e-16
-8.18328e-16
1.74326e-16
-1.20623e-15
4.76212e-17
-1.19852e-15
-2.95571e-17
-8.80273e-16
-1.47402e-16
-7.12449e-16
5.10098e-18
-8.76925e-16
1.24917e-17
-8.03568e-16
2.35608e-16
-1.32515e-16
2.70126e-16
-9.2094e-16
-8.36207e-17
-1.38898e-15
-3.87673e-16
-2.11385e-15
-2.42555e-16
-5.74887e-16
-2.05674e-16
-4.80472e-16
-2.74209e-18
-2.947e-16
1.65761e-16
-6.5158e-16
-3.20936e-17
-8.16913e-16
-1.65301e-16
-8.09805e-16
2.10104e-17
-7.539e-16
1.08896e-16
-8.50201e-16
1.07134e-16
-2.11124e-16
2.46701e-16
3.84081e-16
2.7011e-17
-6.27956e-16
-2.57232e-16
-7.44231e-16
-1.62623e-16
-2.55887e-16
-1.11838e-18
-2.85996e-16
6.33701e-17
-4.62999e-16
-2.6e-17
-6.84365e-16
-1.2888e-18
-6.80259e-16
6.01318e-17
-2.96655e-16
3.38576e-17
-1.83021e-16
2.52769e-17
-1.30531e-16
4.56814e-17
-3.37044e-16
1.89763e-17
-5.59899e-16
-6.58882e-18
-9.60065e-16
4.84273e-17
-1.04875e-15
-9.12331e-17
4.8155e-16
-1.41391e-17
8.51083e-16
-6.6878e-17
5.1974e-16
-9.0368e-17
2.82516e-16
-8.90518e-17
9.53999e-18
-2.07955e-16
-5.23473e-16
9.77094e-18
-1.33731e-15
7.68025e-17
-1.06162e-15
1.00767e-16
-9.87014e-16
6.4612e-17
-8.89939e-16
-4.21783e-17
-5.93034e-16
-6.81235e-17
-4.29306e-16
-3.16879e-17
-4.35816e-16
7.034e-17
-8.81485e-16
6.1814e-17
-9.52063e-16
-6.90962e-17
-8.82918e-16
-1.14866e-16
-1.02814e-15
-5.32887e-17
-2.23314e-15
-8.28576e-17
-4.415e-16
8.58464e-17
3.72907e-15
8.93041e-17
2.24459e-14
-7.20483e-16
4.23116e-14
-1.29771e-14
3.46429e-14
-5.44667e-15
9.49924e-15
-1.36074e-15
-1.1837e-15
-5.36663e-16
-4.1157e-16
-2.38861e-16
4.91341e-16
3.96939e-17
3.81856e-15
5.52408e-17
5.95257e-15
-2.65712e-16
3.91854e-15
-4.13906e-16
2.20879e-15
-1.80678e-16
5.51819e-16
-1.03369e-16
-2.58977e-16
3.8669e-17
-6.02932e-16
-5.98054e-18
-5.49161e-16
2.77836e-17
7.62921e-17
4.33235e-17
9.31241e-16
9.48348e-18
3.86931e-16
-4.92282e-18
-1.53792e-16
7.4304e-17
-4.31019e-16
-3.46131e-17
-2.6941e-16
-5.30662e-18
-2.0558e-16
-2.41572e-17
-3.99218e-16
2.98706e-17
-5.67139e-16
9.9606e-17
-4.65705e-16
4.91819e-17
-4.00293e-16
3.47392e-17
-4.62614e-16
5.50963e-17
-4.28207e-16
5.01821e-17
-2.86652e-16
3.78552e-17
-6.87849e-17
2.43516e-17
-3.1828e-16
2.09842e-17
-4.81836e-16
4.72064e-17
-5.70091e-16
2.23362e-17
-5.46419e-16
3.40305e-18
-4.37637e-16
2.66907e-17
-4.79308e-16
2.21089e-17
-3.82006e-16
2.19707e-18
-4.35647e-16
1.41227e-18
-3.61269e-16
2.0028e-17
-3.42642e-16
1.63223e-17
-1.33923e-16
-5.5231e-18
-1.61907e-16
9.611e-19
-1.18436e-16
5.40133e-17
4.06212e-17
4.60307e-17
-1.45056e-17
2.95949e-17
-2.24594e-16
5.22157e-17
-2.17043e-16
4.54443e-17
-7.37702e-17
1.18944e-17
-8.28737e-17
2.41013e-17
-1.27678e-16
3.2974e-17
-1.23082e-16
4.07856e-17
-8.1305e-17
4.58488e-17
-8.20915e-17
2.52449e-17
-8.1933e-17
2.25392e-17
-8.10911e-17
2.89126e-17
-6.52287e-17
2.59404e-17
-5.8056e-17
2.60746e-17
-2.0273e-17
3.81933e-17
-2.53946e-17
-3.20074e-17
-4.45761e-17
-1.57609e-15
-2.50772e-16
-1.00156e-16
2.06689e-17
2.25503e-17
-1.44917e-16
-2.51332e-17
-5.71311e-17
2.5258e-17
2.67423e-17
5.02327e-17
6.49308e-17
7.51565e-17
9.99792e-17
2.65586e-17
1.21674e-16
4.80551e-17
1.3641e-16
4.88689e-17
1.20164e-16
1.18091e-17
1.12306e-16
9.83544e-18
4.26132e-16
4.72706e-18
1.97372e-16
2.95151e-17
3.22922e-16
7.33738e-17
3.97586e-16
6.47853e-17
4.46664e-16
6.17298e-17
4.93884e-16
9.15881e-17
4.35988e-16
1.48118e-16
3.49876e-16
9.42163e-17
-3.2616e-17
3.98574e-18
3.95764e-16
5.80537e-17
-1.91251e-16
-6.50997e-18
1.86308e-16
-1.3609e-16
1.27849e-16
-1.27639e-16
3.05848e-16
3.68097e-17
4.11252e-16
1.7126e-17
5.0134e-16
4.74418e-17
5.71083e-16
5.09435e-17
1.11642e-15
1.52242e-16
8.41318e-17
2.49211e-17
2.25282e-16
-5.55717e-17
-1.70736e-16
-2.76964e-17
7.08499e-16
1.29554e-17
-5.02592e-17
5.75934e-17
9.59629e-16
9.2656e-17
3.2414e-17
3.22745e-17
5.66816e-16
-3.63775e-17
6.86923e-16
1.2875e-17
7.11737e-16
5.95098e-17
7.41599e-16
7.17324e-17
9.11579e-16
-3.48718e-17
1.24895e-15
-4.28544e-17
1.33693e-15
3.03309e-16
1.21573e-15
3.01543e-16
1.20258e-15
5.99497e-17
1.07425e-15
5.01837e-17
-3.86268e-16
-4.32449e-16
1.59476e-15
3.92692e-16
-2.89575e-15
-8.05204e-16
1.1161e-15
6.74336e-17
-5.9621e-15
1.33069e-15
-4.99443e-15
5.41022e-15
-3.10993e-15
2.27696e-15
-2.30078e-15
-3.23493e-16
-8.25285e-16
-3.00108e-16
-1.06514e-16
-1.87363e-16
4.83125e-16
2.8988e-17
7.97237e-16
1.59577e-16
8.59697e-16
1.63185e-16
9.18387e-16
8.72249e-17
9.19854e-16
1.07458e-16
8.45825e-16
1.72887e-16
7.361e-16
1.71765e-16
5.58303e-16
1.86052e-16
4.1007e-16
3.14377e-17
3.06965e-16
8.96044e-18
1.25836e-15
-6.04401e-17
8.48953e-16
-1.32462e-16
1.24112e-15
-4.14356e-17
1.1868e-15
1.68338e-16
1.25427e-15
1.44413e-16
1.58848e-15
-7.41823e-17
1.73953e-15
-1.52743e-17
3.25831e-15
5.09305e-17
-4.2555e-16
3.96955e-16
2.01729e-15
1.22936e-16
-1.31906e-15
2.16998e-16
1.30849e-15
-1.20714e-16
1.33265e-16
-1.28145e-16
4.96804e-16
1.41006e-18
9.52056e-16
-8.77573e-17
1.26401e-15
2.36206e-17
1.19304e-15
5.31273e-16
8.74911e-16
3.91444e-16
7.89978e-16
5.20564e-17
8.62519e-16
-2.2153e-16
1.10372e-15
-2.96074e-16
1.32538e-15
-1.86016e-16
1.46979e-15
-3.7489e-16
1.5214e-15
-2.06093e-16
1.25269e-15
-1.98108e-16
1.99019e-15
1.92589e-16
1.07034e-15
1.18619e-16
1.56403e-15
1.55578e-17
9.97069e-16
5.04102e-16
1.06232e-15
5.37589e-16
-7.40389e-17
-2.21079e-16
4.02005e-16
-2.38975e-16
-8.58788e-16
5.52816e-17
2.25631e-15
1.99868e-16
-1.01898e-16
-2.90086e-16
1.29194e-15
-1.58538e-16
1.72431e-15
-1.77031e-16
2.05578e-15
-5.35828e-17
1.91868e-15
3.64916e-16
1.55666e-15
4.81954e-16
1.78128e-15
7.85988e-17
1.994e-15
1.6208e-16
1.89668e-15
2.71051e-16
1.42921e-15
4.2135e-16
1.17836e-15
8.55709e-17
1.4151e-15
-3.10903e-16
1.77386e-15
-3.01797e-16
1.95923e-15
-1.03787e-16
7.58926e-16
8.50985e-17
2.59402e-15
1.65818e-16
-3.71252e-16
-1.30608e-17
6.27853e-16
3.6494e-17
1.18494e-15
-6.37235e-16
1.50826e-15
-1.85619e-16
1.9035e-15
-2.88568e-17
2.53682e-15
-2.23307e-16
2.58086e-15
-3.84341e-16
3.20176e-15
-1.52522e-16
1.91921e-15
-3.54093e-16
2.04122e-15
-5.33458e-17
1.05586e-15
8.86348e-17
1.82685e-15
1.53166e-16
1.43662e-15
1.74758e-16
1.88253e-15
5.55254e-16
1.76578e-15
6.87521e-16
1.58844e-15