/*--------------------------------*- C++ -*----------------------------------*\
  =========                 |
  \\      /  F ield         | OpenFOAM: The Open Source CFD Toolbox
   \\    /   O peration     | Website:  https://openfoam.org
    \\  /    A nd           | Version:  7
     \\/     M anipulation  |
\*---------------------------------------------------------------------------*/
FoamFile
{
    version     2.0;
    format      ascii;
    class       volScalarField;
    location    "3000";
    object      epss;
}
// * * * * * * * * * * * * * * * * * * * * * * * * * * * * * * * * * * * * * //

dimensions      [0 0 0 0 0 0 0];

internalField   nonuniform List<scalar> 
160000
(
0.550401
0.516245
0.540253
0.501005
0.469541
0.542464
0.477606
0.551976
0.521647
0.449984
0.479753
0.519316
0.456634
0.463824
0.569635
0.529298
0.561434
0.556187
0.481643
0.488899
0.504201
0.522026
0.499903
0.461781
0.484251
0.452668
0.45014
0.497865
0.477964
0.535359
0.538098
0.490783
0.411576
0.483023
0.500528
0.474171
0.462977
0.422234
0.550178
0.501337
0.500376
0.501687
0.471318
0.531182
0.468554
0.471558
0.488319
0.544538
0.481476
0.534412
0.496226
0.416283
0.460096
0.492128
0.426897
0.534831
0.432494
0.55412
0.571395
0.531444
0.382864
0.508855
0.5147
0.538461
0.568189
0.434893
0.477179
0.454488
0.586361
0.653225
0.438578
0.551825
0.45366
0.526476
0.475578
0.498854
0.465735
0.510294
0.44148
0.495737
0.433029
0.403836
0.474373
0.504606
0.508148
0.51759
0.516012
0.560574
0.520535
0.470383
0.564599
0.444109
0.422203
0.438399
0.478789
0.556798
0.498317
0.527361
0.520805
0.56601
0.505463
0.597483
0.466781
0.525605
0.57219
0.485822
0.58011
0.490182
0.466636
0.468479
0.434496
0.552618
0.443681
0.518125
0.540987
0.506116
0.557573
0.520966
0.450825
0.478786
0.498187
0.538296
0.483066
0.463797
0.448232
0.399288
0.42576
0.52605
0.500313
0.493007
0.531203
0.567456
0.508203
0.413273
0.463256
0.490335
0.544195
0.506848
0.554706
0.603357
0.501083
0.461116
0.619437
0.49253
0.412881
0.484646
0.482059
0.490154
0.507079
0.558815
0.582262
0.526757
0.578135
0.485873
0.589817
0.500328
0.499
0.434077
0.482935
0.4713
0.53332
0.509125
0.538335
0.45437
0.586343
0.490295
0.48921
0.548433
0.51381
0.54984
0.436967
0.401985
0.515365
0.41516
0.476345
0.550017
0.513763
0.506193
0.426447
0.437906
0.590488
0.464491
0.555165
0.589479
0.576804
0.563073
0.541789
0.551349
0.583725
0.51398
0.482525
0.499272
0.443328
0.384156
0.31871
0.574388
0.571721
0.367674
0.214395
0.16734
0.211675
0.288351
0.37832
0.496907
0.552018
0.451408
0.33526
0.30477
0.345537
0.389602
0.405735
0.399816
0.43227
0.477183
0.463946
0.463922
0.530321
0.516213
0.415005
0.375191
0.386786
0.44629
0.60152
0.639708
0.617504
0.568838
0.483767
0.579679
0.492907
0.514938
0.636834
0.546511
0.569996
0.490133
0.497726
0.486774
0.566942
0.508048
0.578401
0.523868
0.557281
0.590595
0.546566
0.569872
0.527186
0.538029
0.499056
0.489858
0.326193
0.223362
0.192021
0.252918
0.372466
0.466635
0.522118
0.491331
0.502818
0.624063
0.60668
0.382758
0.234415
0.332941
0.4953
0.621549
0.60974
0.496099
0.480304
0.621061
0.570021
0.376898
0.443866
0.512568
0.474497
0.496184
0.578029
0.638162
0.578351
0.409141
0.428268
0.467394
0.544789
0.547706
0.518659
0.466033
0.444423
0.472246
0.448825
0.542881
0.555701
0.539076
0.542258
0.675449
0.593984
0.539993
0.515025
0.490793
0.46174
0.599327
0.506224
0.551238
0.421386
0.215898
0.139047
0.155132
0.215953
0.276894
0.33618
0.388153
0.444717
0.491658
0.503623
0.549981
0.58645
0.51555
0.417276
0.348095
0.338976
0.466235
0.601905
0.608257
0.63798
0.634856
0.625477
0.470432
0.313944
0.255839
0.291684
0.361121
0.391811
0.407408
0.463309
0.477237
0.475103
0.497604
0.50181
0.502155
0.52906
0.520535
0.416707
0.41379
0.567714
0.586798
0.546562
0.562716
0.463799
0.483581
0.462473
0.394914
0.380557
0.414529
0.453962
0.526806
0.535834
0.538328
0.493145
0.484782
0.484757
0.487314
0.491379
0.54046
0.572085
0.578201
0.53782
0.555592
0.475654
0.435639
0.484109
0.390938
0.377903
0.465203
0.516051
0.496767
0.500789
0.412707
0.51742
0.454229
0.534705
0.538181
0.567708
0.552068
0.527448
0.537788
0.547747
0.491391
0.475147
0.473768
0.456064
0.465984
0.505769
0.524893
0.497771
0.527519
0.484474
0.512833
0.565266
0.440879
0.487932
0.603454
0.408886
0.460213
0.422283
0.569712
0.512705
0.548007
0.562369
0.533456
0.482366
0.513626
0.507715
0.493363
0.478599
0.528097
0.509924
0.491609
0.449171
0.541895
0.53798
0.41584
0.426802
0.471275
0.52686
0.509037
0.464777
0.467152
0.562054
0.509614
0.404066
0.423265
0.495319
0.451898
0.480573
0.52275
0.496637
0.52328
0.556623
0.465099
0.423822
0.638654
0.477322
0.421087
0.492736
0.537677
0.472643
0.556892
0.472
0.422865
0.494038
0.55836
0.490964
0.438696
0.517289
0.486674
0.519021
0.397972
0.577523
0.49323
0.465976
0.540436
0.517782
0.509922
0.503574
0.480754
0.537364
0.547997
0.493795
0.508022
0.561216
0.44893
0.453294
0.412672
0.424979
0.472098
0.56242
0.511413
0.517871
0.472085
0.517187
0.515969
0.524433
0.449183
0.464866
0.496615
0.493339
0.49541
0.408489
0.406908
0.535485
0.51714
0.500714
0.465187
0.436633
0.47195
0.409123
0.446145
0.536784
0.481933
0.503703
0.483208
0.49161
0.549883
0.477858
0.502807
0.56753
0.421857
0.478419
0.53838
0.459682
0.428332
0.47443
0.465741
0.483584
0.561658
0.535984
0.545757
0.522445
0.511477
0.510659
0.483286
0.467898
0.416408
0.420886
0.493076
0.498493
0.497255
0.508502
0.496484
0.504928
0.541079
0.498353
0.52963
0.542967
0.61602
0.435738
0.400555
0.458175
0.568076
0.417738
0.521339
0.578043
0.545675
0.498356
0.466925
0.483106
0.460847
0.45265
0.542795
0.492116
0.520264
0.536932
0.583971
0.437721
0.568302
0.565198
0.517209
0.506703
0.458887
0.520408
0.469581
0.544063
0.485215
0.498311
0.468349
0.496882
0.518276
0.537959
0.493609
0.448085
0.522373
0.494091
0.497257
0.490183
0.503629
0.57918
0.434498
0.509312
0.501196
0.487916
0.520652
0.497542
0.529594
0.544699
0.511687
0.563955
0.623283
0.507035
0.525529
0.518045
0.581834
0.519629
0.407265
0.327097
0.304697
0.334693
0.348632
0.46447
0.498549
0.295592
0.173865
0.173222
0.263601
0.360215
0.439236
0.507632
0.539958
0.472588
0.361839
0.332042
0.395018
0.474076
0.513189
0.510732
0.525723
0.565022
0.559789
0.536322
0.556129
0.562918
0.516941
0.480854
0.530542
0.598958
0.674222
0.670177
0.627898
0.559496
0.507726
0.469371
0.54124
0.488798
0.514747
0.511673
0.515922
0.41595
0.399131
0.542661
0.558783
0.524974
0.510222
0.57828
0.554298
0.5847
0.598387
0.511616
0.502682
0.600271
0.480385
0.430986
0.292937
0.160168
0.156557
0.257186
0.386698
0.466358
0.496638
0.518156
0.514086
0.572088
0.585225
0.449874
0.312696
0.372138
0.547029
0.632319
0.61078
0.525906
0.469335
0.590144
0.613688
0.438034
0.348438
0.461248
0.505311
0.473456
0.544099
0.600335
0.594739
0.494002
0.407739
0.446418
0.517228
0.522921
0.492785
0.446188
0.401691
0.419196
0.488361
0.558332
0.607367
0.615592
0.601998
0.66233
0.619863
0.560788
0.542285
0.633903
0.51861
0.448269
0.49047
0.506041
0.316599
0.156854
0.122028
0.1923
0.305668
0.412309
0.496358
0.555823
0.57772
0.579732
0.5746
0.570551
0.574266
0.537213
0.461969
0.416183
0.436834
0.535164
0.646577
0.651851
0.626251
0.628343
0.618533
0.49237
0.261748
0.201464
0.279677
0.39464
0.443135
0.448246
0.487433
0.528622
0.521613
0.524663
0.532029
0.515256
0.522437
0.542614
0.514589
0.495753
0.556197
0.581351
0.519654
0.51054
0.503839
0.472644
0.449982
0.439358
0.444774
0.476491
0.503796
0.552341
0.580283
0.576766
0.526541
0.508858
0.542729
0.560795
0.552758
0.552235
0.55553
0.559809
0.541629
0.532125
0.51402
0.431894
0.432479
0.452923
0.437436
0.507154
0.575506
0.569435
0.580911
0.554906
0.569393
0.534844
0.566126
0.546345
0.506876
0.559299
0.531586
0.459495
0.600326
0.453503
0.503273
0.586654
0.490623
0.524789
0.557433
0.521888
0.464576
0.542571
0.499756
0.461531
0.525945
0.55326
0.447347
0.591054
0.5098
0.576011
0.475001
0.591783
0.609199
0.480462
0.577537
0.45238
0.585623
0.512307
0.458836
0.551996
0.46111
0.409854
0.470177
0.52041
0.452676
0.398912
0.476571
0.405729
0.446977
0.524063
0.458832
0.505965
0.491392
0.532992
0.561826
0.553423
0.518432
0.498835
0.492662
0.402596
0.488515
0.513049
0.477685
0.481053
0.469488
0.563819
0.524197
0.494594
0.531685
0.533963
0.517216
0.492896
0.495431
0.494055
0.512271
0.403139
0.52713
0.55677
0.552243
0.481428
0.408268
0.492473
0.54559
0.539625
0.509507
0.484079
0.476971
0.4155
0.443417
0.399204
0.521797
0.527298
0.513259
0.453759
0.552404
0.543269
0.457163
0.546852
0.557977
0.60228
0.511466
0.591256
0.475619
0.487429
0.587935
0.554609
0.497603
0.494648
0.466443
0.416402
0.487863
0.464675
0.451412
0.449095
0.539337
0.482615
0.525234
0.466075
0.453707
0.525871
0.559046
0.472021
0.522429
0.579097
0.517627
0.584137
0.606363
0.540553
0.518603
0.509517
0.535792
0.546246
0.476409
0.527495
0.499817
0.456447
0.487113
0.490264
0.542561
0.509048
0.458895
0.513967
0.505803
0.525157
0.570196
0.50614
0.523854
0.513173
0.487399
0.490436
0.508497
0.549363
0.55018
0.521799
0.532858
0.547325
0.541877
0.56254
0.528179
0.513779
0.557426
0.538956
0.459286
0.441916
0.500234
0.508653
0.525249
0.508959
0.494013
0.530202
0.533575
0.475798
0.39984
0.483786
0.496959
0.456374
0.505931
0.513518
0.507745
0.519283
0.54432
0.491588
0.534152
0.521093
0.430209
0.426217
0.550435
0.499171
0.506633
0.53126
0.536623
0.573312
0.500088
0.499477
0.50115
0.510252
0.512174
0.517283
0.534272
0.488414
0.439766
0.455812
0.46512
0.489895
0.541586
0.615684
0.54205
0.470621
0.475725
0.542795
0.53583
0.558454
0.600717
0.577254
0.525345
0.548485
0.530943
0.522267
0.468833
0.363041
0.193934
0.158231
0.229353
0.365945
0.438877
0.459723
0.385226
0.305469
0.305564
0.362829
0.425417
0.478944
0.519602
0.535351
0.50789
0.459082
0.440939
0.472155
0.526419
0.55691
0.549717
0.552003
0.586019
0.597641
0.575595
0.571713
0.582656
0.563443
0.535681
0.555567
0.616463
0.650614
0.625251
0.579381
0.532055
0.504348
0.491154
0.530295
0.543353
0.485695
0.512666
0.557601
0.515738
0.471676
0.565697
0.567975
0.515124
0.560701
0.595753
0.581238
0.515979
0.481813
0.520291
0.509762
0.563199
0.508588
0.474623
0.283941
0.138751
0.119922
0.237667
0.395532
0.501856
0.524772
0.524147
0.541393
0.558182
0.575842
0.547777
0.468916
0.450331
0.543499
0.614737
0.606469
0.559922
0.518389
0.540676
0.57781
0.529335
0.45313
0.479574
0.545829
0.517873
0.478377
0.503288
0.525897
0.53781
0.482795
0.42005
0.45698
0.481696
0.46409
0.436477
0.441754
0.486865
0.564131
0.59727
0.590242
0.591284
0.583648
0.580193
0.574584
0.602372
0.644536
0.638134
0.499669
0.320148
0.308111
0.41599
0.271117
0.167754
0.160991
0.248828
0.371657
0.483875
0.552072
0.572787
0.566669
0.560238
0.572005
0.577861
0.56041
0.537601
0.5187
0.499715
0.506958
0.564498
0.628019
0.616791
0.56737
0.569061
0.576149
0.482105
0.307578
0.243489
0.318187
0.433047
0.51009
0.530873
0.537567
0.556715
0.558861
0.52983
0.530458
0.554167
0.566018
0.577915
0.572141
0.538019
0.524356
0.534131
0.524067
0.522878
0.518471
0.481831
0.465221
0.474833
0.471396
0.47136
0.518715
0.585102
0.589069
0.554605
0.508813
0.479291
0.521013
0.564607
0.55108
0.518598
0.53311
0.589311
0.592882
0.544664
0.489563
0.466621
0.457803
0.527576
0.553109
0.525568
0.555132
0.564966
0.522278
0.483041
0.482217
0.490441
0.498822
0.520601
0.533816
0.574258
0.587047
0.527929
0.565373
0.548046
0.511129
0.484785
0.52728
0.568953
0.509286
0.493911
0.4847
0.51551
0.56464
0.482348
0.479235
0.511777
0.481633
0.511865
0.583448
0.501546
0.507226
0.547702
0.438731
0.447226
0.436255
0.426465
0.419618
0.426861
0.467213
0.42268
0.472669
0.439564
0.521502
0.509983
0.502018
0.528615
0.413228
0.470534
0.441032
0.459256
0.4835
0.474742
0.542677
0.411354
0.542594
0.489382
0.409598
0.549487
0.52383
0.471515
0.525772
0.630398
0.562782
0.531494
0.488002
0.464495
0.447123
0.475216
0.455661
0.594113
0.519167
0.417837
0.412214
0.466838
0.488593
0.483208
0.455429
0.495341
0.489564
0.527175
0.502851
0.531785
0.432636
0.459488
0.587199
0.477363
0.498291
0.532426
0.546077
0.505115
0.519017
0.460562
0.497904
0.433763
0.50837
0.53672
0.518032
0.496318
0.498603
0.513846
0.477057
0.460071
0.580637
0.569276
0.536253
0.471429
0.416573
0.449051
0.542579
0.467876
0.504238
0.605674
0.450358
0.470381
0.500212
0.527645
0.438898
0.430758
0.441871
0.422824
0.503495
0.422941
0.535618
0.46913
0.501796
0.512468
0.548674
0.464349
0.554751
0.558155
0.512085
0.431066
0.504518
0.489613
0.460223
0.487243
0.453137
0.437158
0.47054
0.500225
0.494151
0.482699
0.537134
0.47317
0.499576
0.541895
0.529176
0.492035
0.487296
0.454033
0.454592
0.519372
0.529579
0.53462
0.495158
0.579995
0.502558
0.472711
0.466065
0.51708
0.542806
0.514838
0.53
0.483483
0.508608
0.499683
0.486935
0.542926
0.502587
0.506902
0.52978
0.523944
0.472553
0.57835
0.534958
0.479782
0.479514
0.452305
0.493108
0.532364
0.56584
0.469496
0.523261
0.519045
0.553071
0.554317
0.522501
0.521336
0.459917
0.46461
0.538103
0.504437
0.492361
0.480379
0.470917
0.484131
0.54275
0.529402
0.493199
0.448919
0.41237
0.392722
0.441194
0.524068
0.516454
0.473801
0.497608
0.499323
0.499084
0.554816
0.572901
0.531009
0.521408
0.607374
0.615921
0.536855
0.515264
0.50433
0.484021
0.324533
0.157989
0.12014
0.203892
0.357499
0.448737
0.450101
0.419423
0.401766
0.427363
0.461229
0.47858
0.488045
0.50606
0.535839
0.555185
0.534755
0.497514
0.484872
0.504645
0.534471
0.542908
0.543149
0.570672
0.59279
0.565835
0.53221
0.5334
0.546198
0.560717
0.57696
0.597424
0.605748
0.577468
0.536263
0.512576
0.49632
0.497562
0.518179
0.552448
0.567649
0.565294
0.575404
0.558212
0.544047
0.606055
0.622168
0.587948
0.572323
0.557282
0.534002
0.563622
0.575103
0.573796
0.593619
0.54988
0.527861
0.482418
0.301211
0.155
0.124351
0.226035
0.386598
0.517843
0.561208
0.54754
0.551761
0.564166
0.556183
0.532892
0.492329
0.464347
0.503925
0.571286
0.593715
0.565958
0.522155
0.508968
0.538511
0.579304
0.548573
0.481187
0.461403
0.435133
0.4005
0.444788
0.554603
0.614815
0.573923
0.473173
0.422082
0.443658
0.465835
0.481127
0.508437
0.54147
0.562316
0.556402
0.563666
0.590623
0.599788
0.566546
0.540226
0.593394
0.646065
0.627471
0.502078
0.306262
0.20233
0.239178
0.313295
0.319398
0.321479
0.362264
0.443068
0.528487
0.568701
0.555777
0.53391
0.526822
0.529092
0.539843
0.542542
0.53389
0.535399
0.537656
0.527235
0.532866
0.562362
0.578259
0.585873
0.590306
0.558071
0.478875
0.381085
0.352686
0.416657
0.494027
0.551701
0.57297
0.573736
0.560463
0.545863
0.543446
0.544796
0.541409
0.537711
0.511758
0.48243
0.472886
0.460347
0.448373
0.478074
0.522012
0.539268
0.538632
0.516503
0.478768
0.457537
0.494031
0.548971
0.580569
0.594854
0.59007
0.57988
0.572735
0.548883
0.54622
0.540729
0.539901
0.537358
0.526756
0.501089
0.506104
0.515462
0.515838
0.532467
0.506164
0.544319
0.570723
0.54799
0.550634
0.527336
0.504143
0.528458
0.52224
0.526247
0.529682
0.521788
0.567136
0.617508
0.569779
0.511243
0.506173
0.608211
0.489682
0.444461
0.494437
0.551858
0.541697
0.495569
0.558908
0.492265
0.525506
0.570944
0.594078
0.523334
0.544586
0.556872
0.567186
0.533765
0.500358
0.479153
0.464866
0.45038
0.426926
0.490194
0.503627
0.508887
0.556909
0.474423
0.491426
0.553849
0.539461
0.645076
0.446196
0.394887
0.521785
0.570211
0.456539
0.462582
0.423848
0.40139
0.512329
0.534512
0.579469
0.53019
0.523699
0.590874
0.477718
0.431069
0.502751
0.469492
0.480709
0.555212
0.504986
0.4465
0.486755
0.574689
0.528411
0.491355
0.424031
0.456014
0.514521
0.446455
0.509869
0.542897
0.534639
0.489112
0.524582
0.464795
0.39487
0.48703
0.480419
0.47864
0.502124
0.539816
0.50131
0.478897
0.541664
0.492383
0.486091
0.549315
0.519656
0.521283
0.511941
0.556469
0.546647
0.466226
0.482643
0.467762
0.517759
0.486332
0.538295
0.546913
0.471885
0.490022
0.45343
0.437747
0.507686
0.49122
0.498679
0.409141
0.541524
0.528036
0.49709
0.512002
0.486378
0.450168
0.49892
0.502808
0.504284
0.498995
0.515464
0.536182
0.507625
0.504631
0.533799
0.486715
0.486878
0.522048
0.546366
0.471016
0.439521
0.475996
0.564271
0.461254
0.463776
0.440173
0.447623
0.504227
0.501302
0.495981
0.523316
0.524126
0.460436
0.418499
0.442223
0.557643
0.551822
0.445282
0.481699
0.523796
0.4905
0.514596
0.510063
0.510526
0.449598
0.475586
0.54431
0.549931
0.527768
0.506843
0.537999
0.483096
0.474769
0.484616
0.527095
0.508429
0.542035
0.531955
0.469433
0.465041
0.47013
0.495888
0.458387
0.517695
0.505807
0.482059
0.532585
0.552922
0.507229
0.519277
0.534979
0.522893
0.494246
0.465214
0.470377
0.463685
0.47278
0.546743
0.579423
0.515416
0.468036
0.455428
0.457463
0.510278
0.567064
0.537329
0.443863
0.432503
0.469729
0.46828
0.524989
0.520287
0.518812
0.547733
0.507986
0.50986
0.526712
0.531299
0.538181
0.536914
0.512809
0.503166
0.545842
0.583131
0.595298
0.460577
0.26228
0.127625
0.105114
0.208735
0.366157
0.484639
0.51815
0.498082
0.485264
0.509723
0.540803
0.539606
0.509242
0.482139
0.485765
0.511065
0.525914
0.514538
0.493065
0.486287
0.505747
0.536255
0.548145
0.542153
0.527652
0.495311
0.469254
0.478285
0.513387
0.552622
0.568064
0.559455
0.547107
0.525435
0.507175
0.513761
0.528956
0.533936
0.547241
0.572167
0.575339
0.563882
0.546753
0.554476
0.545488
0.549961
0.598161
0.589708
0.531316
0.521855
0.552997
0.584339
0.59542
0.53221
0.465416
0.459293
0.473428
0.451939
0.287167
0.173592
0.160708
0.259342
0.401685
0.52785
0.591055
0.593507
0.578045
0.569138
0.556879
0.533491
0.508672
0.492831
0.497354
0.529801
0.569619
0.589501
0.581609
0.554471
0.540668
0.562278
0.557098
0.454136
0.352939
0.361778
0.418458
0.479176
0.558666
0.596822
0.552645
0.472032
0.401266
0.403973
0.459333
0.50988
0.550385
0.569832
0.564633
0.564903
0.581061
0.582161
0.541184
0.511615
0.534664
0.588398
0.622109
0.61832
0.539868
0.346174
0.193967
0.189428
0.305159
0.395824
0.432996
0.457179
0.48787
0.514307
0.522206
0.513932
0.506385
0.51056
0.530707
0.56104
0.579825
0.565571
0.533693
0.503783
0.469385
0.441465
0.449818
0.485621
0.51095
0.511868
0.493005
0.45144
0.394862
0.375442
0.417795
0.47151
0.528686
0.571914
0.57566
0.552991
0.519392
0.502235
0.519187
0.551858
0.553905
0.521574
0.502475
0.515795
0.521383
0.495852
0.486354
0.519498
0.543066
0.517372
0.480176
0.465061
0.48625
0.541229
0.577779
0.583957
0.581212
0.59115
0.5768
0.536832
0.519963
0.523141
0.543796
0.551551
0.535903
0.518948
0.525915
0.525214
0.524412
0.528114
0.521418
0.513043
0.498908
0.484478
0.483118
0.51264
0.509707
0.530702
0.540588
0.528737
0.518254
0.54649
0.617989
0.620526
0.531632
0.551183
0.544199
0.503454
0.489895
0.506393
0.474204
0.474728
0.565141
0.570312
0.521851
0.452553
0.482869
0.526535
0.506919
0.516731
0.487919
0.565163
0.617386
0.526702
0.524957
0.509392
0.6547
0.498327
0.565201
0.566734
0.435832
0.476354
0.528058
0.482676
0.563992
0.545918
0.609581
0.531259
0.467098
0.540538
0.436279
0.449468
0.439991
0.403737
0.523161
0.516075
0.490879
0.443235
0.458357
0.436848
0.505872
0.581121
0.533855
0.522799
0.606917
0.520068
0.56514
0.410811
0.503082
0.505438
0.485587
0.487509
0.450888
0.528379
0.527954
0.490695
0.445995
0.443465
0.497103
0.4826
0.53431
0.532296
0.494482
0.488715
0.504999
0.500197
0.480665
0.406196
0.453512
0.53326
0.489169
0.472446
0.522263
0.488842
0.472473
0.496662
0.532622
0.50156
0.513955
0.556492
0.474134
0.528799
0.493472
0.410207
0.450357
0.501877
0.472209
0.420438
0.471214
0.443527
0.434572
0.504297
0.505584
0.425429
0.467488
0.505086
0.529334
0.534646
0.488668
0.4732
0.506135
0.513315
0.47004
0.449829
0.467445
0.416394
0.433688
0.475872
0.53882
0.497572
0.438387
0.496956
0.53303
0.503995
0.579943
0.579094
0.509287
0.56602
0.543127
0.524534
0.471059
0.435741
0.490735
0.514013
0.551127
0.509681
0.460404
0.450691
0.498354
0.549379
0.55641
0.501848
0.514293
0.550241
0.553534
0.556679
0.467098
0.45378
0.490844
0.430955
0.489166
0.44448
0.446909
0.485028
0.474359
0.485605
0.498354
0.50386
0.488188
0.456478
0.502589
0.552099
0.539734
0.461853
0.502763
0.50092
0.512027
0.502682
0.512527
0.524861
0.489206
0.458641
0.505833
0.53353
0.490731
0.470558
0.48505
0.540677
0.536165
0.530061
0.485316
0.509455
0.493592
0.526189
0.549228
0.510791
0.499233
0.4545
0.432846
0.438066
0.493247
0.492559
0.493954
0.506298
0.506507
0.52579
0.562874
0.553083
0.556408
0.576024
0.51497
0.471545
0.490515
0.538447
0.512938
0.518086
0.515445
0.470248
0.489893
0.555004
0.56863
0.5469
0.420002
0.197435
0.0984579
0.0934473
0.208434
0.372081
0.492388
0.526546
0.512295
0.500346
0.50668
0.52783
0.544242
0.532501
0.498367
0.470967
0.46744
0.481604
0.498307
0.50251
0.49827
0.508658
0.533585
0.54498
0.530335
0.512288
0.504324
0.494079
0.489055
0.504336
0.528415
0.540942
0.53888
0.52763
0.517489
0.52538
0.558156
0.592398
0.599341
0.577605
0.562725
0.563975
0.568497
0.558321
0.542322
0.527351
0.551085
0.613197
0.611809
0.537247
0.496682
0.528668
0.567303
0.573315
0.535418
0.463422
0.444051
0.471603
0.443595
0.300346
0.218315
0.235417
0.327185
0.422517
0.49605
0.549148
0.581763
0.586991
0.568331
0.539808
0.518529
0.511841
0.518623
0.529504
0.544987
0.56953
0.573696
0.539405
0.498294
0.490746
0.515006
0.516319
0.436662
0.334048
0.325312
0.41791
0.512102
0.55937
0.571409
0.552441
0.501615
0.435739
0.405884
0.452103
0.51941
0.553117
0.545826
0.519266
0.503136
0.507962
0.515619
0.518632
0.532739
0.552112
0.55419
0.543075
0.544419
0.534931
0.413593
0.237294
0.200608
0.31271
0.434311
0.493133
0.50997
0.52785
0.549231
0.550979
0.528971
0.505181
0.50569
0.526253
0.548009
0.56431
0.561972
0.527325
0.479338
0.443454
0.422128
0.423542
0.46399
0.527415
0.571242
0.567197
0.528174
0.483017
0.468208
0.493116
0.528121
0.557084
0.574258
0.563946
0.532087
0.517044
0.526838
0.531656
0.539462
0.565309
0.575683
0.547691
0.519196
0.5136
0.5108
0.506072
0.520575
0.547574
0.540017
0.513493
0.51651
0.527075
0.512268
0.504689
0.529018
0.555728
0.551274
0.520072
0.505473
0.51105
0.49151
0.480701
0.503788
0.526286
0.532652
0.522681
0.519929
0.533283
0.551474
0.528298
0.51027
0.505685
0.487321
0.495638
0.53016
0.578263
0.568913
0.510054
0.466428
0.507706
0.516207
0.508355
0.51829
0.528331
0.482951
0.528286
0.556228
0.533558
0.513299
0.518583
0.607591
0.57745
0.576508
0.644267
0.581472
0.516462
0.531672
0.500326
0.481216
0.544413
0.507723
0.577191
0.552946
0.428727
0.428967
0.495028
0.556766
0.534094
0.527708
0.527086
0.50092
0.469258
0.45521
0.372032
0.452007
0.473035
0.519136
0.499788
0.539534
0.467793
0.439697
0.463269
0.510342
0.497923
0.547074
0.498904
0.532064
0.427124
0.373232
0.490502
0.533398
0.527987
0.453531
0.437636
0.530281
0.462515
0.520748
0.443492
0.472553
0.462959
0.557323
0.500825
0.53006
0.434775
0.442727
0.435223
0.514574
0.500056
0.441621
0.442716
0.518546
0.527252
0.482336
0.523973
0.555635
0.507656
0.522774
0.467559
0.429272
0.518407
0.485446
0.449657
0.501095
0.513702
0.470504
0.515745
0.523873
0.536206
0.560096
0.523387
0.457209
0.438922
0.546994
0.535524
0.452057
0.467164
0.504026
0.54789
0.507606
0.442094
0.433519
0.47189
0.450591
0.481767
0.50116
0.471011
0.504694
0.522917
0.511029
0.533787
0.573782
0.454729
0.469686
0.487053
0.492909
0.498961
0.501476
0.470609
0.531791
0.493964
0.451156
0.478826
0.526225
0.588038
0.496346
0.420732
0.503935
0.557711
0.479526
0.463126
0.427324
0.449233
0.483194
0.463825
0.500921
0.554862
0.468661
0.473544
0.561005
0.557376
0.496962
0.467137
0.479119
0.54547
0.556242
0.456354
0.437849
0.424376
0.454093
0.481284
0.528344
0.488603
0.447779
0.498574
0.489761
0.464035
0.489344
0.51635
0.541532
0.548921
0.532616
0.541614
0.466882
0.458178
0.442418
0.463028
0.52282
0.529574
0.550715
0.52004
0.496496
0.477477
0.473082
0.463485
0.488986
0.535885
0.553965
0.544705
0.450039
0.488532
0.513464
0.490798
0.514359
0.555177
0.576417
0.519428
0.481573
0.444015
0.400832
0.434014
0.534077
0.53763
0.509316
0.495904
0.508683
0.503665
0.517482
0.520569
0.481852
0.509331
0.538532
0.489898
0.476838
0.498813
0.504825
0.498179
0.507885
0.506838
0.550293
0.570172
0.560454
0.420194
0.176412
0.088852
0.104288
0.23246
0.386773
0.500669
0.548744
0.546785
0.528891
0.506863
0.482127
0.472898
0.483642
0.49127
0.482043
0.469488
0.475485
0.502989
0.531635
0.536476
0.523885
0.512452
0.502383
0.50064
0.517042
0.524834
0.501535
0.480061
0.496755
0.522736
0.52605
0.526789
0.541978
0.546507
0.530564
0.530984
0.548441
0.551172
0.543854
0.552423
0.563106
0.54244
0.520483
0.532421
0.564194
0.579764
0.589484
0.589162
0.55798
0.509069
0.481443
0.491932
0.506197
0.484769
0.402911
0.33237
0.34444
0.371708
0.330186
0.292717
0.318055
0.375596
0.43732
0.497577
0.554421
0.59987
0.617071
0.602328
0.574127
0.554379
0.548017
0.541469
0.523347
0.504721
0.502478
0.508975
0.50371
0.492813
0.500667
0.515965
0.502189
0.444795
0.386687
0.389541
0.460941
0.537968
0.57605
0.574361
0.559514
0.542669
0.506914
0.457998
0.444162
0.478779
0.511227
0.515592
0.51531
0.527207
0.541979
0.545514
0.542636
0.547535
0.55662
0.559801
0.548761
0.537141
0.542002
0.493345
0.329273
0.233303
0.297356
0.422662
0.507845
0.529891
0.523766
0.523962
0.523626
0.514085
0.510336
0.519111
0.53007
0.534834
0.539101
0.545571
0.534174
0.496927
0.467392
0.474207
0.503234
0.530286
0.555273
0.564059
0.541012
0.51193
0.498029
0.49574
0.500693
0.502036
0.501018
0.507119
0.51937
0.525018
0.51919
0.502623
0.484278
0.472554
0.477489
0.501461
0.522134
0.526212
0.527957
0.528734
0.511653
0.494966
0.517559
0.549407
0.538849
0.513839
0.517879
0.538727
0.549037
0.550036
0.557482
0.574038
0.576245
0.541755
0.497505
0.499922
0.530088
0.54462
0.552226
0.544262
0.524243
0.52423
0.539872
0.529127
0.516958
0.505892
0.51233
0.515823
0.492851
0.476275
0.499166
0.512549
0.516034
0.542532
0.555465
0.541478
0.535221
0.526363
0.536581
0.586829
0.593941
0.538871
0.497985
0.494319
0.543227
0.575202
0.56984
0.498368
0.545293
0.573314
0.509126
0.445127
0.467459
0.496858
0.543701
0.501155
0.556992
0.559717
0.605215
0.512194
0.528052
0.48143
0.576245
0.458379
0.550042
0.49326
0.576244
0.467475
0.46821
0.508124
0.489118
0.447245
0.460432
0.527636
0.5332
0.622962
0.476416
0.521242
0.492487
0.566045
0.449282
0.455026
0.516555
0.582015
0.491419
0.521803
0.483569
0.507077
0.494351
0.480975
0.370724
0.484307
0.488364
0.457805
0.491367
0.528521
0.51006
0.460296
0.484105
0.507382
0.519363
0.557569
0.504536
0.520571
0.503111
0.457187
0.453476
0.480076
0.419906
0.464325
0.450643
0.456472
0.427145
0.476573
0.487531
0.47103
0.482851
0.53786
0.494962
0.540849
0.493878
0.501337
0.50278
0.453204
0.481323
0.487222
0.453529
0.474556
0.508136
0.492111
0.447643
0.434041
0.478032
0.500907
0.471852
0.424242
0.48897
0.544714
0.550902
0.516887
0.476368
0.53036
0.521801
0.500468
0.496004
0.505347
0.453854
0.500805
0.490005
0.522959
0.509616
0.454563
0.489681
0.554055
0.549482
0.517776
0.48805
0.489658
0.480452
0.466469
0.500018
0.491699
0.45558
0.448007
0.49189
0.530881
0.500623
0.528363
0.556262
0.509387
0.516109
0.495282
0.442116
0.487116
0.507633
0.552623
0.584504
0.572828
0.545685
0.519745
0.480052
0.438302
0.493965
0.516494
0.491972
0.518798
0.525074
0.442218
0.445887
0.54638
0.581457
0.52204
0.441773
0.454833
0.548642
0.586603
0.519678
0.440664
0.428299
0.486525
0.47202
0.493914
0.549249
0.55077
0.492222
0.485578
0.516121
0.485019
0.461616
0.509248
0.585156
0.544509
0.502762
0.511112
0.516446
0.54411
0.500672
0.457573
0.519012
0.565813
0.556825
0.525069
0.512318
0.469186
0.447928
0.500827
0.56096
0.50523
0.465064
0.488264
0.529827
0.495416
0.443764
0.473363
0.560738
0.533948
0.467823
0.468899
0.551154
0.580884
0.552196
0.514397
0.547963
0.586822
0.578069
0.517333
0.387915
0.162709
0.0869704
0.109365
0.237198
0.397351
0.513938
0.555387
0.547722
0.541171
0.557007
0.562528
0.530252
0.486492
0.468986
0.479633
0.49095
0.49003
0.491429
0.505123
0.521001
0.522193
0.509446
0.493788
0.479402
0.470574
0.478884
0.499508
0.522512
0.547121
0.564421
0.560334
0.539011
0.519919
0.507224
0.496189
0.495231
0.505988
0.517708
0.52888
0.538573
0.523928
0.484742
0.482026
0.528982
0.558082
0.548458
0.530056
0.534444
0.549472
0.515662
0.444525
0.428679
0.476
0.504516
0.45461
0.380337
0.37008
0.411772
0.428214
0.415284
0.420211
0.449218
0.489944
0.529478
0.566035
0.595041
0.604359
0.598277
0.593985
0.592117
0.58215
0.555323
0.515945
0.489848
0.490987
0.502526
0.507495
0.506651
0.509706
0.520641
0.522726
0.487284
0.428378
0.413679
0.475014
0.554064
0.584497
0.563523
0.542546
0.555195
0.576236
0.562131
0.525821
0.508364
0.519107
0.538784
0.548313
0.544385
0.537105
0.532374
0.529369
0.536152
0.543382
0.52476
0.483884
0.460177
0.481562
0.5032
0.423136
0.298794
0.288666
0.371667
0.469471
0.554872
0.602326
0.599235
0.559866
0.513248
0.490813
0.50914
0.551574
0.579942
0.569454
0.534592
0.507855
0.501887
0.506443
0.515948
0.533547
0.552454
0.555565
0.540134
0.528091
0.53919
0.560802
0.560097
0.52851
0.49446
0.480396
0.482617
0.497766
0.513975
0.514096
0.500719
0.48739
0.488833
0.52112
0.561434
0.560845
0.529765
0.510066
0.508852
0.507452
0.488622
0.472994
0.482152
0.500378
0.509701
0.518126
0.54698
0.574471
0.581799
0.585315
0.599869
0.599788
0.566772
0.54404
0.55577
0.562736
0.556183
0.548322
0.523351
0.488359
0.477348
0.50034
0.527204
0.553527
0.562213
0.54879
0.537778
0.539712
0.553022
0.570823
0.586052
0.55927
0.524034
0.528677
0.549391
0.547478
0.51508
0.497798
0.516687
0.558897
0.588257
0.560886
0.527617
0.561779
0.591131
0.544982
0.465894
0.508692
0.504595
0.456736
0.480644
0.462391
0.541755
0.515161
0.498947
0.503668
0.528308
0.554164
0.448299
0.474385
0.545339
0.592438
0.503144
0.425732
0.487698
0.49217
0.436656
0.421227
0.486451
0.355369
0.472411
0.445416
0.48576
0.468361
0.424035
0.465318
0.451143
0.474909
0.568184
0.522571
0.44112
0.539505
0.522948
0.516868
0.491808
0.534664
0.483733
0.466115
0.532223
0.471489
0.454621
0.52624
0.506822
0.483919
0.506376
0.520817
0.506189
0.437028
0.483518
0.539211
0.514428
0.540409
0.409639
0.425265
0.463603
0.5354
0.524975
0.500969
0.4897
0.510611
0.495373
0.544659
0.491618
0.468402
0.51867
0.534732
0.45419
0.467338
0.524431
0.495281
0.477893
0.487589
0.461143
0.432802
0.470808
0.487219
0.466374
0.464975
0.456365
0.461425
0.476422
0.432562
0.446799
0.489099
0.485376
0.473915
0.506085
0.536635
0.487823
0.487188
0.534863
0.564176
0.552068
0.468175
0.444281
0.481409
0.509662
0.517174
0.502998
0.525742
0.477666
0.477285
0.478893
0.496476
0.535452
0.560386
0.511757
0.530084
0.494642
0.491242
0.560837
0.543741