/*--------------------------------*- C++ -*----------------------------------*\
  =========                 |
  \\      /  F ield         | OpenFOAM: The Open Source CFD Toolbox
   \\    /   O peration     | Website:  https://openfoam.org
    \\  /    A nd           | Version:  7
     \\/     M anipulation  |
\*---------------------------------------------------------------------------*/
FoamFile
{
    version     2.0;
    format      ascii;
    class       volScalarField;
    location    "3000";
    object      k1Write;
}
// * * * * * * * * * * * * * * * * * * * * * * * * * * * * * * * * * * * * * //

dimensions      [0 2 0 0 0 0 0];

internalField   nonuniform List<scalar> 
160000
(
6.44906e-19
9.13325e-19
6.04502e-19
9.05873e-19
1.16941e-18
5.61592e-19
1.27453e-18
7.07702e-19
8.28146e-19
1.66327e-18
1.19669e-18
7.71059e-19
1.43854e-18
1.47246e-18
4.86418e-19
7.3823e-19
5.3827e-19
5.97651e-19
1.38283e-18
1.28869e-18
9.76204e-19
7.54966e-19
9.51385e-19
1.50782e-18
1.15499e-18
1.47677e-18
1.68963e-18
1.07027e-18
1.4264e-18
8.0317e-19
7.03892e-19
1.00363e-18
2.20656e-18
1.21901e-18
1.02627e-18
1.2621e-18
1.45644e-18
2.60741e-18
7.26225e-19
1.07674e-18
1.03652e-18
9.76243e-19
1.29411e-18
7.58015e-19
1.52187e-18
1.62912e-18
1.34336e-18
6.71832e-19
1.27095e-18
7.48622e-19
1.07678e-18
2.54214e-18
1.71229e-18
1.33455e-18
2.59587e-18
8.25337e-19
2.2977e-18
6.78503e-19
5.37009e-19
8.13098e-19
3.63054e-18
1.05464e-18
9.97089e-19
7.85712e-19
5.33898e-19
2.04822e-18
1.35107e-18
1.79355e-18
4.77996e-19
2.24961e-19
2.12357e-18
6.84306e-19
1.87822e-18
9.367e-19
1.56371e-18
1.24377e-18
1.73397e-18
1.1106e-18
2.20767e-18
1.29084e-18
2.41175e-18
3.23368e-18
1.61106e-18
1.17139e-18
1.1092e-18
1.00407e-18
1.02323e-18
6.37534e-19
9.63303e-19
1.62802e-18
6.27749e-19
2.11783e-18
2.76724e-18
2.36593e-18
1.59062e-18
7.22035e-19
1.31701e-18
9.86296e-19
1.05722e-18
6.66938e-19
1.24123e-18
4.66788e-19
1.78334e-18
1.05553e-18
6.11076e-19
1.47621e-18
5.65568e-19
1.45083e-18
1.91102e-18
1.906e-18
2.68718e-18
8.25017e-19
2.46859e-18
1.18005e-18
8.86945e-19
1.26624e-18
7.58934e-19
1.15826e-18
2.4059e-18
1.82955e-18
1.51291e-18
9.90423e-19
1.75753e-18
2.1346e-18
2.44661e-18
3.95943e-18
3.00442e-18
1.02051e-18
1.28006e-18
1.38132e-18
9.79969e-19
6.82174e-19
1.35068e-18
3.66165e-18
2.23109e-18
1.56266e-18
8.58538e-19
1.25732e-18
8.00691e-19
4.74623e-19
1.37363e-18
2.13143e-18
4.17268e-19
1.61346e-18
3.66784e-18
1.80614e-18
1.85871e-18
1.72019e-18
1.45677e-18
8.62627e-19
6.58125e-19
1.17261e-18
6.77437e-19
1.74131e-18
6.01875e-19
1.5806e-18
1.61822e-18
3.11128e-18
1.87471e-18
2.03026e-18
1.07066e-18
1.36123e-18
9.63085e-19
2.2386e-18
6.03462e-19
1.78965e-18
1.81455e-18
9.98893e-19
1.42439e-18
9.66903e-19
3.0753e-18
4.36717e-18
1.31077e-18
3.60111e-18
2.00701e-18
9.57728e-19
1.41521e-18
1.51862e-18
3.36201e-18
3.04531e-18
6.49368e-19
2.36197e-18
9.66296e-19
6.75397e-19
8.22191e-19
9.80938e-19
1.16053e-18
9.85467e-19
7.04201e-19
1.52579e-18
1.94381e-18
1.37453e-18
2.27728e-18
3.96942e-18
7.83208e-18
6.11388e-19
8.0871e-19
5.57312e-18
2.43643e-17
4.77919e-17
2.54015e-17
9.99421e-18
3.73245e-18
1.14873e-18
1.03748e-18
2.90944e-18
9.47531e-18
1.26107e-17
7.84108e-18
4.89113e-18
4.12551e-18
4.38671e-18
3.195e-18
2.04793e-18
2.33846e-18
2.34412e-18
1.21831e-18
1.52232e-18
4.17328e-18
5.94464e-18
5.15021e-18
2.85412e-18
5.86644e-19
4.05492e-19
6.16211e-19
1.07259e-18
2.55365e-18
9.6118e-19
2.09076e-18
1.52756e-18
4.1998e-19
1.26389e-18
1.05674e-18
2.38727e-18
2.18618e-18
2.04511e-18
8.7054e-19
1.59223e-18
7.74532e-19
1.39595e-18
9.93547e-19
7.3937e-19
1.32393e-18
1.06886e-18
1.66912e-18
1.49732e-18
2.26719e-18
2.44862e-18
1.00486e-17
1.70081e-17
1.44801e-17
6.61512e-18
1.81136e-18
9.60337e-19
8.92168e-19
1.68098e-18
1.50105e-18
4.21888e-19
6.8696e-19
5.83281e-18
2.53045e-17
8.31289e-18
1.62952e-18
4.36917e-19
6.57494e-19
2.12995e-18
2.49668e-18
5.79725e-19
1.13109e-18
7.88581e-18
4.04892e-18
1.69181e-18
2.18199e-18
1.7611e-18
7.63489e-19
4.19819e-19
1.09625e-18
6.03603e-18
4.99803e-18
2.98309e-18
1.13033e-18
1.15449e-18
1.61424e-18
2.73323e-18
3.06451e-18
2.20699e-18
2.7868e-18
1.088e-18
9.73294e-19
1.34388e-18
1.32781e-18
3.05378e-19
9.77633e-19
1.79399e-18
2.31366e-18
2.9524e-18
3.41112e-18
8.36043e-19
2.29411e-18
1.19664e-18
1.84659e-18
6.74281e-18
1.47583e-17
1.12412e-17
4.63692e-18
2.21804e-18
1.21717e-18
1.04536e-18
8.41687e-19
8.83846e-19
1.23822e-18
9.26025e-19
8.08741e-19
1.98169e-18
5.26902e-18
7.171e-18
7.89135e-18
2.19842e-18
5.47658e-19
5.71112e-19
4.6087e-19
5.289e-19
7.33686e-19
3.81662e-18
1.865e-17
2.45409e-17
1.33669e-17
6.40357e-18
4.69769e-18
4.02151e-18
2.31225e-18
2.01521e-18
2.0601e-18
1.64775e-18
1.58114e-18
1.57674e-18
1.20322e-18
1.63326e-18
4.32957e-18
3.34453e-18
7.1298e-19
5.83159e-19
8.88815e-19
7.52498e-19
4.00392e-18
3.29212e-18
4.06167e-18
7.21328e-18
5.91006e-18
4.20749e-18
2.84803e-18
1.37698e-18
1.38433e-18
1.60555e-18
2.53295e-18
2.75427e-18
2.56515e-18
2.44195e-18
2.34633e-18
1.43094e-18
1.0317e-18
1.01252e-18
1.64806e-18
1.40224e-18
3.14386e-18
4.67456e-18
2.89263e-18
7.30148e-18
8.33053e-18
3.24705e-18
1.70248e-18
2.06618e-18
1.98541e-18
4.76099e-18
1.68099e-18
3.15594e-18
1.41162e-18
1.46748e-18
1.11229e-18
1.3951e-18
1.79487e-18
1.61595e-18
1.49348e-18
2.64991e-18
3.11502e-18
3.15841e-18
3.44245e-18
3.08614e-18
2.07697e-18
1.7372e-18
2.26781e-18
1.60273e-18
2.40977e-18
1.45742e-18
7.34942e-19
1.87052e-18
7.58246e-19
2.30261e-19
1.66128e-18
9.98628e-19
2.0576e-18
4.6759e-19
1.02407e-18
5.45883e-19
4.66296e-19
6.36714e-19
1.14319e-18
8.6764e-19
9.2193e-19
1.07702e-18
1.26401e-18
7.9038e-19
9.43776e-19
1.11728e-18
1.76964e-18
7.00468e-19
7.00695e-19
2.26714e-18
2.01716e-18
1.31473e-18
7.76976e-19
9.22205e-19
1.42651e-18
1.52012e-18
5.85355e-19
9.22817e-19
2.89614e-18
2.39701e-18
1.16564e-18
1.78985e-18
1.34092e-18
7.63249e-19
9.48673e-19
7.40896e-19
6.00469e-19
1.64081e-18
2.47502e-18
2.47136e-19
1.29101e-18
2.25884e-18
1.10351e-18
6.7911e-19
1.29952e-18
5.80329e-19
1.53165e-18
2.63914e-18
1.30582e-18
5.82178e-19
1.11791e-18
1.88198e-18
8.7958e-19
1.23918e-18
9.31227e-19
3.45381e-18
5.6819e-19
1.29553e-18
1.70294e-18
7.58161e-19
9.31376e-19
1.03711e-18
1.10894e-18
1.3961e-18
7.92478e-19
6.9909e-19
1.21256e-18
1.05461e-18
5.77383e-19
1.79238e-18
1.84648e-18
2.81971e-18
2.50202e-18
1.5732e-18
5.93098e-19
1.00126e-18
9.40857e-19
1.49067e-18
9.86997e-19
1.01099e-18
9.3084e-19
2.04586e-18
1.75969e-18
1.25405e-18
1.26557e-18
1.2433e-18
3.04597e-18
3.10449e-18
8.63823e-19
1.00063e-18
1.19186e-18
1.76981e-18
2.38531e-18
1.68644e-18
3.15401e-18
2.19132e-18
8.57022e-19
1.53239e-18
1.24777e-18
1.49607e-18
1.37401e-18
7.14696e-19
1.48175e-18
1.24796e-18
6.43637e-19
3.04337e-18
1.74301e-18
8.69832e-19
1.91923e-18
2.62627e-18
1.70786e-18
1.86156e-18
1.56441e-18
7.1144e-19
9.54178e-19
8.90125e-19
1.15446e-18
1.29341e-18
1.29626e-18
1.70579e-18
1.94243e-18
3.34743e-18
3.25793e-18
1.54703e-18
1.39864e-18
1.4228e-18
1.26592e-18
1.42394e-18
1.30964e-18
8.78632e-19
1.36277e-18
9.84652e-19
8.83198e-19
4.04938e-19
2.93989e-18
4.2084e-18
2.38291e-18
7.54165e-19
3.60512e-18
1.25102e-18
6.31485e-19
9.16397e-19
1.53966e-18
2.12325e-18
1.81684e-18
2.27272e-18
2.47278e-18
9.97062e-19
1.62125e-18
1.21416e-18
1.03083e-18
6.10943e-19
2.69263e-18
7.3049e-19
7.79844e-19
1.33126e-18
1.49037e-18
2.41912e-18
1.31352e-18
2.189e-18
9.7941e-19
1.78118e-18
1.56779e-18
2.11093e-18
1.49389e-18
1.20106e-18
9.94695e-19
1.69284e-18
2.72849e-18
1.28205e-18
1.69147e-18
1.4995e-18
1.61374e-18
1.43302e-18
6.61803e-19
3.05121e-18
1.5168e-18
1.71431e-18
1.98233e-18
1.38149e-18
1.75091e-18
1.22246e-18
1.05588e-18
1.43945e-18
8.56656e-19
4.7365e-19
1.78158e-18
1.48783e-18
1.53307e-18
7.63659e-19
1.58409e-18
4.8586e-18
9.65911e-18
9.10539e-18
5.11801e-18
4.77214e-18
1.74288e-18
1.62579e-18
1.19013e-17
5.56196e-17
6.32622e-17
1.67656e-17
4.54016e-18
1.98903e-18
1.11263e-18
9.95611e-19
2.40062e-18
7.35514e-18
1.00403e-17
4.79655e-18
2.11034e-18
1.4221e-18
1.46031e-18
1.25221e-18
8.65792e-19
1.01339e-18
1.32125e-18
1.04359e-18
1.00791e-18
1.47141e-18
2.00556e-18
1.22102e-18
5.98285e-19
2.53622e-19
2.78545e-19
5.27169e-19
1.18017e-18
2.00591e-18
2.94612e-18
1.43471e-18
2.43881e-18
1.88477e-18
1.94779e-18
1.8695e-18
5.05583e-18
4.98686e-18
1.11651e-18
9.4602e-19
1.33987e-18
1.55772e-18
7.75497e-19
9.98142e-19
7.27029e-19
6.96187e-19
1.99956e-18
2.19087e-18
7.99637e-19
3.22075e-18
5.39971e-18
1.21869e-17
2.32444e-17
2.47228e-17
6.27491e-18
1.56569e-18
1.28776e-18
1.42794e-18
1.29484e-18
1.39928e-18
7.63492e-19
8.39968e-19
3.42965e-18
1.07649e-17
5.53869e-18
9.64199e-19
3.86531e-19
6.0486e-19
1.64809e-18
2.79434e-18
8.11192e-19
7.06689e-19
4.27625e-18
1.05498e-17
3.01227e-18
1.6026e-18
2.20473e-18
1.08517e-18
6.01381e-19
7.90261e-19
2.59683e-18
6.12097e-18
4.1757e-18
1.6193e-18
1.41226e-18
2.05947e-18
3.27457e-18
4.4324e-18
3.72847e-18
1.88036e-18
9.26623e-19
5.50796e-19
5.13324e-19
6.22764e-19
3.28736e-19
6.58569e-19
1.38274e-18
1.66371e-18
6.23715e-19
2.767e-18
5.7383e-18
3.42905e-18
3.30297e-18
2.22305e-17
4.66487e-17
2.02939e-17
6.38157e-18
1.60627e-18
7.05688e-19
5.76356e-19
5.10065e-19
5.5817e-19
6.82956e-19
8.41938e-19
9.71699e-19
1.00787e-18
1.58964e-18
3.38091e-18
5.31399e-18
2.9355e-18
1.10101e-18
3.31798e-19
3.44329e-19
5.41767e-19
5.96768e-19
7.85779e-19
3.06627e-18
3.34033e-17
7.1416e-17
1.60338e-17
4.55768e-18
2.81665e-18
2.67971e-18
1.81837e-18
1.27302e-18
1.6169e-18
1.55432e-18
1.44123e-18
1.73207e-18
1.4669e-18
1.18983e-18
1.86641e-18
2.24793e-18
1.01092e-18
8.156e-19
1.71823e-18
1.61112e-18
2.22942e-18
3.66779e-18
4.59386e-18
5.10584e-18
3.21787e-18
2.27526e-18
1.73436e-18
1.05999e-18
7.9199e-19
9.50237e-19
1.81008e-18
2.16448e-18
1.53634e-18
1.27562e-18
1.38701e-18
1.39512e-18
1.34897e-18
1.29003e-18
1.58374e-18
1.78311e-18
2.14243e-18
4.84941e-18
4.82369e-18
3.62463e-18
3.8668e-18
1.93486e-18
9.60432e-19
1.05593e-18
9.54034e-19
1.25742e-18
1.04234e-18
1.50779e-18
1.07083e-18
1.42043e-18
2.12006e-18
1.24314e-18
1.72065e-18
3.49295e-18
8.27522e-19
3.82614e-18
2.2891e-18
9.70867e-19
2.67115e-18
1.75278e-18
1.24101e-18
1.98352e-18
3.51574e-18
1.52702e-18
2.35429e-18
3.44306e-18
1.53966e-18
1.11692e-18
2.69093e-18
3.06947e-19
6.09457e-19
3.08924e-19
8.6248e-19
3.69626e-19
3.32104e-19
1.41691e-18
5.27079e-19
1.87019e-18
4.12955e-19
9.31383e-19
1.60875e-18
5.99846e-19
1.50637e-18
2.61116e-18
1.43781e-18
8.47848e-19
1.70201e-18
2.91542e-18
1.32975e-18
2.68916e-18
1.77946e-18
7.65886e-19
1.47129e-18
9.54384e-19
1.14847e-18
7.57904e-19
5.65783e-19
6.4015e-19
9.41305e-19
1.14806e-18
1.18813e-18
2.98842e-18
1.27632e-18
9.23511e-19
1.29852e-18
1.19735e-18
1.35728e-18
5.24115e-19
8.32502e-19
1.1871e-18
8.07254e-19
7.83047e-19
9.15839e-19
1.17809e-18
1.15277e-18
1.16778e-18
9.03961e-19
2.68914e-18
8.29264e-19
5.72211e-19
6.14032e-19
1.30624e-18
2.70537e-18
1.17611e-18
6.88836e-19
7.49161e-19
1.07427e-18
1.38969e-18
1.4484e-18
2.75952e-18
2.05108e-18
3.19102e-18
9.44253e-19
8.40393e-19
9.57067e-19
1.7354e-18
6.34566e-19
6.61489e-19
1.57269e-18
6.73516e-19
6.22409e-19
3.90185e-19
1.02822e-18
4.47783e-19
1.46511e-18
1.30993e-18
4.69078e-19
6.48215e-19
1.2046e-18
1.26421e-18
1.72432e-18
2.84508e-18
1.4048e-18
1.68948e-18
1.92014e-18
1.97054e-18
8.18671e-19
1.46027e-18
9.36926e-19
1.69754e-18
1.92442e-18
9.3937e-19
6.4288e-19
1.55281e-18
1.01277e-18
5.35967e-19
1.01283e-18
5.23653e-19
4.05065e-19
8.18763e-19
1.0576e-18
1.17985e-18
9.10099e-19
8.21542e-19
1.76649e-18
1.0667e-18
1.39452e-18
2.1511e-18
1.48614e-18
1.44281e-18
8.3944e-19
1.1826e-18
2.06011e-18
1.19439e-18
1.30046e-18
1.07346e-18
6.56579e-19
1.3157e-18
1.12579e-18
1.23816e-18
1.56753e-18
1.43871e-18
1.17674e-18
7.73301e-19
7.93199e-19
1.09398e-18
9.89041e-19
8.52822e-19
9.12452e-19
7.31729e-19
1.05431e-18
1.25619e-18
8.0733e-19
9.63103e-19
2.2197e-18
2.76587e-18
1.53717e-18
1.4083e-18
1.19498e-18
1.45786e-18
1.67861e-18
1.1121e-18
1.02505e-18
1.79767e-18
3.94463e-18
1.7463e-18
1.53606e-18
2.3567e-18
1.45817e-18
1.32453e-18
1.37712e-18
1.23041e-18
9.37966e-19
1.63904e-18
1.07113e-18
1.18011e-18
2.96874e-18
3.2538e-18
9.32735e-19
1.55924e-18
1.40873e-18
1.06298e-18
1.00948e-18
7.0939e-19
1.6202e-18
1.65622e-18
1.63503e-18
1.42652e-18
1.35593e-18
1.29173e-18
1.13756e-18
1.90733e-18
2.80964e-18
2.27097e-18
2.0788e-18
1.64769e-18
9.80104e-19
4.48069e-19
1.14007e-18
2.38823e-18
2.27663e-18
1.16294e-18
1.24967e-18
9.37746e-19
5.50986e-19
7.4626e-19
1.39203e-18
1.11726e-18
1.43373e-18
1.60229e-18
2.69712e-18
5.81501e-18
3.39668e-17
5.79167e-17
1.87313e-17
2.89166e-18
1.88103e-18
2.30333e-18
5.26432e-18
1.24104e-17
1.25766e-17
6.91932e-18
3.00565e-18
1.63671e-18
1.18837e-18
1.17537e-18
1.74218e-18
2.78975e-18
2.93417e-18
2.15913e-18
1.24899e-18
9.17358e-19
1.00992e-18
9.9161e-19
7.0568e-19
6.8317e-19
9.0465e-19
9.3492e-19
8.34054e-19
1.0223e-18
1.36224e-18
9.48566e-19
4.93129e-19
3.4276e-19
5.2739e-19
9.54579e-19
1.56276e-18
2.0711e-18
2.36784e-18
1.60087e-18
1.40389e-18
2.51533e-18
1.92466e-18
1.21953e-18
1.87228e-18
2.5391e-18
7.75966e-19
8.90318e-19
1.73672e-18
9.79244e-19
6.44824e-19
8.41456e-19
1.73663e-18
2.44869e-18
1.669e-18
1.85897e-18
1.17347e-18
2.36875e-18
3.5158e-18
2.4912e-17
7.43247e-17
4.77552e-17
7.92579e-18
1.42994e-18
7.97037e-19
1.07847e-18
1.3285e-18
1.14783e-18
9.69509e-19
8.62837e-19
1.28306e-18
2.8404e-18
3.04229e-18
9.98037e-19
4.69693e-19
6.05854e-19
1.16108e-18
1.77817e-18
1.42021e-18
9.93582e-19
1.71786e-18
3.68274e-18
2.39806e-18
1.23225e-18
1.73309e-18
2.57606e-18
2.00903e-18
1.55896e-18
1.51355e-18
2.90345e-18
5.41548e-18
3.64809e-18
2.06216e-18
2.37666e-18
3.1284e-18
2.97304e-18
1.90362e-18
8.70119e-19
6.35213e-19
7.59159e-19
7.9217e-19
8.82265e-19
9.17567e-19
9.74717e-19
7.24166e-19
4.62267e-19
6.5083e-19
3.53202e-18
2.16106e-17
2.46249e-17
8.13268e-18
3.72653e-17
1.45039e-16
1.09835e-16
3.15105e-18
8.04328e-19
5.34203e-19
5.27463e-19
7.22031e-19
1.04784e-18
1.16704e-18
9.6424e-19
9.17591e-19
1.19486e-18
1.57831e-18
1.91806e-18
2.32303e-18
1.56925e-18
8.13027e-19
4.09693e-19
5.52177e-19
1.13713e-18
1.18753e-18
1.24305e-18
3.39346e-18
1.9943e-17
4.15372e-17
1.4307e-17
3.10713e-18
1.44627e-18
1.2449e-18
1.19486e-18
9.46041e-19
1.03866e-18
1.62536e-18
1.61621e-18
1.2686e-18
1.13536e-18
9.81937e-19
1.10944e-18
1.81233e-18
2.11065e-18
1.91245e-18
2.11953e-18
2.08031e-18
2.15201e-18
3.34596e-18
3.94798e-18
3.35138e-18
2.92829e-18
2.39284e-18
1.49207e-18
7.51627e-19
7.51061e-19
1.22538e-18
2.16329e-18
2.90597e-18
1.78004e-18
1.13449e-18
1.40567e-18
1.94895e-18
1.61934e-18
9.02327e-19
8.68786e-19
1.56812e-18
2.7355e-18
3.43689e-18
3.75241e-18
1.73479e-18
1.33703e-18
1.84304e-18
1.28093e-18
1.25256e-18
2.26859e-18
3.36172e-18
3.39043e-18
2.98712e-18
2.19882e-18
1.58608e-18
1.38757e-18
9.13441e-19
8.54911e-19
1.77166e-18
1.19288e-18
1.48199e-18
2.20664e-18
2.87177e-18
1.87538e-18
1.20364e-18
2.25145e-18
2.62625e-18
2.87896e-18
1.95484e-18
1.1732e-18
2.80041e-18
2.88862e-18
2.08637e-18
2.59131e-18
1.36309e-18
3.52695e-19
6.62064e-19
6.25459e-19
4.14812e-19
1.80032e-18
1.71632e-18
2.06031e-18
2.26932e-18
2.38769e-18
2.22483e-18
1.46518e-18
2.30168e-18
1.30349e-18
1.79558e-18
7.86815e-19
8.81294e-19
9.94745e-19
7.53975e-19
2.48498e-18
1.33604e-18
1.73625e-18
1.45199e-18
1.15001e-18
1.31717e-18
6.49544e-19
2.41486e-18
6.52322e-19
1.09262e-18
2.66428e-18
6.86074e-19
8.59232e-19
1.46616e-18
7.82201e-19
2.33156e-19
5.42844e-19
7.82819e-19
1.21437e-18
1.50882e-18
1.76102e-18
1.4625e-18
1.7789e-18
4.33185e-19
9.09709e-19
2.55443e-18
2.72056e-18
1.5866e-18
1.1914e-18
1.20864e-18
1.59567e-18
1.06099e-18
1.12652e-18
7.84788e-19
1.03517e-18
7.70159e-19
2.07557e-18
1.63154e-18
4.29343e-19
1.32162e-18
1.07569e-18
7.70408e-19
6.61979e-19
1.00518e-18
8.76312e-19
1.61883e-18
1.13016e-18
2.14151e-18
9.84946e-19
6.80072e-19
8.79646e-19
1.20528e-18
1.18138e-18
9.84675e-19
1.53579e-18
1.94525e-18
5.44383e-19
5.71869e-19
7.92043e-19
1.51374e-18
2.61455e-18
1.951e-18
6.8255e-19
1.44924e-18
1.11683e-18
3.54517e-19
1.99286e-18
1.69043e-18
1.25993e-18
9.16198e-19
2.22611e-18
2.48626e-18
2.27084e-18
2.7512e-18
1.14009e-18
2.54445e-18
8.2059e-19
1.60586e-18
1.21246e-18
1.09273e-18
7.3097e-19
1.74038e-18
6.55771e-19
6.08058e-19
1.02029e-18
2.54824e-18
1.27686e-18
1.50996e-18
2.24496e-18
1.7221e-18
2.33585e-18
2.70204e-18
1.84296e-18
1.29561e-18
1.37324e-18
1.56488e-18
8.82922e-19
1.74493e-18
1.34338e-18
8.47562e-19
9.99919e-19
1.54119e-18
1.62017e-18
2.16733e-18
2.0651e-18
1.05422e-18
9.20473e-19
8.58412e-19
1.28151e-18
5.51716e-19
1.30109e-18
1.83485e-18
1.9661e-18
1.18553e-18
8.93279e-19
1.20609e-18
1.01673e-18
1.66672e-18
1.33189e-18
1.62374e-18
1.98554e-18
1.1435e-18
1.63286e-18
1.38786e-18
1.00498e-18
1.06077e-18
1.77909e-18
6.29728e-19
1.02618e-18
1.83788e-18
1.86278e-18
2.48524e-18
1.66271e-18
1.12347e-18
7.69996e-19
2.07775e-18
1.15786e-18
1.17515e-18
8.3298e-19
8.35137e-19
1.23087e-18
1.28016e-18
2.4205e-18
2.31758e-18
1.11271e-18
1.55364e-18
1.76637e-18
2.00619e-18
2.21043e-18
1.94447e-18
9.60426e-19
1.1431e-18
1.91149e-18
3.1066e-18
4.71456e-18
5.75345e-18
3.56197e-18
1.46829e-18
1.52876e-18
2.34443e-18
1.65463e-18
1.59363e-18
1.60187e-18
9.14756e-19
7.98249e-19
1.28647e-18
1.26213e-18
5.12444e-19
4.77581e-19
1.2444e-18
1.65701e-18
1.91731e-18
2.22751e-18
7.84859e-18
6.43886e-17
1.311e-16
3.38546e-17
3.72136e-18
1.65814e-18
2.44644e-18
3.48673e-18
4.25364e-18
3.44269e-18
2.58094e-18
2.17946e-18
1.97863e-18
1.59872e-18
1.19204e-18
9.94786e-19
1.37161e-18
2.0143e-18
2.28366e-18
1.59898e-18
1.14823e-18
1.05367e-18
1.05349e-18
7.96533e-19
6.86174e-19
1.00429e-18
1.42644e-18
1.40801e-18
1.21558e-18
1.04629e-18
8.76314e-19
6.76675e-19
6.26198e-19
9.38152e-19
1.48964e-18
1.89845e-18
2.23956e-18
2.21596e-18
1.5714e-18
1.06099e-18
9.22079e-19
1.00186e-18
9.54452e-19
1.21067e-18
1.29007e-18
5.24393e-19
4.19094e-19
8.17993e-19
1.08472e-18
1.27297e-18
1.62003e-18
1.19635e-18
9.20128e-19
8.83716e-19
7.17031e-19
1.3002e-18
1.90761e-18
3.24877e-18
2.05435e-17
1.37431e-16
1.03377e-16
9.1483e-18
1.56086e-18
5.51415e-19
6.42076e-19
9.70281e-19
1.00074e-18
9.39005e-19
1.09013e-18
1.49167e-18
2.24711e-18
2.97206e-18
1.86022e-18
7.92508e-19
6.75853e-19
1.07604e-18
1.70907e-18
1.9549e-18
1.26843e-18
8.04647e-19
1.41129e-18
2.78865e-18
3.39853e-18
4.41498e-18
5.57133e-18
3.34595e-18
1.11258e-18
5.86365e-19
1.13765e-18
3.19465e-18
5.30719e-18
4.29149e-18
2.97875e-18
2.00722e-18
1.53033e-18
1.09665e-18
9.22271e-19
1.05617e-18
9.8207e-19
7.39645e-19
6.90299e-19
1.01308e-18
1.33135e-18
7.64114e-19
4.25631e-19
6.88736e-19
3.44374e-18
2.5061e-17
8.74057e-17
5.43371e-17
2.17557e-17
2.02762e-17
2.14096e-17
1.40158e-17
4.83137e-18
1.45517e-18
9.32056e-19
1.23192e-18
1.7097e-18
1.83929e-18
1.79921e-18
1.58105e-18
1.47365e-18
1.48899e-18
1.46765e-18
1.53022e-18
1.78038e-18
1.57275e-18
1.02881e-18
7.8062e-19
7.20648e-19
7.52497e-19
1.4078e-18
3.50123e-18
9.27001e-18
1.19946e-17
3.65016e-18
1.6957e-18
9.46564e-19
7.92616e-19
9.12605e-19
1.20377e-18
1.37928e-18
1.31902e-18
1.29808e-18
1.41737e-18
1.55344e-18
2.39021e-18
3.20638e-18
3.52736e-18
3.9971e-18
4.50273e-18
3.35714e-18
2.12048e-18
1.61495e-18
1.62646e-18
2.28424e-18
3.45135e-18
3.66642e-18
1.90891e-18
1.09577e-18
7.88314e-19
6.7715e-19
7.56134e-19
8.94658e-19
1.01587e-18
1.37295e-18
1.3865e-18
1.45175e-18
1.48445e-18
1.611e-18
1.83181e-18
2.37283e-18
2.25752e-18
2.05574e-18
1.86693e-18
1.57613e-18
2.13002e-18
1.29657e-18
9.2534e-19
1.51989e-18
1.54967e-18
2.12175e-18
2.72268e-18
2.13166e-18
2.27076e-18
2.15239e-18
1.77226e-18
1.56723e-18
9.84084e-19
5.72857e-19
1.06664e-18
2.00817e-18
2.09368e-18
7.24288e-19
2.73462e-18
4.28314e-18
2.60888e-18
1.45887e-18
1.62124e-18
2.48649e-18
1.22308e-18
2.21757e-18
1.54088e-18
9.65222e-19
8.07941e-19
1.85686e-18
1.39062e-18
1.08146e-18
8.26347e-19
8.70305e-19
6.7e-19
8.27649e-19
1.4321e-18
1.83402e-18
2.27355e-18
1.12931e-18
9.72753e-19
9.24411e-19
5.45358e-19
1.25577e-18
1.04321e-18
5.55226e-19
6.57336e-19
2.09177e-19
1.66326e-18
2.8107e-18
8.37096e-19
4.75714e-19
1.50266e-18
1.45734e-18
2.18927e-18
2.78668e-18
9.26427e-19
7.11144e-19
4.34586e-19
7.25085e-19
8.28414e-19
3.92388e-19
1.24964e-18
2.12951e-18
9.0962e-19
1.20817e-18
1.08304e-18
5.67298e-19
8.65707e-19
1.71704e-18
1.15879e-18
4.83694e-19
8.38974e-19
1.22484e-18
2.56602e-18
1.87329e-18
9.36347e-19
1.84758e-18
9.87899e-19
6.88313e-19
7.32194e-19
1.21333e-18
8.11256e-19
1.51345e-18
3.05916e-18
1.22801e-18
1.29278e-18
1.32668e-18
1.0524e-18
7.07708e-19
1.07095e-18
1.37861e-18
7.14046e-19
1.19232e-18
1.27747e-18
6.76429e-19
8.73722e-19
8.03675e-19
8.55237e-19
5.44727e-19
6.24857e-19
1.33524e-18
1.30846e-18
1.59494e-18
9.92037e-19
1.55031e-18
9.21436e-19
8.12166e-19
1.74337e-18
1.41165e-18
1.85964e-18
2.14533e-18
9.82417e-19
1.12116e-18
1.04373e-18
2.6092e-18
7.80655e-19
8.98226e-19
1.28509e-18
1.12126e-18
1.45582e-18
2.09659e-18
1.29585e-18
1.21638e-18
1.1732e-18
1.23259e-18
1.04805e-18
8.31127e-19
1.12994e-18
1.18207e-18
8.46422e-19
1.19964e-18
1.07879e-18
7.67743e-19
6.17248e-19
1.19022e-18
1.79729e-18
1.52815e-18
6.8916e-19
2.19477e-18
2.24196e-18
2.84176e-18
2.64791e-18
1.45359e-18
1.36862e-18
1.38186e-18
9.98327e-19
9.61178e-19
1.82107e-18
2.76811e-18
2.20745e-18
7.64285e-19
7.91957e-19
2.3791e-18
1.67154e-18
1.03985e-18
1.46583e-18
1.11888e-18
1.16871e-18
1.16468e-18
2.17496e-18
1.72938e-18
8.62949e-19
8.07073e-19
1.01898e-18
1.24663e-18
7.63724e-19
1.17881e-18
1.22414e-18
1.21531e-18
1.14964e-18
1.62207e-18
1.1935e-18
1.29205e-18
2.42254e-18
2.48014e-18
2.12357e-18
1.43975e-18
2.0962e-18
1.16717e-18
1.37639e-18
1.81463e-18
1.10144e-18
8.8803e-19
1.44327e-18
1.28237e-18
1.09689e-18
1.2283e-18
1.62462e-18
2.19107e-18
1.97374e-18
2.05366e-18
1.88229e-18
9.06012e-19
6.58592e-19
1.35834e-18
2.21759e-18
2.44219e-18
1.84089e-18
9.13519e-19
5.04094e-19
6.48996e-19
1.80921e-18
3.36649e-18
2.60781e-18
2.7165e-18
1.54184e-18
1.53984e-18
1.47154e-18
1.09114e-18
1.63114e-18
1.51271e-18
1.21304e-18
1.16585e-18
1.13877e-18
1.21163e-18
1.53333e-18
1.51926e-18
9.46893e-19
6.43326e-19
6.7583e-19
2.49095e-18
1.56138e-17
1.09461e-16
2.02457e-16
3.56198e-17
3.71631e-18
9.38816e-19
1.13151e-18
1.61348e-18
1.82331e-18
1.43279e-18
1.04902e-18
1.15501e-18
1.54099e-18
2.05661e-18
1.58926e-18
1.30563e-18
1.32295e-18
1.68357e-18
2.11039e-18
2.2635e-18
1.74212e-18
1.17607e-18
1.03051e-18
1.13353e-18
1.44066e-18
2.05106e-18
2.67376e-18
2.4501e-18
1.5076e-18
9.78984e-19
9.02981e-19
1.08879e-18
1.28173e-18
1.60262e-18
1.9305e-18
1.77076e-18
1.42776e-18
1.24808e-18
1.09152e-18
8.44246e-19
8.35179e-19
1.0189e-18
1.24558e-18
1.13175e-18
1.07998e-18
8.17613e-19
4.92295e-19
5.41038e-19
1.46237e-18
1.82321e-18
1.32055e-18
9.52697e-19
8.81026e-19
1.87208e-18
3.66016e-18
3.84649e-18
3.28579e-18
4.38783e-18
2.39541e-17
1.0234e-16
1.25337e-16
1.2986e-17
1.33868e-18
4.24696e-19
4.03696e-19
5.73616e-19
8.0797e-19
9.62901e-19
1.16227e-18
1.4801e-18
1.90505e-18
2.23582e-18
2.09222e-18
1.36349e-18
8.61685e-19
7.18735e-19
8.55559e-19
1.1292e-18
8.83419e-19
7.07995e-19
7.48301e-19
3.64101e-18
1.00564e-17
8.28931e-18
4.33123e-18
2.37635e-18
1.06522e-18
7.38988e-19
1.42999e-18
3.2266e-18
6.52074e-18
6.35598e-18
3.3935e-18
1.50426e-18
9.98007e-19
8.57768e-19
9.77031e-19
9.58009e-19
8.09351e-19
8.58689e-19
1.35044e-18
1.82472e-18
1.44701e-18
8.0518e-19
5.60283e-19
7.20732e-19
2.34395e-18
1.64001e-17
9.80032e-17
8.09381e-17
7.59271e-18
2.9702e-18
2.19986e-18
2.88171e-18
1.33323e-18
1.63396e-18
1.82356e-18
1.98469e-18
2.14339e-18
2.0525e-18
1.64392e-18
1.205e-18
9.98666e-19
1.21127e-18
1.7387e-18
2.46868e-18
3.48057e-18
4.59326e-18
4.233e-18
2.97053e-18
2.30208e-18
2.20245e-18
2.78463e-18
4.27055e-18
7.50025e-18
5.50757e-18
3.6062e-18
2.11955e-18
1.19685e-18
7.77249e-19
8.74302e-19
1.32181e-18
1.86714e-18
1.94539e-18
1.18231e-18
8.47981e-19
8.30849e-19
1.15676e-18
2.06801e-18
2.24512e-18
2.17222e-18
2.8087e-18
3.08983e-18
2.131e-18
1.67807e-18
2.25994e-18
3.28015e-18
3.81312e-18
2.41364e-18
1.18509e-18
8.11108e-19
8.27446e-19
9.09659e-19
8.2312e-19
1.03453e-18
1.70577e-18
1.95609e-18
1.6956e-18
1.3747e-18
1.26992e-18
1.57749e-18
1.9611e-18
1.84747e-18
1.86142e-18
1.87737e-18
1.73572e-18
1.63201e-18
1.48362e-18
1.21109e-18
1.39903e-18
1.41864e-18
1.76923e-18
2.35898e-18
1.91792e-18
1.81409e-18
2.12558e-18
2.29542e-18
1.4918e-18
6.9742e-19
6.78223e-19
1.91921e-18
1.46612e-18
1.51288e-18
2.38177e-18
2.7278e-18
2.31362e-18
3.18957e-18
3.1735e-18
1.11235e-18
1.08903e-18
2.02461e-18
4.04098e-18
2.94589e-18
1.76037e-18
1.97894e-18
1.68384e-18
2.24709e-18
1.02555e-18
5.85491e-19
1.65983e-18
1.54281e-18
1.31572e-18
1.35671e-19
6.83772e-19
4.84762e-19
5.66478e-19
1.92982e-18
1.25074e-18
7.46004e-19
1.24308e-18
5.19151e-19
6.30249e-19
3.19537e-19
7.51484e-19
1.43287e-18
6.86717e-19
1.94972e-18
1.70137e-18
1.85692e-18
2.7162e-18
8.2864e-19
8.69111e-19
1.1201e-18
1.82839e-18
1.52096e-18
1.88516e-18
9.51314e-19
4.27782e-19
6.99778e-19
8.22381e-19
3.28668e-19
8.16171e-19
4.70844e-19
2.22054e-18
8.87024e-19
8.75862e-19
1.02339e-18
1.16154e-18
1.73095e-18
8.12471e-19
8.69541e-19
1.2603e-18
2.06414e-18
2.12114e-18
1.24446e-18
1.39886e-18
7.81746e-19
7.6696e-19
1.13022e-18
1.23406e-18
1.0391e-18
1.07661e-18
1.28323e-18
2.69266e-18
1.68804e-18
7.5901e-19
1.18539e-18
1.42005e-18
8.85379e-19
1.24874e-18
1.48357e-18
1.16923e-18
7.84208e-19
1.07961e-18
9.55843e-19
5.4856e-19
1.25673e-18
7.23293e-19
1.05143e-18
2.32698e-18
1.83079e-18
1.08829e-18
1.46625e-18
2.87845e-18
1.80092e-18
2.28975e-18
2.52303e-18
1.24687e-18
1.10719e-18
2.48358e-18
1.64218e-18
1.0772e-18
8.14207e-19
7.52546e-19
1.25157e-18
1.59645e-18
1.17395e-18
1.08751e-18
1.67962e-18
2.08722e-18
1.6973e-18
2.81685e-18
2.37995e-18
1.57183e-18
8.01294e-19
1.1981e-18
2.22754e-18
1.26512e-18
7.54866e-19
9.56951e-19
4.09261e-19
3.85617e-19
7.92541e-19
4.55157e-19
6.76792e-19
1.01857e-18
1.95015e-18
2.95146e-18
1.71597e-18
1.36341e-18
8.86766e-19
1.27593e-18
1.98724e-18
2.1017e-18
1.31328e-18
7.77979e-19
7.00238e-19
1.29266e-18
1.14907e-18
7.71159e-19
7.47691e-19
7.47674e-19
1.96625e-18
2.35982e-18
1.63874e-18
2.97872e-18
1.67782e-18
2.5695e-18
2.51654e-18
1.62691e-18
1.75899e-18
1.52796e-18
1.20072e-18
9.38939e-19
1.06501e-18
1.46363e-18
9.27913e-19
6.42745e-19
1.04212e-18
2.56414e-18
1.77569e-18
1.8141e-18
1.62147e-18
1.69337e-18
1.38516e-18
1.13059e-18
1.60648e-18
2.16086e-18
1.383e-18
1.02476e-18
1.6143e-18
2.01473e-18
1.73437e-18
9.86949e-19
1.03654e-18
1.12829e-18
1.8126e-18
1.42845e-18
1.65992e-18
1.10577e-18
8.6845e-19
1.36901e-18
1.61184e-18
2.51523e-18
3.15532e-18
2.94743e-18
1.2205e-18
1.04695e-18
1.03563e-18
8.88279e-19
9.51712e-19
1.16389e-18
1.01454e-18
1.15241e-18
1.0767e-18
8.72143e-19
1.64284e-18
2.56898e-18
2.13339e-18
1.16086e-18
1.45832e-18
1.38796e-18
1.48708e-18
2.36441e-18
1.88527e-18
9.04566e-19
8.16343e-19
1.15481e-18
2.631e-18
2.98678e-17
2.1962e-16
2.77258e-16
3.72427e-17
3.94657e-18
8.78246e-19
1.00217e-18
1.52967e-18
1.81283e-18
1.56416e-18
1.19582e-18
1.01265e-18
1.14701e-18
1.41325e-18
1.72275e-18
1.80881e-18
1.71491e-18
1.74869e-18
1.87348e-18
2.00367e-18
1.81013e-18
1.3816e-18
1.20261e-18
1.38574e-18
1.67754e-18
1.87622e-18
2.08321e-18
2.16077e-18
1.63017e-18
1.25026e-18
1.10265e-18
1.22823e-18
1.50342e-18
1.51378e-18
1.30901e-18
9.37194e-19
6.54521e-19
6.168e-19
8.46533e-19
1.04764e-18
1.0362e-18
9.8712e-19
1.1043e-18
1.30349e-18
1.3393e-18
8.07154e-19
4.1735e-19
4.24204e-19
9.34369e-19
1.98601e-18
1.67189e-18
1.12599e-18
1.12206e-18
1.81884e-18
3.82083e-18
4.43717e-18
3.38365e-18
4.75783e-18
2.0672e-17
5.17752e-17
1.83246e-17
5.67591e-18
2.08694e-18
8.99931e-19
6.16224e-19
5.68557e-19
6.80206e-19
1.00122e-18
1.40362e-18
1.74501e-18
1.81394e-18
1.53215e-18
1.37447e-18
1.17549e-18
9.12899e-19
9.77049e-19
1.42795e-18
2.16587e-18
1.64549e-18
1.14608e-18
1.13282e-18
2.50633e-18
1.22204e-17
1.34207e-17
4.34926e-18
1.70795e-18
1.05594e-18
9.32547e-19
1.31679e-18
2.40005e-18
4.62216e-18
6.22728e-18
3.89121e-18
1.53669e-18
1.00336e-18
1.2042e-18
1.80739e-18
2.14625e-18
2.04761e-18
1.89836e-18
1.77262e-18
1.40968e-18
1.15736e-18
1.22551e-18
1.49137e-18
1.60908e-18
2.24316e-18
8.26561e-18
3.19632e-17
2.66804e-17
6.98999e-18
2.02291e-18
1.13022e-18
9.56011e-19
7.99186e-19
6.43141e-19
8.92479e-19
1.68647e-18
2.1666e-18
2.11116e-18
1.71798e-18
1.37735e-18
1.16457e-18
1.31252e-18
1.94364e-18
3.1469e-18
4.49496e-18
5.34107e-18
3.97929e-18
2.66812e-18
1.41661e-18
9.02593e-19
1.0855e-18
1.91092e-18
3.11987e-18
3.21699e-18
1.75976e-18
1.20164e-18
8.93843e-19
7.67207e-19
1.02834e-18
1.63916e-18
1.91035e-18
1.73162e-18
1.33692e-18
9.62313e-19
7.3748e-19
6.61935e-19
8.86461e-19
1.68451e-18
2.26274e-18
2.26077e-18
2.37225e-18
2.05143e-18
1.55923e-18
1.77033e-18
2.31799e-18
2.24168e-18
2.01585e-18
2.34221e-18
2.28738e-18
1.37526e-18
1.04665e-18
1.28161e-18
2.03278e-18
2.35552e-18
2.21437e-18
2.60995e-18
2.59352e-18
2.06115e-18
1.64403e-18
1.54564e-18
1.72949e-18
1.77429e-18
1.55035e-18
1.29135e-18
1.64072e-18
1.51427e-18
1.13113e-18
1.35948e-18
1.25181e-18
8.84791e-19
7.1954e-19
1.17647e-18
2.56523e-18
3.96324e-18
2.62798e-18
2.41335e-18
2.61243e-18
2.36444e-18
2.13665e-18
3.32915e-18
1.82824e-18
1.18334e-18
1.45198e-18
1.78262e-18
1.69057e-18
6.67069e-19
9.75763e-19
9.85666e-19
4.67853e-19
1.06442e-18
2.13808e-18
1.83322e-18
2.51453e-18
3.04237e-18
1.54616e-18
2.19752e-18
9.47003e-19
1.27788e-18
4.43574e-18
4.42534e-18
1.7765e-18
4.72132e-19
4.76818e-19
7.82295e-19
7.75895e-19
9.7324e-19
1.33637e-18
1.56883e-18
3.7426e-18
1.66738e-18
1.36198e-18
8.60371e-19
1.05329e-18
6.87697e-19
1.38495e-18
1.84365e-18
1.47393e-18
9.03142e-19
1.02573e-18
6.399e-19
1.05695e-18
7.40245e-19
2.16261e-18
3.7391e-18
1.16498e-18
7.20445e-19
7.63773e-19
1.69034e-18
1.98208e-18
7.71052e-19
1.52453e-18
8.06186e-19
1.67832e-18
1.20222e-18
1.34015e-18
4.95112e-19
9.66536e-19
7.22917e-19
2.20186e-18
2.1232e-18
2.29173e-18
1.04315e-18
1.18083e-18
2.11972e-18
2.1016e-18
9.64832e-19
8.10926e-19
1.31521e-18
8.7968e-19
6.04555e-19
9.87355e-19
8.41785e-19
1.46507e-18
2.14599e-18
8.89387e-19
1.23014e-18
1.83025e-18
1.10071e-18
9.55428e-19
1.51281e-18
9.53808e-19
8.56984e-19
7.59192e-19
5.70887e-19
7.70598e-19
1.48619e-18
1.8823e-18
6.77533e-19