/*--------------------------------*- C++ -*----------------------------------*\
  =========                 |
  \\      /  F ield         | OpenFOAM: The Open Source CFD Toolbox
   \\    /   O peration     | Website:  https://openfoam.org
    \\  /    A nd           | Version:  7
     \\/     M anipulation  |
\*---------------------------------------------------------------------------*/
FoamFile
{
    version     2.0;
    format      ascii;
    class       volScalarField;
    location    "3000";
    object      k2Write;
}
// * * * * * * * * * * * * * * * * * * * * * * * * * * * * * * * * * * * * * //

dimensions      [0 2 0 0 0 0 0];

internalField   nonuniform List<scalar> 
160000
(
1.56005e-18
2.21088e-18
2.03437e-18
3.00785e-18
4.3041e-18
2.07243e-18
3.45731e-18
1.35209e-18
2.20923e-18
4.59446e-18
3.53529e-18
2.47409e-18
4.63195e-18
3.96684e-18
1.4104e-18
2.13685e-18
1.51816e-18
1.5283e-18
2.95525e-18
2.74878e-18
2.70291e-18
2.42132e-18
3.00585e-18
4.09007e-18
3.41096e-18
4.93834e-18
4.61661e-18
2.83118e-18
3.14477e-18
1.76701e-18
1.9192e-18
3.42847e-18
7.52031e-18
3.37072e-18
2.82906e-18
3.86691e-18
4.21048e-18
5.23871e-18
1.45571e-18
2.68217e-18
2.84002e-18
2.9247e-18
4.03038e-18
2.09801e-18
3.68005e-18
3.20433e-18
2.80818e-18
1.81794e-18
3.43031e-18
2.01521e-18
3.02298e-18
6.30087e-18
3.93152e-18
2.65225e-18
4.96434e-18
1.83801e-18
5.10235e-18
1.51218e-18
1.33711e-18
2.01891e-18
8.78732e-18
2.46943e-18
2.32786e-18
1.82904e-18
1.45142e-18
5.55131e-18
3.65033e-18
4.34444e-18
1.12149e-18
5.38209e-19
5.06489e-18
1.62709e-18
4.27077e-18
2.00438e-18
3.33555e-18
2.64474e-18
3.67532e-18
2.36778e-18
4.6919e-18
2.74107e-18
5.10466e-18
6.8212e-18
3.38714e-18
2.5584e-18
2.52264e-18
2.31022e-18
2.34653e-18
1.51657e-18
2.28405e-18
3.6967e-18
1.42955e-18
4.80707e-18
5.6978e-18
4.84727e-18
3.24748e-18
1.48287e-18
2.67241e-18
1.99469e-18
2.13079e-18
1.33974e-18
2.48484e-18
9.87033e-19
3.75826e-18
1.95891e-18
1.30254e-18
3.13595e-18
1.19737e-18
2.94261e-18
3.57082e-18
3.4574e-18
4.81886e-18
1.47463e-18
4.39723e-18
2.09487e-18
1.76256e-18
2.50772e-18
1.47182e-18
2.03826e-18
3.96661e-18
3.00552e-18
2.47661e-18
1.69438e-18
2.9016e-18
3.51185e-18
4.19465e-18
6.88017e-18
5.37478e-18
2.14878e-18
2.87048e-18
3.08677e-18
2.03302e-18
1.38848e-18
2.36308e-18
5.72689e-18
3.50151e-18
2.94772e-18
1.80638e-18
2.63656e-18
1.57333e-18
9.48808e-19
2.73691e-18
3.92458e-18
7.65744e-19
2.79208e-18
5.97055e-18
2.92941e-18
3.00507e-18
2.77139e-18
2.33955e-18
1.38084e-18
1.11155e-18
1.97409e-18
1.18528e-18
3.03667e-18
1.04616e-18
2.5165e-18
2.52922e-18
4.78219e-18
3.02851e-18
3.53545e-18
1.93741e-18
2.49026e-18
1.94149e-18
4.49783e-18
1.14976e-18
2.79039e-18
2.8197e-18
1.55231e-18
2.20671e-18
1.56733e-18
4.73651e-18
6.70374e-18
2.3458e-18
6.28322e-18
3.36349e-18
1.60041e-18
2.2706e-18
2.46948e-18
5.45045e-18
4.80664e-18
1.02199e-18
3.67789e-18
1.44992e-18
1.01054e-18
1.08109e-18
1.20271e-18
1.59968e-18
1.55824e-18
1.11011e-18
2.15995e-18
3.19284e-18
3.12673e-18
5.64017e-18
1.03965e-17
2.04424e-17
1.50048e-18
1.27108e-18
1.10049e-17
7.28828e-17
1.42363e-16
7.55136e-17
3.00833e-17
1.18684e-17
3.64572e-18
1.52175e-18
4.09777e-18
1.31117e-17
1.89423e-17
1.2824e-17
8.36444e-18
7.18217e-18
7.61787e-18
5.4977e-18
3.52837e-18
4.0251e-18
4.02513e-18
2.0578e-18
2.20843e-18
6.04014e-18
9.41833e-18
8.58971e-18
4.74907e-18
9.74324e-19
6.06324e-19
6.44498e-19
1.04462e-18
2.47424e-18
9.31002e-19
2.60936e-18
2.30603e-18
6.3265e-19
1.46106e-18
1.05544e-18
2.3791e-18
2.24848e-18
3.05816e-18
1.40513e-18
2.56468e-18
1.24528e-18
2.14025e-18
1.52004e-18
1.01738e-18
1.41023e-18
1.06962e-18
1.64969e-18
1.47705e-18
2.1283e-18
2.38784e-18
1.60498e-17
7.37663e-17
1.27775e-16
5.8207e-17
1.59029e-17
5.88647e-18
2.9303e-18
3.37453e-18
3.00823e-18
8.44129e-19
7.91825e-19
8.80366e-18
5.05963e-17
1.65879e-17
3.24577e-18
8.68896e-19
7.82417e-19
2.55856e-18
2.99394e-18
6.94068e-19
1.04236e-18
7.25452e-18
3.71839e-18
2.33588e-18
3.79586e-18
3.0585e-18
1.32394e-18
6.53532e-19
8.92192e-19
4.90466e-18
4.05517e-18
3.27968e-18
1.81548e-18
1.69038e-18
2.19502e-18
3.71094e-18
5.00749e-18
3.95563e-18
4.988e-18
1.94455e-18
1.68031e-18
1.75745e-18
1.66904e-18
3.83378e-19
7.15601e-19
1.16945e-18
1.50628e-18
1.9197e-18
3.22543e-18
7.89584e-19
1.94857e-18
1.55261e-18
8.8525e-18
9.72652e-17
3.18761e-16
2.41932e-16
9.97718e-17
4.75981e-17
2.49153e-17
1.42285e-17
7.80033e-18
4.46131e-18
3.4039e-18
1.94142e-18
1.10993e-18
1.94515e-18
5.16753e-18
1.45827e-17
1.60311e-17
4.46097e-18
1.11037e-18
9.63649e-19
6.29671e-19
5.90758e-19
4.81001e-19
2.226e-18
1.08649e-17
3.45421e-17
2.64419e-17
1.26591e-17
9.2751e-18
7.9356e-18
4.55732e-18
3.96932e-18
4.05371e-18
3.24012e-18
3.10629e-18
3.0954e-18
2.36023e-18
2.18996e-18
6.46476e-18
7.98421e-18
1.7008e-18
1.39021e-18
2.11748e-18
1.79154e-18
2.533e-18
2.08135e-18
2.56578e-18
5.89255e-18
9.68584e-18
6.89278e-18
4.66178e-18
2.25282e-18
1.90448e-18
1.55475e-18
2.45152e-18
2.66435e-18
2.89033e-18
2.88814e-18
2.77309e-18
1.69077e-18
1.21823e-18
1.08934e-18
1.52941e-18
1.24019e-18
2.77876e-18
4.13076e-18
2.55478e-18
6.44672e-18
7.34991e-18
3.37067e-18
2.32693e-18
2.82347e-18
2.71201e-18
6.50169e-18
2.2948e-18
4.30727e-18
1.92599e-18
1.73628e-18
1.24421e-18
1.36275e-18
1.75286e-18
1.57779e-18
1.3849e-18
2.4358e-18
2.86278e-18
2.90218e-18
3.83513e-18
3.51654e-18
2.36632e-18
1.92377e-18
2.54327e-18
1.97732e-18
3.1137e-18
2.76249e-18
1.75303e-18
6.94752e-18
4.84163e-18
1.46996e-18
1.06052e-17
6.37471e-18
6.34283e-18
1.43961e-18
2.08484e-18
1.91367e-18
1.66195e-18
2.21576e-18
3.4914e-18
2.47351e-18
2.62441e-18
2.9989e-18
3.43373e-18
2.03842e-18
2.46701e-18
3.01008e-18
4.4143e-18
1.7443e-18
1.8928e-18
6.68328e-18
6.04382e-18
3.85269e-18
2.15134e-18
2.59882e-18
4.06163e-18
3.6433e-18
1.39364e-18
2.58279e-18
6.70798e-18
5.53986e-18
2.73432e-18
4.22596e-18
3.20181e-18
2.39856e-18
3.23319e-18
2.43898e-18
1.54943e-18
3.5728e-18
5.37589e-18
6.39926e-19
3.5938e-18
6.27279e-18
3.10332e-18
2.03258e-18
3.92222e-18
1.61648e-18
3.40551e-18
5.19088e-18
2.5617e-18
1.57727e-18
3.21552e-18
5.39813e-18
2.42821e-18
3.19804e-18
2.23301e-18
6.62336e-18
1.08665e-18
2.69618e-18
3.5338e-18
1.79517e-18
2.31902e-18
2.44625e-18
2.60451e-18
3.26914e-18
1.85018e-18
1.69031e-18
2.92321e-18
2.53463e-18
1.56e-18
4.82798e-18
4.33286e-18
6.36493e-18
5.63045e-18
3.52933e-18
1.50718e-18
2.53669e-18
2.37631e-18
3.75296e-18
2.3142e-18
2.32195e-18
2.13111e-18
4.35888e-18
3.7243e-18
2.78918e-18
2.9563e-18
2.89497e-18
6.65647e-18
6.75891e-18
1.87443e-18
2.3498e-18
2.75224e-18
3.77146e-18
4.93759e-18
3.47901e-18
6.48445e-18
4.48921e-18
1.88008e-18
3.17592e-18
2.53251e-18
3.18926e-18
2.94554e-18
1.73772e-18
3.59079e-18
2.6148e-18
1.35638e-18
5.34382e-18
3.0498e-18
1.8478e-18
4.06329e-18
5.5408e-18
3.4291e-18
3.74837e-18
3.13897e-18
1.42263e-18
1.80319e-18
1.58306e-18
1.9624e-18
2.19109e-18
2.23188e-18
2.93981e-18
3.52429e-18
5.67081e-18
5.33309e-18
2.70257e-18
2.69766e-18
2.72596e-18
2.45285e-18
2.7816e-18
2.56152e-18
1.8383e-18
2.81868e-18
2.08148e-18
1.77652e-18
8.24241e-19
4.5472e-18
6.40607e-18
3.61443e-18
1.25248e-18
5.34476e-18
1.9772e-18
1.22524e-18
1.66233e-18
2.57985e-18
3.50389e-18
2.97765e-18
3.7123e-18
4.02469e-18
1.64558e-18
2.82622e-18
2.15192e-18
1.81198e-18
1.15078e-18
5.05509e-18
1.34739e-18
1.35114e-18
2.1168e-18
2.34094e-18
3.74286e-18
2.02555e-18
3.36453e-18
1.69299e-18
3.0568e-18
2.68186e-18
3.62471e-18
2.89779e-18
2.35042e-18
1.91066e-18
2.76435e-18
4.23998e-18
2.05935e-18
2.76157e-18
2.91276e-18
3.1249e-18
2.70175e-18
1.24495e-18
5.05706e-18
2.30297e-18
2.39272e-18
2.69914e-18
2.02477e-18
2.54681e-18
1.92277e-18
1.63923e-18
2.35575e-18
1.36357e-18
6.87644e-19
2.05374e-18
1.69595e-18
1.94806e-18
1.05908e-18
1.81163e-18
5.5395e-18
1.47235e-17
2.36783e-17
1.95175e-17
1.63659e-17
4.74857e-18
2.80176e-18
2.35305e-17
1.09719e-16
1.00274e-16
3.44977e-17
1.4162e-17
6.52028e-18
3.15086e-18
1.98531e-18
3.25282e-18
9.70218e-18
1.3209e-17
7.65159e-18
3.61086e-18
2.45707e-18
2.51893e-18
2.17371e-18
1.41115e-18
1.34859e-18
1.6755e-18
1.41982e-18
1.27482e-18
2.24966e-18
3.38457e-18
2.05546e-18
1.00553e-18
4.25289e-19
4.30023e-19
6.03034e-19
1.15145e-18
1.94857e-18
2.85442e-18
1.38696e-18
2.35242e-18
1.81395e-18
1.87053e-18
1.7924e-18
4.84997e-18
7.1299e-18
1.80489e-18
1.52999e-18
2.16303e-18
2.50947e-18
1.24692e-18
1.60189e-18
1.16445e-18
9.1327e-19
1.85891e-18
2.03274e-18
7.39418e-19
1.89296e-18
2.90274e-18
2.59444e-17
2.06355e-16
2.1871e-16
5.53437e-17
1.37753e-17
5.46851e-18
3.41625e-18
2.56326e-18
2.60625e-18
1.44948e-18
1.03053e-18
3.9253e-18
1.99275e-17
1.10738e-17
1.92406e-18
7.70021e-19
8.31435e-19
1.80248e-18
3.31959e-18
9.72764e-19
6.52295e-19
3.94061e-18
9.70518e-18
3.64309e-18
2.79254e-18
3.8352e-18
1.88469e-18
1.04283e-18
9.1459e-19
2.11326e-18
4.97391e-18
3.38768e-18
2.24288e-18
2.26834e-18
2.88378e-18
4.57794e-18
7.96879e-18
6.69226e-18
3.37039e-18
1.65845e-18
9.8447e-19
8.87248e-19
9.96563e-19
4.84913e-19
6.36303e-19
1.02339e-18
1.25323e-18
4.69228e-19
7.88206e-19
1.39374e-18
1.35285e-18
7.04163e-19
4.93402e-18
1.90983e-16
4.3897e-16
1.37592e-16
3.45893e-17
1.13173e-17
4.58294e-18
2.26796e-18
1.61709e-18
1.41617e-18
1.34763e-18
1.29313e-18
1.15484e-18
1.56184e-18
3.31847e-18
5.2396e-18
5.97002e-18
2.23645e-18
6.73366e-19
5.9439e-19
6.99873e-19
6.02197e-19
5.27473e-19
1.79001e-18
1.94781e-17
4.16113e-17
2.93398e-17
9.01838e-18
5.56639e-18
5.29152e-18
3.5871e-18
2.28835e-18
2.15761e-18
2.10939e-18
1.95995e-18
2.29469e-18
2.30774e-18
1.88604e-18
2.16743e-18
2.62692e-18
1.67003e-18
1.23736e-18
2.13012e-18
2.65997e-18
2.24411e-18
2.32036e-18
2.9038e-18
3.22612e-18
4.98333e-18
3.72979e-18
2.84067e-18
1.73528e-18
1.29565e-18
1.19353e-18
1.75282e-18
2.09489e-18
1.48616e-18
1.23334e-18
1.34038e-18
1.34757e-18
1.30239e-18
1.2469e-18
1.47195e-18
1.57775e-18
1.89459e-18
4.28717e-18
4.26164e-18
3.85225e-18
4.91311e-18
2.45765e-18
1.21942e-18
1.26231e-18
1.09719e-18
1.43508e-18
1.28024e-18
1.80754e-18
1.33442e-18
1.51393e-18
2.25899e-18
1.32428e-18
1.6808e-18
3.51e-18
8.31385e-19
3.58603e-18
2.23822e-18
9.49139e-19
2.45433e-18
1.90911e-18
1.38306e-18
1.75786e-18
3.11556e-18
1.51823e-18
2.34047e-18
3.42257e-18
2.1131e-18
1.65374e-18
5.42331e-18
1.62955e-18
3.89076e-18
1.97203e-18
5.50546e-18
1.13945e-18
8.7391e-19
2.86737e-18
1.06894e-18
3.80268e-18
1.17363e-18
2.36432e-18
3.97244e-18
1.64139e-18
4.07109e-18
6.49132e-18
3.56868e-18
2.22335e-18
4.27674e-18
7.27274e-18
3.41996e-18
6.9039e-18
4.60731e-18
2.29475e-18
4.39997e-18
2.66799e-18
2.9747e-18
1.95467e-18
1.44907e-18
1.52414e-18
2.11285e-18
2.57164e-18
2.82518e-18
6.7056e-18
2.85765e-18
2.43204e-18
3.50908e-18
3.54829e-18
3.94967e-18
1.52178e-18
2.17358e-18
2.76388e-18
1.93188e-18
1.90557e-18
2.29237e-18
2.90728e-18
2.83008e-18
2.87725e-18
2.57383e-18
7.59494e-18
2.0966e-18
1.64901e-18
1.69556e-18
3.34682e-18
6.91237e-18
2.9966e-18
1.75344e-18
1.8267e-18
2.34324e-18
3.01685e-18
3.34911e-18
5.9446e-18
4.61659e-18
7.16197e-18
2.11328e-18
2.1287e-18
2.48505e-18
4.49253e-18
1.69401e-18
1.94802e-18
4.6172e-18
1.80123e-18
1.55812e-18
9.73906e-19
2.44965e-18
1.08273e-18
3.53194e-18
3.13195e-18
1.11811e-18
1.63009e-18
2.80214e-18
2.84012e-18
3.65404e-18
5.98587e-18
2.94605e-18
3.89525e-18
4.46767e-18
4.57001e-18
1.8135e-18
3.19122e-18
2.12195e-18
3.83164e-18
4.32995e-18
2.10637e-18
1.55885e-18
3.75223e-18
2.11195e-18
1.24065e-18
2.33664e-18
1.14879e-18
9.21491e-19
1.83078e-18
2.22147e-18
2.39698e-18
1.83122e-18
1.64229e-18
3.10455e-18
1.85118e-18
2.48455e-18
3.82495e-18
3.03704e-18
2.94618e-18
1.7677e-18
2.48182e-18
3.87395e-18
2.23635e-18
2.42674e-18
1.99623e-18
1.29676e-18
2.40121e-18
1.96542e-18
2.22699e-18
2.9594e-18
3.04081e-18
2.59255e-18
1.72346e-18
1.66197e-18
2.15905e-18
1.91397e-18
1.65577e-18
1.73565e-18
1.41665e-18
1.99717e-18
2.24683e-18
1.43902e-18
1.77017e-18
3.79308e-18
4.27719e-18
2.42974e-18
2.24911e-18
1.90205e-18
2.15732e-18
2.54055e-18
1.8706e-18
1.90312e-18
3.46521e-18
7.15808e-18
3.06288e-18
2.68535e-18
3.92659e-18
2.37249e-18
2.25254e-18
2.4409e-18
2.17175e-18
1.71589e-18
2.85592e-18
1.86027e-18
2.20389e-18
5.36749e-18
5.31272e-18
1.54627e-18
2.62191e-18
2.50568e-18
2.02045e-18
1.91247e-18
1.27922e-18
2.50596e-18
2.48482e-18
2.44047e-18
2.34501e-18
2.3787e-18
2.25877e-18
1.82301e-18
2.72793e-18
4.89487e-18
4.39347e-18
4.00219e-18
3.09918e-18
1.84159e-18
8.39466e-19
1.5734e-18
3.14957e-18
2.99322e-18
1.52446e-18
1.6404e-18
1.38787e-18
9.66204e-19
1.18399e-18
1.84341e-18
1.43145e-18
1.56511e-18
1.65742e-18
2.89393e-18
1.13843e-17
9.24318e-17
1.58681e-16
6.17809e-17
1.53863e-17
6.67019e-18
4.24828e-18
8.27159e-18
1.84939e-17
1.82491e-17
9.97971e-18
6.3702e-18
3.9523e-18
2.48744e-18
1.88053e-18
2.20238e-18
3.65111e-18
4.98026e-18
3.65479e-18
2.13536e-18
1.56046e-18
1.65175e-18
1.60859e-18
1.11153e-18
8.95225e-19
1.07648e-18
1.13494e-18
1.01176e-18
1.23917e-18
1.65125e-18
1.58224e-18
8.30174e-19
5.52742e-19
6.40685e-19
9.34747e-19
1.5246e-18
2.01571e-18
2.29927e-18
1.55101e-18
1.3574e-18
2.42623e-18
1.85232e-18
1.17116e-18
1.79676e-18
3.30883e-18
1.56455e-18
1.34566e-18
2.03076e-18
1.43037e-18
1.03163e-18
1.08492e-18
2.00904e-18
2.82621e-18
1.92242e-18
2.13701e-18
1.10964e-18
1.50741e-18
1.86167e-18
1.31675e-17
2.41238e-16
4.23559e-16
7.00668e-17
1.26087e-17
3.98323e-18
2.56978e-18
2.26436e-18
1.85787e-18
1.55924e-18
1.22255e-18
1.47091e-18
3.25061e-18
4.40467e-18
1.99542e-18
9.37402e-19
9.07471e-19
1.27203e-18
1.94479e-18
1.55063e-18
1.01975e-18
1.58559e-18
3.39361e-18
3.18026e-18
1.63147e-18
2.04758e-18
3.0386e-18
2.37455e-18
1.94637e-18
1.55654e-18
2.36289e-18
4.40018e-18
3.19572e-18
3.51633e-18
4.29179e-18
5.64042e-18
5.35264e-18
3.4218e-18
1.56182e-18
1.07097e-18
1.06255e-18
9.99568e-19
1.05696e-18
1.09472e-18
1.16139e-18
8.63826e-19
5.26616e-19
3.75777e-19
7.17057e-19
4.38202e-18
4.9845e-18
1.64517e-18
7.52487e-18
2.9273e-17
9.66281e-17
6.60024e-17
1.73423e-17
5.33548e-18
2.36012e-18
1.53738e-18
1.29852e-18
1.33262e-18
1.26263e-18
1.17449e-18
1.29728e-18
1.56022e-18
1.8845e-18
2.28005e-18
2.84308e-18
1.65318e-18
8.32248e-19
8.37116e-19
1.18395e-18
1.0789e-18
8.31894e-19
1.9829e-18
1.16402e-17
2.42245e-17
1.46265e-17
6.15267e-18
2.86082e-18
2.23286e-18
2.04817e-18
1.72534e-18
1.55194e-18
1.82024e-18
1.80854e-18
1.41844e-18
1.2385e-18
1.11765e-18
1.10979e-18
1.30292e-18
1.46481e-18
1.32638e-18
1.46889e-18
1.56531e-18
1.66534e-18
2.1183e-18
2.49745e-18
2.55485e-18
3.2856e-18
3.92473e-18
2.44524e-18
1.2312e-18
1.14434e-18
1.47103e-18
2.0961e-18
2.81417e-18
2.01313e-18
1.29273e-18
1.36966e-18
1.91806e-18
1.731e-18
9.6409e-19
9.27837e-19
1.38816e-18
2.4203e-18
3.03977e-18
3.31663e-18
1.81055e-18
1.39365e-18
1.76391e-18
1.39913e-18
1.15092e-18
1.39961e-18
2.07337e-18
2.09022e-18
2.08723e-18
2.56319e-18
2.27168e-18
1.98669e-18
1.30758e-18
1.07498e-18
1.76087e-18
1.21331e-18
1.38844e-18
1.96182e-18
2.55272e-18
1.66665e-18
1.10596e-18
1.99576e-18
2.32771e-18
2.55139e-18
2.06238e-18
1.25812e-18
2.78397e-18
2.87143e-18
2.07582e-18
3.07185e-18
2.91641e-18
1.74428e-18
4.2263e-18
3.99252e-18
2.64786e-18
5.2471e-18
4.66314e-18
4.8078e-18
5.30666e-18
5.79756e-18
5.39445e-18
3.69298e-18
5.68346e-18
3.73252e-18
5.22304e-18
2.33102e-18
2.62676e-18
2.74174e-18
2.11836e-18
6.41666e-18
3.83095e-18
5.27728e-18
4.40521e-18
3.44569e-18
3.59965e-18
1.86192e-18
6.90906e-18
1.86275e-18
3.24944e-18
6.52349e-18
1.53987e-18
2.08741e-18
3.48626e-18
2.20916e-18
7.91286e-19
1.49549e-18
1.97963e-18
3.06398e-18
3.93965e-18
4.76602e-18
3.28683e-18
3.9888e-18
9.76319e-19
2.21392e-18
5.9231e-18
6.22937e-18
3.62376e-18
3.14216e-18
3.4413e-18
4.5316e-18
3.08496e-18
3.26701e-18
2.21228e-18
2.75167e-18
2.06676e-18
5.55455e-18
4.16764e-18
1.17709e-18
3.61361e-18
2.93294e-18
2.06483e-18
1.81887e-18
2.75403e-18
2.39407e-18
4.18125e-18
2.85957e-18
5.40244e-18
2.66367e-18
2.14316e-18
2.45965e-18
2.80393e-18
2.73977e-18
2.42511e-18
3.24625e-18
3.55735e-18
1.11379e-18
1.35457e-18
1.93786e-18
3.72983e-18
6.42172e-18
4.53781e-18
1.96882e-18
4.16702e-18
2.66537e-18
1.01008e-18
4.38592e-18
3.48206e-18
2.58672e-18
2.05573e-18
4.9786e-18
5.25078e-18
4.6211e-18
5.57935e-18
2.71815e-18
6.04571e-18
1.98279e-18
3.8537e-18
2.67866e-18
2.40591e-18
1.72325e-18
3.95936e-18
1.69144e-18
1.689e-18
2.60756e-18
5.29237e-18
2.45905e-18
2.80406e-18
3.3032e-18
2.52546e-18
3.7199e-18
4.44363e-18
3.40506e-18
2.69634e-18
2.87971e-18
3.18443e-18
1.89253e-18
3.47023e-18
2.672e-18
1.80351e-18
1.98892e-18
2.7213e-18
2.85298e-18
4.15058e-18
4.31701e-18
2.32482e-18
2.16067e-18
2.08848e-18
3.10695e-18
1.28011e-18
2.68509e-18
3.46472e-18
3.69953e-18
2.22304e-18
1.75369e-18
2.29895e-18
2.01136e-18
3.13228e-18
2.37887e-18
2.29812e-18
2.35718e-18
1.32014e-18
2.15444e-18
2.39409e-18
2.08323e-18
2.2253e-18
3.71947e-18
1.23005e-18
1.86375e-18
3.15898e-18
3.14088e-18
4.04369e-18
2.69622e-18
1.8158e-18
1.3357e-18
3.48348e-18
2.13961e-18
2.29632e-18
1.62235e-18
1.5831e-18
2.06674e-18
2.03703e-18
3.67158e-18
3.50372e-18
1.67677e-18
2.38068e-18
2.67133e-18
2.99164e-18
3.28522e-18
2.88035e-18
1.79705e-18
1.99255e-18
2.43038e-18
3.55146e-18
4.70742e-18
5.72677e-18
3.53446e-18
1.70414e-18
1.93997e-18
2.9739e-18
2.67165e-18
2.68609e-18
2.69174e-18
1.52479e-18
1.20022e-18
1.76449e-18
2.19939e-18
8.98648e-19
8.02115e-19
1.63009e-18
1.86376e-18
1.98034e-18
2.62398e-18
1.82547e-17
1.49111e-16
2.88521e-16
7.41419e-17
1.58893e-17
6.11856e-18
4.79812e-18
6.25251e-18
7.3222e-18
5.46567e-18
3.73601e-18
3.14343e-18
2.87585e-18
2.48939e-18
1.83349e-18
1.48016e-18
1.61346e-18
2.32824e-18
2.6501e-18
2.5895e-18
1.97145e-18
1.81142e-18
1.80652e-18
1.3539e-18
9.90217e-19
1.18649e-18
1.67224e-18
1.65814e-18
1.48692e-18
1.28269e-18
1.09355e-18
9.20691e-19
8.31416e-19
9.99843e-19
1.46325e-18
1.85765e-18
2.18486e-18
2.15825e-18
2.08553e-18
1.53969e-18
1.29435e-18
1.24921e-18
1.05099e-18
1.16537e-18
1.50722e-18
9.88536e-19
8.56231e-19
9.54955e-19
9.63951e-19
1.12548e-18
1.42888e-18
1.05308e-18
1.12906e-18
1.21414e-18
9.8318e-19
1.33489e-18
1.29502e-18
1.72325e-18
1.08762e-17
7.26118e-17
3.07459e-16
8.10846e-17
1.3795e-17
3.56179e-18
1.90107e-18
1.88327e-18
1.7094e-18
1.42613e-18
1.45866e-18
1.71308e-18
2.57616e-18
3.40115e-18
2.48792e-18
1.4376e-18
1.0666e-18
1.21114e-18
1.87255e-18
2.1382e-18
1.82455e-18
1.22933e-18
1.30261e-18
2.56948e-18
3.12619e-18
4.05411e-18
6.58214e-18
4.55739e-18
1.51309e-18
7.96235e-19
9.47157e-19
2.5997e-18
4.31241e-18
3.48146e-18
3.39552e-18
3.62426e-18
2.75907e-18
1.97419e-18
1.54532e-18
1.54909e-18
1.4345e-18
1.07889e-18
9.52958e-19
1.32031e-18
1.73279e-18
9.93213e-19
5.52551e-19
4.80189e-19
7.00158e-19
5.08887e-18
1.77114e-17
1.10045e-17
6.65297e-18
6.38876e-18
4.31987e-18
2.8247e-18
3.01033e-18
2.03499e-18
1.38293e-18
1.37948e-18
1.52207e-18
1.63554e-18
1.59813e-18
1.47277e-18
1.51307e-18
1.80231e-18
1.77464e-18
1.61856e-18
1.70496e-18
1.74432e-18
1.45005e-18
1.3378e-18
1.23382e-18
1.09824e-18
1.11753e-18
2.04786e-18
5.41587e-18
7.71525e-18
7.24016e-18
3.36036e-18
1.87394e-18
1.46122e-18
1.29808e-18
1.30555e-18
1.54383e-18
1.69766e-18
1.67873e-18
1.65108e-18
1.61829e-18
1.66381e-18
2.22998e-18
2.45169e-18
2.77548e-18
3.12507e-18
2.32783e-18
1.55162e-18
1.49904e-18
1.5087e-18
1.59422e-18
2.18363e-18
3.40258e-18
3.13259e-18
1.79683e-18
1.29197e-18
1.10908e-18
1.11666e-18
1.18372e-18
1.21641e-18
1.47554e-18
1.54624e-18
1.65427e-18
1.64501e-18
1.58586e-18
1.72321e-18
2.23109e-18
2.12169e-18
1.93119e-18
2.13779e-18
1.80917e-18
2.27254e-18
1.72134e-18
1.38069e-18
1.34007e-18
1.22172e-18
1.36845e-18
1.67977e-18
1.31459e-18
1.40008e-18
1.37805e-18
1.6904e-18
2.24453e-18
1.40906e-18
8.20002e-19
1.24301e-18
2.18749e-18
2.32474e-18
8.04058e-19
2.43131e-18
3.80716e-18
2.31861e-18
1.29628e-18
1.43711e-18
2.40244e-18
1.36115e-18
2.89499e-18
2.12876e-18
1.33333e-18
9.81026e-19
1.84749e-18
1.61044e-18
1.58668e-18
1.59451e-18
2.59615e-18
4.27683e-18
5.28311e-18
3.93676e-18
4.06057e-18
5.23684e-18
3.02783e-18
2.69003e-18
2.55012e-18
1.62294e-18
3.73164e-18
3.20031e-18
1.70073e-18
1.93753e-18
6.24183e-19
4.95527e-18
8.15564e-18
2.19609e-18
1.42406e-18
4.49059e-18
4.12463e-18
5.92945e-18
7.29802e-18
2.42156e-18
2.01334e-18
1.29491e-18
2.15636e-18
2.16602e-18
1.13186e-18
3.60522e-18
5.3561e-18
2.98218e-18
4.30814e-18
3.85332e-18
1.67128e-18
2.99178e-18
4.92701e-18
3.29326e-18
1.31957e-18
1.98212e-18
2.86329e-18
5.14586e-18
3.74766e-18
2.37181e-18
4.66843e-18
2.47836e-18
1.82256e-18
2.02806e-18
3.07416e-18
2.25331e-18
4.00624e-18
7.96946e-18
3.19031e-18
3.45961e-18
3.50181e-18
2.77026e-18
1.92379e-18
2.77997e-18
3.38759e-18
1.85173e-18
3.0065e-18
3.18884e-18
1.68367e-18
2.38081e-18
2.47862e-18
2.7936e-18
1.77396e-18
1.91465e-18
4.45994e-18
3.39061e-18
3.75737e-18
2.23171e-18
2.62286e-18
1.55424e-18
1.49964e-18
3.16395e-18
2.75116e-18
4.35366e-18
5.1583e-18
2.78006e-18
3.36754e-18
3.12497e-18
7.45711e-18
1.80371e-18
2.06887e-18
2.70132e-18
2.3008e-18
2.96552e-18
4.23356e-18
2.60783e-18
2.58121e-18
2.60543e-18
2.76386e-18
2.34221e-18
1.94329e-18
2.55599e-18
2.60286e-18
2.01668e-18
3.58262e-18
3.83473e-18
2.67975e-18
2.05723e-18
4.66149e-18
6.01934e-18
3.6279e-18
1.35545e-18
3.33918e-18
3.061e-18
3.86384e-18
3.58786e-18
2.16538e-18
2.49838e-18
2.76759e-18
2.21326e-18
2.25884e-18
4.26517e-18
6.46045e-18
5.07958e-18
1.45499e-18
1.58859e-18
4.49543e-18
3.11701e-18
2.16116e-18
3.00025e-18
2.42691e-18
2.55094e-18
2.54264e-18
4.59677e-18
3.47045e-18
1.74928e-18
1.66945e-18
2.08625e-18
2.60499e-18
2.18004e-18
4.07028e-18
4.53281e-18
3.91996e-18
1.90404e-18
1.87263e-18
1.26554e-18
1.46581e-18
2.74368e-18
2.97028e-18
3.26256e-18
2.90281e-18
4.21177e-18
2.32553e-18
2.51779e-18
3.07448e-18
1.84095e-18
1.50995e-18
2.3557e-18
2.08617e-18
1.7786e-18
2.03715e-18
2.74642e-18
3.63504e-18
3.65089e-18
4.00692e-18
3.6603e-18
1.72311e-18
1.20441e-18
2.18843e-18
3.45584e-18
4.04651e-18
4.9103e-18
3.20116e-18
1.80464e-18
2.51636e-18
6.1484e-18
4.65895e-18
2.76945e-18
2.70367e-18
1.5387e-18
1.7469e-18
1.92917e-18
1.44987e-18
2.18043e-18
2.28909e-18
2.03857e-18
1.93749e-18
1.72712e-18
1.66101e-18
2.14752e-18
2.64294e-18
1.78133e-18
1.20671e-18
8.86108e-19
3.80341e-18
3.64181e-17
2.54179e-16
3.61256e-16
6.329e-17
1.40528e-17
4.62609e-18
2.60184e-18
2.83485e-18
3.24301e-18
2.53739e-18
1.85069e-18
1.73593e-18
2.41123e-18
3.11256e-18
3.60263e-18
2.69452e-18
2.02566e-18
1.97923e-18
2.42703e-18
2.59545e-18
2.3231e-18
1.86417e-18
1.66937e-18
1.72324e-18
1.81604e-18
2.43694e-18
3.14239e-18
2.87238e-18
2.34416e-18
1.62148e-18
1.28351e-18
1.26128e-18
1.372e-18
1.71052e-18
2.05566e-18
1.98062e-18
1.8323e-18
1.90056e-18
1.65835e-18
1.27969e-18
1.21344e-18
1.26207e-18
1.46914e-18
1.38561e-18
1.74914e-18
1.97138e-18
1.18708e-18
1.29867e-18
1.73704e-18
1.62034e-18
1.19058e-18
8.57201e-19
7.15276e-19
1.15799e-18
2.25944e-18
2.46803e-18
2.23197e-18
2.33161e-18
1.27041e-17
5.41615e-17
6.61809e-17
4.46708e-17
1.18612e-17
3.31708e-18
1.47339e-18
1.19469e-18
1.23447e-18
1.25691e-18
1.33966e-18
1.70297e-18
2.18799e-18
2.56329e-18
2.51362e-18
2.00826e-18
1.39031e-18
1.10059e-18
1.10186e-18
1.47572e-18
2.249e-18
1.79926e-18
1.89841e-18
3.36043e-18
9.26591e-18
9.63791e-18
5.9187e-18
3.24184e-18
1.45095e-18
9.35205e-19
1.16726e-18
2.62969e-18
5.30661e-18
5.164e-18
3.34004e-18
2.72008e-18
1.80196e-18
1.41956e-18
1.40971e-18
1.4278e-18
1.2045e-18
1.11747e-18
1.66993e-18
2.25329e-18
1.78443e-18
1.04798e-18
7.22595e-19
5.83574e-19
4.82639e-19
3.33545e-18
1.98916e-17
5.07559e-17
2.73549e-17
1.06874e-17
7.20012e-18
4.24263e-18
4.11204e-18
2.40237e-18
1.83181e-18
1.99088e-18
2.14752e-18
2.06553e-18
1.72482e-18
1.26286e-18
1.02674e-18
1.13134e-18
1.50402e-18
1.89314e-18
2.66594e-18
3.515e-18
3.23534e-18
2.26849e-18
1.76834e-18
1.84965e-18
2.0857e-18
3.07717e-18
5.39819e-18
1.09461e-17
7.15927e-18
4.20407e-18
2.37152e-18
1.50604e-18
1.29536e-18
1.38404e-18
1.94562e-18
2.64168e-18
2.77943e-18
1.9917e-18
1.94991e-18
2.71255e-18
2.49069e-18
1.65904e-18
1.50976e-18
1.95076e-18
2.14405e-18
1.64249e-18
1.29236e-18
1.58256e-18
2.2954e-18
2.66656e-18
2.96596e-18
1.94561e-18
1.33074e-18
1.16647e-18
1.13305e-18
1.01376e-18
1.0919e-18
1.48755e-18
1.84698e-18
2.02438e-18
1.64037e-18
1.51455e-18
1.67675e-18
1.88885e-18
1.73795e-18
1.75024e-18
1.76443e-18
1.78564e-18
2.1769e-18
2.71301e-18
3.71262e-18
4.2869e-18
4.34512e-18
2.39799e-18
1.84029e-18
1.47804e-18
1.24304e-18
1.31093e-18
1.53801e-18
1.42444e-18
6.6573e-19
6.47205e-19
1.44537e-18
1.30647e-18
1.47717e-18
2.11909e-18
2.4263e-18
2.05746e-18
2.83571e-18
2.82101e-18
1.31465e-18
1.20434e-18
1.71084e-18
3.41425e-18
2.58195e-18
1.83149e-18
2.42633e-18
2.32611e-18
3.10388e-18
1.41648e-18
8.08626e-19
1.94309e-18
2.14894e-18
3.08521e-18
8.16959e-19
4.36453e-18
1.52253e-18
1.25862e-18
5.20219e-18
3.59609e-18
2.14195e-18
3.20036e-18
1.47435e-18
1.76775e-18
9.06801e-19
2.00605e-18
3.80591e-18
1.8212e-18
5.1623e-18
4.56197e-18
5.04845e-18
7.104e-18
2.16347e-18
2.38217e-18
3.06624e-18
4.84265e-18
4.31458e-18
5.33754e-18
2.68821e-18
1.27219e-18
2.07701e-18
2.22442e-18
9.55903e-19
2.36886e-18
1.60584e-18
7.55703e-18
3.03017e-18
2.93877e-18
3.70082e-18
3.23438e-18
4.50454e-18
2.04676e-18
1.92395e-18
2.8132e-18
4.13948e-18
4.2433e-18
2.5005e-18
2.99408e-18
1.9105e-18
2.03087e-18
2.95726e-18
3.047e-18
2.61877e-18
2.78679e-18
3.4531e-18
7.22588e-18
4.51721e-18
2.04326e-18
3.18251e-18
3.71629e-18
2.20887e-18
3.0686e-18
3.58449e-18
2.81697e-18
2.03643e-18
2.77463e-18
2.44942e-18
1.75824e-18
4.05131e-18
2.35557e-18
3.31932e-18
7.77203e-18
4.60301e-18
2.78591e-18
3.74247e-18
5.27372e-18
3.05953e-18
4.22029e-18
4.57849e-18
2.33367e-18
2.59192e-18
5.69307e-18
3.7521e-18
2.70436e-18
2.18844e-18
2.11985e-18
3.24727e-18
3.49127e-18
2.46743e-18
2.31262e-18
3.55997e-18
4.28373e-18
3.73026e-18
6.19931e-18
5.22004e-18
3.43603e-18
1.90373e-18
2.92976e-18
5.13002e-18
2.83468e-18
2.24148e-18
3.12651e-18
1.49937e-18
1.57265e-18
3.22101e-18
1.78242e-18
2.05323e-18
2.06885e-18
3.10423e-18
4.03943e-18
2.34082e-18
1.85359e-18
1.37322e-18
2.25397e-18
3.89013e-18
4.46973e-18
2.78339e-18
1.67517e-18
1.60832e-18
2.66007e-18
2.33797e-18
1.67733e-18
1.62076e-18
1.52577e-18
3.536e-18
3.82035e-18
2.64375e-18
4.78314e-18
2.68488e-18
4.28113e-18
4.178e-18
3.05932e-18
3.50616e-18
3.22938e-18
3.1251e-18
3.33576e-18
3.96813e-18
5.43365e-18
3.43551e-18
1.93013e-18
1.61615e-18
3.00514e-18
1.88273e-18
1.91723e-18
1.72603e-18
2.06425e-18
2.14856e-18
2.07084e-18
2.98851e-18
4.08575e-18
2.50465e-18
1.93601e-18
2.91774e-18
3.50052e-18
3.05787e-18
1.75767e-18
1.84007e-18
1.91884e-18
2.93779e-18
2.30753e-18
2.73721e-18
2.13493e-18
1.70085e-18
2.37245e-18
2.54285e-18
3.97494e-18
4.87453e-18
4.72569e-18
3.55991e-18
3.89586e-18
3.84079e-18
3.4436e-18
3.33097e-18
2.11401e-18
1.08519e-18
1.15731e-18
1.18338e-18
9.75886e-19
1.81992e-18
2.76099e-18
2.28588e-18
1.66796e-18
2.23851e-18
2.12555e-18
2.08927e-18
3.24169e-18
2.77005e-18
1.54899e-18
1.2972e-18
1.4195e-18
7.39664e-18
9.14563e-17
4.44627e-16
4.57181e-16
6.11196e-17
1.25259e-17
4.26602e-18
2.44416e-18
2.2532e-18
2.41023e-18
2.47796e-18
2.11012e-18
1.78665e-18
2.01001e-18
3.14997e-18
4.34488e-18
4.46817e-18
3.67247e-18
2.67023e-18
2.27207e-18
2.30383e-18
2.07542e-18
1.65553e-18
1.51742e-18
1.78237e-18
2.12264e-18
2.21821e-18
2.45699e-18
2.63276e-18
2.5925e-18
2.07916e-18
1.82997e-18
1.72468e-18
1.75602e-18
2.16872e-18
2.13365e-18
1.5256e-18
1.06302e-18
9.74438e-19
1.13424e-18
1.24608e-18
1.22969e-18
1.1773e-18
1.30239e-18
1.53748e-18
2.04559e-18
1.94828e-18
1.00713e-18
1.02302e-18
2.24611e-18
2.58182e-18
1.55361e-18
1.04293e-18
8.92296e-19
1.10703e-18
2.17558e-18
2.90891e-18
2.21383e-18
2.53284e-18
1.09832e-17
3.29084e-17
5.82283e-17
2.16227e-17
8.29112e-18
4.14259e-18
2.29996e-18
1.46233e-18
1.19388e-18
1.22525e-18
1.56978e-18
1.94801e-18
2.15729e-18
2.23286e-18
1.99994e-18
1.70731e-18
1.32354e-18
1.13277e-18
1.57412e-18
2.38353e-18
3.47674e-18
2.91782e-18
2.87903e-18
6.35842e-18
1.12779e-17
1.23636e-17
5.95105e-18
2.33371e-18
1.44059e-18
1.27023e-18
1.31683e-18
1.95907e-18
3.76731e-18
5.06718e-18
3.26765e-18
2.25219e-18
1.70825e-18
1.68708e-18
1.92133e-18
2.23645e-18
2.13053e-18
1.97243e-18
2.00325e-18
1.89878e-18
1.55676e-18
1.40859e-18
1.43375e-18
1.24277e-18
7.82288e-19
1.70249e-18
4.05735e-17
9.64189e-17
2.52125e-17
7.28742e-18
4.06557e-18
3.43483e-18
2.86734e-18
2.30441e-18
1.94147e-18
1.73065e-18
2.1742e-18
2.22053e-18
1.80479e-18
1.44524e-18
1.2206e-18
1.10582e-18
1.49376e-18
2.41595e-18
3.44711e-18
4.52335e-18
6.03602e-18
4.04296e-18
2.14431e-18
1.36492e-18
1.25019e-18
1.51868e-18
2.25332e-18
3.09445e-18
3.32784e-18
2.3856e-18
1.77275e-18
1.45801e-18
1.41578e-18
1.71118e-18
1.99243e-18
1.80456e-18
2.09465e-18
2.2623e-18
1.73224e-18
1.55348e-18
2.07875e-18
2.18157e-18
1.735e-18
1.8658e-18
1.95627e-18
1.69066e-18
1.28399e-18
1.28677e-18
1.68368e-18
1.64306e-18
1.47656e-18
1.71452e-18
2.13655e-18
2.16494e-18
1.64646e-18
1.50458e-18
1.7483e-18
2.02472e-18
1.93106e-18
2.44724e-18
3.09641e-18
2.45948e-18
1.96073e-18
1.83344e-18
2.00649e-18
2.06854e-18
1.80661e-18
1.49459e-18
1.89032e-18
2.80236e-18
3.46936e-18
4.1675e-18
3.83575e-18
2.70999e-18
1.43431e-18
1.13388e-18
1.58307e-18
2.44506e-18
1.62072e-18
1.48795e-18
1.61e-18
1.45695e-18
1.31612e-18
2.1217e-18
1.67996e-18
1.48415e-18
1.92174e-18
2.35889e-18
2.23652e-18
8.82346e-19
1.15713e-18
1.16869e-18
5.54637e-19
9.58213e-19
1.80637e-18
1.54869e-18
2.12394e-18
2.56969e-18
1.43429e-18
2.1334e-18
1.19812e-18
1.47542e-18
5.12118e-18
5.10897e-18
3.26185e-18
2.30119e-18
3.04341e-18
2.05075e-18
2.09632e-18
2.82882e-18
3.8733e-18
4.36759e-18
9.63544e-18
4.38946e-18
3.54629e-18
2.23691e-18
2.69758e-18
1.85399e-18
3.8855e-18
5.09973e-18
4.00615e-18
2.56019e-18
2.89522e-18
1.72048e-18
2.76586e-18
2.02639e-18
5.63413e-18
9.59937e-18
2.98488e-18
2.03595e-18
2.14717e-18
4.30426e-18
5.03649e-18
2.04256e-18
4.01363e-18
2.36739e-18
5.27729e-18
4.10707e-18
4.47657e-18
1.79035e-18
2.96029e-18
2.20078e-18
4.85869e-18
4.27761e-18
4.60662e-18
2.09184e-18
2.49051e-18
4.43339e-18
4.38441e-18
2.12278e-18
2.12853e-18
3.23934e-18
2.10659e-18
1.60539e-18
2.61511e-18
2.26514e-18
3.93164e-18
5.74289e-18
2.35771e-18
3.30269e-18
4.53516e-18
2.71984e-18
2.4367e-18
3.65519e-18
2.35448e-18
2.22543e-18
1.96011e-18
1.59026e-18
2.46454e-18
4.7912e-18