/*--------------------------------*- C++ -*----------------------------------*\
  =========                 |
  \\      /  F ield         | OpenFOAM: The Open Source CFD Toolbox
   \\    /   O peration     | Website:  https://openfoam.org
    \\  /    A nd           | Version:  7
     \\/     M anipulation  |
\*---------------------------------------------------------------------------*/
FoamFile
{
    version     2.0;
    format      ascii;
    class       volScalarField;
    location    "3000";
    object      mu1;
}
// * * * * * * * * * * * * * * * * * * * * * * * * * * * * * * * * * * * * * //

dimensions      [1 -1 -1 0 0 0 0];

internalField   nonuniform List<scalar> 
160000
(
0.000373232
0.000373644
0.000374065
0.000374503
0.000374967
0.000375437
0.000375917
0.000376398
0.000376879
0.000377397
0.000377937
0.000378472
0.000379024
0.000379604
0.000380177
0.000380752
0.000381341
0.000381941
0.00038257
0.000383214
0.000383857
0.000384503
0.000385162
0.000385837
0.000386513
0.000387206
0.000387934
0.000388666
0.000389399
0.000390128
0.000390857
0.000391614
0.000392429
0.00039325
0.000394034
0.000394836
0.000395671
0.000396509
0.000397323
0.000398157
0.000399035
0.000399918
0.000400828
0.000401734
0.000402647
0.00040359
0.000404526
0.00040545
0.000406408
0.000407397
0.000408385
0.000409411
0.000410447
0.000411456
0.000412482
0.000413505
0.000414565
0.000415635
0.000416666
0.000417716
0.00041885
0.000420005
0.000421112
0.000422215
0.000423312
0.000424471
0.000425674
0.000426876
0.00042805
0.000429154
0.000430332
0.000431552
0.00043275
0.000433959
0.000435171
0.000436415
0.000437674
0.000438929
0.000440201
0.000441491
0.000442792
0.000444148
0.000445489
0.000446798
0.000448127
0.000449484
0.000450839
0.00045217
0.000453506
0.000454898
0.00045627
0.000457651
0.00045911
0.00046057
0.000461996
0.000463371
0.000464764
0.000466196
0.000467634
0.000469059
0.000470503
0.000471939
0.000473384
0.000474875
0.000476319
0.000477793
0.000479267
0.000480749
0.000482289
0.000483828
0.000485388
0.000486889
0.000488385
0.000489912
0.000491402
0.000492924
0.00049445
0.000495973
0.000497565
0.000499192
0.000500796
0.000502356
0.000503913
0.000505504
0.000507106
0.000508749
0.000510417
0.000512019
0.000513608
0.000515241
0.000516854
0.000518419
0.000520006
0.000521695
0.000523386
0.000525007
0.000526603
0.000528211
0.000529803
0.000531341
0.000532934
0.000534642
0.00053627
0.00053787
0.000539596
0.0005413
0.000542951
0.00054461
0.000546259
0.000547873
0.000549476
0.000551111
0.00055273
0.000554386
0.000556046
0.000557688
0.000559365
0.000561066
0.000562769
0.000564457
0.000566135
0.000567806
0.00056949
0.000571214
0.000572891
0.000574525
0.000576219
0.000577862
0.000579477
0.000581088
0.000582728
0.000584439
0.000586069
0.000587702
0.000589371
0.000590946
0.000592513
0.000594106
0.000595748
0.000597438
0.000599024
0.000600619
0.000602254
0.000603822
0.000605403
0.000607021
0.00060868
0.000610379
0.000612085
0.000613852
0.000615722
0.00061761
0.000619476
0.00062132
0.00062315
0.000624711
0.000626077
0.000627568
0.000629354
0.000631336
0.000633226
0.000634934
0.000636496
0.000637934
0.000639271
0.000640641
0.000642155
0.000643754
0.00064532
0.000646816
0.00064828
0.000649749
0.000651203
0.000652615
0.000654024
0.000655454
0.000656848
0.00065821
0.00065963
0.000661121
0.000662609
0.000664047
0.000665388
0.000666673
0.00066797
0.000669298
0.000670685
0.000672044
0.000673395
0.000674798
0.000676127
0.00067743
0.000678759
0.000680113
0.000681468
0.000682803
0.000684107
0.000685396
0.000686663
0.000687909
0.000689161
0.000690365
0.000691552
0.000692726
0.000693877
0.000695024
0.000696191
0.000697434
0.000698899
0.00070076
0.000702874
0.000704714
0.000706115
0.000707288
0.000708366
0.000709432
0.000710519
0.00071156
0.000712559
0.000713666
0.00071501
0.000716353
0.000717497
0.000718533
0.00071955
0.000720625
0.000721749
0.000722803
0.000723825
0.000724945
0.000726102
0.000727187
0.000728276
0.000729368
0.000730392
0.000731348
0.000732285
0.000733285
0.000734334
0.000735358
0.000736361
0.000737343
0.000738323
0.000739324
0.000740345
0.000741342
0.000742313
0.000743241
0.000744127
0.000745012
0.000745895
0.000746735
0.000747553
0.000748394
0.000749242
0.000750092
0.000750957
0.00075177
0.000752516
0.000753226
0.000753973
0.000755008
0.00075645
0.000757811
0.000758855
0.000759713
0.00076049
0.000761229
0.000761946
0.000762643
0.000763328
0.000764002
0.000764655
0.000765308
0.000765992
0.000766737
0.000767523
0.000768237
0.00076887
0.000769478
0.00077008
0.000770673
0.000771261
0.000771873
0.000772535
0.000773258
0.000774012
0.000774694
0.000775325
0.000775939
0.000776526
0.000777092
0.000777653
0.000778205
0.000778745
0.000779279
0.000779799
0.000780297
0.000780801
0.000781334
0.000781831
0.000782289
0.000782754
0.000783221
0.000783672
0.000784109
0.000784538
0.000784976
0.000785436
0.000785892
0.000786318
0.000786718
0.000787101
0.000787474
0.000787845
0.000788214
0.000788574
0.000788929
0.000789277
0.000789612
0.000789932
0.000790242
0.000790549
0.00079085
0.000791151
0.000791455
0.000791744
0.000792025
0.000792303
0.000792559
0.000792794
0.000793021
0.000793241
0.000793461
0.000793671
0.000793872
0.000794065
0.000794245
0.000794415
0.000794577
0.000794734
0.000794883
0.000795023
0.000795157
0.000795284
0.000795401
0.000795512
0.000795615
0.000795708
0.000795791
0.000795867
0.000795934
0.000795993
0.000796044
0.000796086
0.000796122
0.000796151
0.000796172
0.000796186
0.000796194
0.000373241
0.000373654
0.00037407
0.000374509
0.000374964
0.000375429
0.000375909
0.000376398
0.000376889
0.000377402
0.000377939
0.000378477
0.000379019
0.000379583
0.000380169
0.000380752
0.000381329
0.00038194
0.000382584
0.00038323
0.000383868
0.000384508
0.000385172
0.000385852
0.000386519
0.000387194
0.000387914
0.000388657
0.000389392
0.000390128
0.000390874
0.000391633
0.000392431
0.000393247
0.000394036
0.000394834
0.000395681
0.000396491
0.000397291
0.000398162
0.00039905
0.000399923
0.000400825
0.000401728
0.000402639
0.000403591
0.00040453
0.000405445
0.000406393
0.000407405
0.000408417
0.000409423
0.000410429
0.000411458
0.000412479
0.000413488
0.000414554
0.000415619
0.000416674
0.00041775
0.000418852
0.000419983
0.000421108
0.00042221
0.00042333
0.0004245
0.000425663
0.000426835
0.000428014
0.000429174
0.000430367
0.000431571
0.000432758
0.000433949
0.000435165
0.000436417
0.000437682
0.000438936
0.000440203
0.000441495
0.000442814
0.000444141
0.000445464
0.000446769
0.000448102
0.000449492
0.000450843
0.000452172
0.000453522
0.000454892
0.000456287
0.000457686
0.000459113
0.000460568
0.000461969
0.000463347
0.000464752
0.000466179
0.000467629
0.000469056
0.000470501
0.000471968
0.000473391
0.000474848
0.000476338
0.000477791
0.000479261
0.000480779
0.000482304
0.000483836
0.000485387
0.000486892
0.000488386
0.000489891
0.000491392
0.000492913
0.000494437
0.00049598
0.000497565
0.000499182
0.000500802
0.000502376
0.000503939
0.000505531
0.000507131
0.000508756
0.000510392
0.000511995
0.000513604
0.00051523
0.000516837
0.000518405
0.000520016
0.000521727
0.00052341
0.000524993
0.000526588
0.000528216
0.00052978
0.000531333
0.000532939
0.000534614
0.00053627
0.000537915
0.000539622
0.000541295
0.00054294
0.000544602
0.000546238
0.000547831
0.000549474
0.000551134
0.000552731
0.000554373
0.000556045
0.000557723
0.000559396
0.000561083
0.000562764
0.000564433
0.000566113
0.0005678
0.000569509
0.000571212
0.00057288
0.000574531
0.000576221
0.00057787
0.000579482
0.000581121
0.000582785
0.00058446
0.000586068
0.000587695
0.00058934
0.000590918
0.000592518
0.000594132
0.000595757
0.000597393
0.000598992
0.000600601
0.000602218
0.000603782
0.00060537
0.000607008
0.000608669
0.000610345
0.000612044
0.000613848
0.000615769
0.000617738
0.000619671
0.000621512
0.000623185
0.000624647
0.0006261
0.000627775
0.000629598
0.00063142
0.000633192
0.000634855
0.000636391
0.000637822
0.000639207
0.000640658
0.000642215
0.000643792
0.000645319
0.000646795
0.000648263
0.000649733
0.000651175
0.00065259
0.00065401
0.000655431
0.000656823
0.00065822
0.000659679
0.000661158
0.000662596
0.000663975
0.000665308
0.000666625
0.000667953
0.00066931
0.000670699
0.000672058
0.00067341
0.00067478
0.00067611
0.000677418
0.000678755
0.000680155
0.000681514
0.000682811
0.000684106
0.000685403
0.000686664
0.000687907
0.000689155
0.000690361
0.000691554
0.000692748
0.000693891
0.000695009
0.000696134
0.000697369
0.000699061
0.00070127
0.000703212
0.000704755
0.00070604
0.000707196
0.000708297
0.000709391
0.000710477
0.000711517
0.000712564
0.000713758
0.000715088
0.000716314
0.000717414
0.000718465
0.000719526
0.00072064
0.000721743
0.000722775
0.000723826
0.000724975
0.000726114
0.000727198
0.000728292
0.000729366
0.000730373
0.000731331
0.000732288
0.000733302
0.000734338
0.000735349
0.00073635
0.000737341
0.000738334
0.000739351
0.000740377
0.000741363
0.000742308
0.000743219
0.000744109
0.000745
0.000745873
0.000746714
0.00074755
0.000748402
0.000749251
0.000750104
0.000750972
0.000751807
0.00075257
0.000753279
0.000754077
0.000755322
0.000756753
0.000757892
0.000758831
0.000759659
0.000760425
0.00076116
0.00076188
0.000762587
0.000763282
0.000763964
0.000764635
0.000765315
0.000766024
0.000766774
0.000767521
0.000768201
0.000768836
0.000769457
0.000770066
0.000770658
0.000771256
0.0007719
0.000772592
0.000773321
0.000774038
0.000774688
0.000775314
0.000775926
0.000776515
0.000777085
0.000777647
0.0007782
0.000778741
0.000779277
0.000779798
0.000780306
0.000780816
0.000781326
0.000781812
0.00078228
0.000782752
0.000783217
0.000783666
0.000784107
0.000784544
0.000784993
0.000785451
0.000785891
0.000786308
0.000786706
0.000787091
0.00078747
0.000787848
0.000788218
0.000788575
0.000788927
0.000789272
0.000789606
0.000789927
0.000790239
0.000790548
0.000790851
0.000791156
0.00079146
0.00079175
0.000792034
0.000792307
0.000792558
0.000792795
0.000793022
0.000793243
0.000793459
0.000793668
0.000793869
0.00079406
0.000794242
0.000794413
0.000794575
0.000794735
0.000794883
0.000795023
0.000795161
0.000795286
0.000795402
0.000795512
0.000795614
0.000795706
0.000795791
0.000795867
0.000795934
0.000795994
0.000796045
0.000796087
0.000796123
0.000796151
0.000796172
0.000796187
0.000796194
0.000373235
0.000373646
0.000374071
0.000374511
0.000374965
0.000375433
0.000375903
0.000376398
0.000376894
0.000377401
0.000377939
0.000378479
0.000379015
0.000379569
0.000380157
0.000380745
0.000381338
0.000381963
0.000382587
0.000383226
0.000383873
0.000384524
0.000385187
0.00038585
0.000386521
0.000387204
0.000387908
0.000388634
0.000389385
0.000390135
0.000390873
0.000391635
0.000392427
0.000393244
0.000394047
0.000394845
0.00039567
0.000396486
0.0003973
0.000398154
0.000399038
0.000399926
0.000400818
0.000401712
0.000402649
0.000403601
0.00040452
0.000405441
0.000406392
0.000407406
0.000408435
0.000409438
0.000410429
0.000411435
0.000412459
0.000413484
0.000414538
0.000415604
0.00041669
0.000417775
0.000418851
0.000419959
0.000421101
0.000422225
0.000423334
0.00042451
0.000425697
0.00042686
0.000428016
0.00042919
0.000430362
0.000431536
0.000432756
0.000433953
0.000435157
0.000436413
0.000437675
0.000438935
0.000440231
0.000441519
0.000442809
0.000444135
0.000445471
0.000446774
0.000448094
0.000449452
0.000450808
0.00045219
0.000453558
0.000454908
0.000456303
0.000457721
0.000459117
0.000460537
0.000461947
0.000463324
0.000464729
0.000466162
0.000467612
0.000469065
0.00047051
0.000471969
0.000473415
0.000474851
0.000476326
0.000477811
0.000479302
0.00048079
0.000482285
0.000483825
0.00048536
0.000486869
0.000488385
0.000489883
0.000491389
0.000492914
0.000494434
0.00049599
0.000497592
0.000499206
0.000500798
0.000502365
0.000503948
0.000505544
0.00050714
0.000508758
0.000510375
0.00051198
0.000513598
0.000515203
0.000516792
0.000518414
0.000520092
0.000521769
0.000523407
0.000524999
0.00052658
0.000528181
0.000529761
0.000531326
0.000532935
0.000534619
0.000536288
0.000537926
0.000539611
0.000541292
0.000542939
0.000544584
0.000546214
0.000547826
0.000549468
0.000551111
0.000552716
0.000554373
0.000556089
0.000557752
0.000559402
0.000561096
0.00056277
0.000564437
0.000566101
0.000567784
0.000569503
0.000571209
0.000572889
0.000574559
0.000576236
0.00057788
0.000579498
0.000581149
0.00058282
0.000584468
0.000586092
0.000587714
0.000589305
0.000590876
0.000592497
0.000594142
0.000595753
0.000597353
0.000598965
0.00060056
0.00060214
0.000603732
0.000605343
0.000606968
0.000608609
0.000610275
0.000612025
0.000613977
0.000616093
0.000618115
0.000619963
0.000621645
0.000623196
0.000624699
0.000626278
0.000627965
0.000629683
0.000631406
0.000633113
0.000634741
0.00063627
0.000637726
0.000639174
0.000640682
0.000642238
0.000643774
0.000645272
0.000646752
0.000648233
0.000649696
0.000651131
0.000652558
0.000653993
0.000655417
0.000656824
0.000658244
0.000659695
0.000661138
0.000662537
0.000663904
0.000665252
0.000666601
0.000667964
0.000669342
0.000670717
0.000672061
0.000673416
0.000674781
0.000676108
0.000677428
0.000678796
0.00068018
0.000681515
0.000682826
0.000684129
0.000685405
0.000686649
0.000687889
0.000689147
0.000690377
0.000691585
0.000692766
0.000693907
0.000695034
0.00069617
0.000697536
0.00069963
0.000701733
0.000703351
0.000704702
0.00070592
0.000707078
0.000708206
0.000709318
0.000710415
0.000711496
0.000712614
0.000713823
0.000715061
0.000716227
0.000717326
0.000718408
0.000719509
0.000720629
0.000721719
0.000722777
0.000723867
0.000725008
0.000726125
0.000727207
0.000728294
0.000729351
0.000730354
0.000731323
0.000732295
0.000733312
0.000734334
0.000735341
0.000736353
0.000737367
0.000738383
0.000739396
0.000740383
0.000741338
0.000742271
0.000743184
0.000744082
0.000744973
0.000745851
0.000746706
0.000747544
0.000748378
0.000749227
0.000750118
0.000751033
0.000751891
0.000752704
0.000753522
0.000754431
0.000755596
0.000756825
0.000757842
0.000758736
0.000759558
0.000760334
0.000761082
0.000761814
0.00076253
0.000763235
0.000763933
0.000764628
0.000765327
0.000766049
0.000766785
0.000767491
0.00076816
0.000768807
0.000769437
0.000770047
0.000770652
0.000771287
0.000771969
0.000772673
0.000773375
0.000774044
0.000774676
0.000775292
0.000775899
0.000776491
0.00077707
0.000777641
0.000778199
0.000778743
0.000779276
0.000779798
0.00078031
0.00078082
0.000781321
0.000781805
0.000782278
0.000782746
0.000783208
0.00078366
0.000784107
0.000784554
0.00078501
0.000785459
0.000785885
0.000786293
0.00078669
0.00078708
0.000787466
0.000787848
0.000788216
0.000788573
0.000788924
0.000789271
0.000789604
0.000789923
0.000790235
0.000790546
0.000790856
0.000791166
0.000791469
0.000791758
0.000792038
0.000792306
0.000792557
0.000792794
0.000793023
0.000793245
0.000793458
0.000793665
0.000793867
0.000794059
0.00079424
0.00079441
0.000794575
0.000794734
0.000794882
0.000795023
0.000795161
0.000795288
0.000795403
0.000795511
0.000795613
0.000795706
0.000795792
0.000795868
0.000795935
0.000795995
0.000796046
0.000796089
0.000796124
0.000796152
0.000796173
0.000796187
0.000796195
0.000373233
0.000373646
0.000374073
0.000374514
0.00037497
0.00037544
0.000375911
0.0003764
0.000376903
0.000377417
0.000377943
0.000378468
0.000379009
0.000379569
0.000380152
0.000380743
0.00038134
0.000381961
0.000382588
0.000383231
0.00038387
0.000384527
0.00038519
0.000385842
0.000386533
0.00038722
0.000387905
0.000388636
0.00038939
0.000390131
0.000390874
0.000391636
0.000392418
0.000393228
0.000394049
0.000394858
0.000395675
0.000396481
0.000397286
0.000398148
0.000399043
0.000399934
0.000400821
0.000401716
0.000402641
0.00040358
0.000404512
0.000405448
0.000406412
0.0004074
0.000408414
0.000409449
0.000410435
0.00041143
0.000412468
0.000413502
0.000414538
0.000415595
0.000416671
0.000417755
0.000418843
0.000419958
0.0004211
0.00042222
0.000423346
0.000424512
0.000425695
0.000426865
0.000428035
0.000429223
0.000430385
0.000431532
0.000432714
0.000433919
0.000435166
0.000436445
0.000437693
0.000438958
0.000440261
0.000441524
0.000442811
0.000444141
0.000445455
0.000446745
0.000448067
0.00044944
0.000450806
0.000452186
0.000453551
0.000454933
0.00045632
0.000457704
0.000459115
0.000460519
0.000461904
0.000463313
0.000464744
0.000466154
0.000467582
0.000469062
0.000470544
0.000471996
0.000473442
0.000474877
0.000476333
0.000477819
0.00047931
0.00048079
0.000482284
0.000483815
0.000485328
0.000486834
0.000488365
0.000489884
0.000491401
0.00049292
0.000494435
0.000495993
0.00049761
0.00049921
0.000500785
0.000502358
0.000503957
0.00050554
0.000507123
0.000508755
0.000510385
0.000511991
0.000513579
0.000515181
0.000516791
0.00051844
0.000520129
0.000521798
0.000523433
0.000525013
0.000526576
0.000528162
0.000529747
0.000531333
0.000532976
0.000534625
0.000536251
0.000537913
0.000539593
0.000541278
0.000542948
0.00054458
0.000546184
0.000547815
0.000549468
0.000551106
0.000552742
0.00055439
0.000556067
0.000557734
0.000559411
0.000561112
0.000562763
0.000564404
0.000566083
0.000567782
0.000569507
0.00057123
0.000572913
0.000574578
0.000576257
0.000577924
0.000579568
0.000581219
0.000582864
0.000584464
0.000586048
0.000587654
0.000589264
0.000590871
0.000592501
0.000594125
0.000595711
0.000597298
0.000598921
0.000600525
0.000602086
0.000603667
0.000605281
0.000606914
0.000608568
0.000610329
0.000612328
0.000614489
0.000616539
0.000618404
0.000620099
0.000621673
0.000623219
0.000624793
0.000626398
0.000628024
0.000629673
0.000631347
0.000633024
0.000634649
0.000636192
0.000637675
0.000639156
0.000640667
0.000642201
0.000643723
0.000645218
0.000646706
0.000648186
0.00064964
0.000651079
0.000652527
0.00065398
0.000655418
0.000656839
0.000658256
0.000659678
0.000661091
0.000662483
0.000663861
0.000665232
0.000666604
0.000667978
0.000669355
0.000670725
0.000672075
0.000673424
0.00067477
0.000676106
0.000677459
0.000678828
0.000680189
0.000681532
0.000682847
0.000684138
0.000685413
0.000686662
0.000687901
0.000689155
0.000690391
0.000691601
0.000692785
0.000693944
0.000695143
0.000696422
0.000698001
0.000700082
0.000701872
0.000703312
0.000704584
0.000705786
0.000706958
0.000708103
0.000709231
0.000710351
0.000711478
0.00071264
0.000713832
0.000715014
0.000716152
0.000717252
0.000718353
0.000719476
0.000720607
0.000721715
0.000722796
0.000723896
0.000725026
0.000726136
0.000727235
0.000728327
0.000729361
0.000730339
0.000731302
0.000732292
0.000733324
0.00073435
0.000735359
0.000736378
0.000737396
0.000738397
0.000739383
0.000740354
0.000741307
0.00074224
0.000743153
0.000744056
0.000744956
0.000745836
0.000746679
0.000747502
0.000748335
0.000749218
0.000750164
0.000751117
0.000752025
0.000752907
0.000753795
0.000754728
0.000755747
0.000756778
0.000757738
0.000758625
0.000759459
0.000760253
0.000761015
0.000761753
0.000762474
0.000763191
0.000763908
0.00076462
0.000765334
0.000766055
0.000766771
0.000767465
0.000768136
0.000768786
0.000769415
0.000770035
0.000770673
0.00077134
0.000772035
0.000772732
0.000773396
0.000774037
0.000774659
0.000775266
0.000775869
0.000776468
0.000777057
0.000777632
0.000778195
0.000778743
0.000779275
0.000779797
0.000780311
0.000780823
0.000781323
0.000781806
0.000782277
0.000782744
0.000783204
0.000783657
0.000784111
0.000784569
0.00078502
0.000785455
0.000785875
0.000786282
0.000786681
0.000787073
0.00078746
0.000787841
0.000788211
0.000788571
0.000788923
0.000789265
0.000789598
0.000789922
0.000790236
0.000790547
0.000790857
0.000791167
0.000791473
0.000791767
0.000792047
0.000792309
0.000792558
0.000792797
0.000793026
0.000793247
0.000793459
0.000793664
0.000793864
0.000794056
0.000794235
0.000794405
0.000794572
0.000794734
0.000794883
0.000795023
0.000795161
0.000795289
0.000795404
0.000795511
0.000795612
0.000795706
0.000795791
0.000795869
0.000795937
0.000795996
0.000796048
0.000796091
0.000796126
0.000796154
0.000796174
0.000796188
0.000796195
0.000373231
0.000373641
0.000374072
0.00037452
0.000374975
0.000375445
0.000375917
0.000376404
0.000376912
0.000377421
0.000377942
0.000378455
0.00037899
0.000379583
0.000380171
0.000380743
0.000381336
0.000381951
0.000382576
0.00038323
0.000383884
0.000384536
0.000385189
0.000385846
0.00038653
0.000387209
0.000387898
0.00038863
0.00038937
0.000390121
0.000390896
0.000391654
0.000392423
0.000393236
0.000394063
0.000394863
0.000395655
0.000396464
0.000397302
0.00039817
0.00039904
0.000399931
0.000400832
0.000401721
0.000402628
0.000403561
0.000404491
0.000405427
0.000406415
0.000407419
0.000408422
0.000409436
0.000410439
0.000411441
0.00041246
0.000413502
0.000414543
0.000415595
0.000416677
0.000417752
0.000418831
0.000419941
0.000421081
0.000422217
0.000423335
0.000424508
0.000425709
0.000426888
0.000428059
0.00042923
0.000430389
0.000431536
0.000432724
0.000433934
0.000435163
0.000436442
0.000437708
0.000438968
0.00044024
0.000441546
0.000442852
0.000444134
0.000445439
0.000446743
0.000448064
0.000449433
0.000450805
0.000452172
0.000453551
0.000454938
0.000456317
0.000457689
0.000459088
0.000460499
0.000461882
0.000463287
0.000464733
0.000466166
0.000467586
0.000469049
0.000470562
0.000472049
0.000473471
0.0004749
0.000476362
0.00047783
0.000479309
0.000480776
0.000482264
0.000483795
0.000485315
0.000486805
0.000488313
0.000489867
0.000491443
0.000492958
0.000494435
0.000495989
0.000497604
0.000499193
0.000500775
0.000502362
0.000503944
0.000505523
0.000507137
0.000508781
0.000510386
0.000511966
0.000513555
0.000515165
0.00051678
0.000518438
0.000520151
0.000521848
0.000523471
0.000525044
0.000526607
0.000528162
0.000529738
0.000531335
0.000532957
0.000534593
0.000536252
0.000537928
0.000539589
0.000541267
0.000542929
0.000544554
0.000546183
0.000547825
0.000549456
0.000551083
0.000552727
0.000554392
0.000556071
0.000557753
0.000559443
0.000561112
0.000562735
0.000564372
0.000566064
0.000567773
0.000569507
0.000571249
0.000572933
0.000574593
0.000576321
0.000578037
0.000579659
0.000581266
0.000582863
0.000584439
0.000586029
0.000587626
0.000589227
0.000590842
0.000592462
0.000594077
0.000595671
0.000597256
0.000598851
0.000600454
0.00060204
0.000603617
0.000605205
0.00060686
0.000608689
0.000610762
0.00061294
0.000614961
0.000616825
0.000618551
0.000620143
0.000621682
0.000623243
0.000624827
0.000626411
0.000627996
0.000629613
0.00063127
0.000632948
0.000634592
0.00063615
0.000637647
0.000639139
0.000640648
0.000642164
0.000643671
0.00064516
0.000646642
0.000648112
0.000649573
0.00065104
0.000652508
0.00065397
0.000655415
0.000656835
0.000658241
0.000659648
0.000661059
0.000662464
0.000663853
0.000665229
0.000666608
0.00066799
0.00066936
0.000670718
0.000672065
0.00067341
0.000674753
0.000676102
0.000677476
0.00067884
0.000680197
0.000681558
0.000682887
0.000684177
0.000685437
0.000686673
0.00068791
0.00068917
0.000690421
0.000691637
0.000692822
0.000694037
0.000695373
0.000696811
0.000698464
0.000700272
0.000701844
0.000703206
0.000704457
0.00070566
0.000706839
0.000707997
0.000709146
0.000710298
0.000711458
0.000712629
0.000713804
0.000714961
0.000716086
0.00071719
0.000718296
0.000719434
0.000720577
0.000721704
0.000722814
0.000723935
0.000725083
0.000726204
0.000727286
0.000728331
0.000729331
0.000730304
0.000731287
0.000732309
0.00073335
0.000734372
0.000735387
0.0007364
0.000737397
0.000738384
0.000739363
0.000740328
0.000741271
0.000742202
0.000743131
0.000744048
0.000744941
0.000745804
0.000746635
0.000747441
0.000748291
0.000749233
0.000750222
0.000751233
0.000752192
0.000753092
0.000753978
0.000754897
0.000755856
0.000756787
0.000757688
0.000758559
0.000759394
0.000760195
0.000760962
0.000761702
0.000762426
0.000763148
0.000763872
0.000764596
0.000765328
0.000766058
0.000766769
0.000767452
0.000768116
0.000768765
0.000769401
0.000770034
0.000770703
0.000771401
0.000772085
0.000772754
0.000773399
0.000774026
0.000774637
0.00077524
0.000775843
0.000776452
0.000777048
0.000777622
0.000778192
0.000778752
0.000779284
0.0007798
0.000780312
0.000780823
0.000781321
0.000781802
0.000782272
0.000782741
0.000783203
0.000783662
0.000784122
0.000784575
0.000785018
0.000785448
0.000785865
0.000786271
0.00078667
0.000787065
0.000787456
0.000787839
0.000788209
0.000788569
0.000788921
0.000789264
0.000789597
0.00078992
0.000790233
0.000790542
0.000790852
0.000791163
0.000791475
0.000791777
0.000792059
0.000792317
0.000792563
0.0007928
0.000793028
0.000793249
0.000793464
0.000793668
0.000793861
0.00079405
0.000794231
0.000794403
0.00079457
0.000794732
0.000794883
0.000795026
0.000795162
0.000795289
0.000795404
0.00079551
0.000795612
0.000795707
0.000795792
0.000795869
0.000795938
0.000795998
0.00079605
0.000796092
0.000796127
0.000796155
0.000796176
0.00079619
0.000796196
0.00037323
0.000373633
0.00037406
0.000374517
0.000374974
0.000375447
0.000375928
0.000376416
0.000376911
0.00037741
0.000377933
0.000378457
0.000379001
0.000379583
0.000380165
0.000380759
0.000381354
0.00038195
0.000382566
0.000383208
0.000383868
0.000384536
0.000385199
0.00038585
0.000386521
0.000387219
0.000387912
0.000388625
0.000389352
0.000390112
0.0003909
0.000391663
0.000392443
0.000393241
0.000394055
0.000394863
0.000395656
0.000396467
0.000397308
0.000398172
0.000399044
0.000399931
0.000400825
0.000401712
0.000402625
0.00040356
0.000404492
0.000405432
0.000406399
0.000407406
0.000408436
0.000409432
0.000410424
0.000411447
0.000412468
0.000413491
0.000414543
0.000415606
0.000416668
0.000417741
0.000418829
0.000419921
0.000421059
0.000422215
0.000423342
0.00042452
0.000425729
0.000426899
0.00042806
0.000429231
0.000430385
0.00043155
0.000432762
0.000433968
0.000435173
0.000436437
0.000437719
0.000438985
0.000440252
0.000441528
0.000442827
0.000444138
0.000445438
0.000446736
0.000448065
0.000449424
0.000450782
0.000452159
0.000453561
0.000454951
0.000456306
0.00045766
0.000459076
0.000460498
0.000461885
0.000463297
0.000464724
0.000466144
0.00046761
0.000469091
0.000470564
0.000472029
0.000473476
0.00047494
0.000476399
0.000477846
0.000479288
0.000480735
0.000482237
0.000483793
0.000485329
0.00048682
0.000488311
0.000489851
0.000491416
0.000492943
0.00049445
0.000495984
0.000497573
0.000499189
0.000500775
0.000502365
0.000503945
0.000505524
0.000507149
0.000508763
0.000510356
0.000511951
0.00051355
0.000515166
0.000516799
0.000518479
0.000520188
0.000521852
0.000523455
0.000525047
0.000526633
0.000528197
0.000529763
0.000531343
0.000532951
0.000534574
0.00053622
0.000537907
0.000539589
0.000541241
0.000542892
0.000544544
0.000546194
0.000547823
0.000549448
0.000551084
0.000552739
0.000554412
0.00055609
0.000557768
0.000559418
0.000561061
0.000562704
0.000564369
0.000566084
0.000567808
0.00056952
0.000571237
0.000572956
0.000574672
0.000576407
0.0005781
0.000579701
0.000581275
0.000582857
0.000584422
0.000585994
0.000587602
0.000589217
0.000590813
0.000592416
0.000594028
0.00059562
0.000597214
0.000598817
0.000600392
0.000601941
0.000603491
0.000605137
0.000607062
0.000609252
0.00061141
0.000613409
0.000615251
0.000616976
0.000618591
0.000620137
0.000621671
0.00062323
0.000624807
0.00062638
0.000627951
0.000629559
0.000631222
0.000632903
0.000634547
0.000636115
0.000637622
0.000639117
0.00064062
0.000642122
0.000643614
0.000645098
0.000646581
0.000648057
0.000649529
0.000651004
0.000652478
0.000653942
0.000655386
0.00065681
0.000658216
0.000659626
0.000661051
0.000662464
0.000663851
0.000665225
0.000666602
0.00066798
0.00066935
0.00067071
0.000672058
0.000673398
0.000674744
0.000676116
0.000677481
0.000678823
0.000680202
0.000681598
0.000682931
0.000684206
0.000685449
0.000686684
0.000687943
0.000689227
0.000690483
0.00069169
0.000692903
0.000694179
0.000695631
0.000697221
0.000698788
0.000700327
0.000701768
0.000703096
0.000704344
0.000705548
0.000706731
0.000707907
0.000709078
0.000710251
0.000711428
0.000712602
0.000713763
0.0007149
0.000716017
0.000717128
0.000718258
0.000719408
0.000720546
0.000721708
0.000722875
0.000724019
0.000725154
0.000726241
0.000727284
0.000728306
0.000729304
0.000730288
0.000731293
0.000732332
0.000733369
0.000734385
0.000735392
0.000736392
0.000737383
0.000738368
0.000739344
0.000740304
0.00074125
0.000742188
0.000743115
0.000744024
0.000744913
0.000745772
0.000746585
0.000747368
0.000748245
0.000749348
0.000750454
0.000751423
0.000752321
0.000753204
0.000754092
0.000754998
0.000755912
0.0007568
0.000757668
0.000758522
0.000759348
0.000760144
0.000760912
0.000761654
0.000762381
0.00076311
0.000763844
0.000764577
0.000765319
0.000766058
0.000766765
0.000767445
0.000768108
0.000768759
0.000769406
0.00077006
0.000770736
0.000771422
0.000772094
0.000772751
0.000773389
0.000774011
0.000774623
0.000775226
0.000775829
0.00077644
0.00077704
0.000777617
0.000778189
0.000778751
0.000779284
0.0007798
0.000780315
0.000780824
0.000781319
0.000781798
0.000782273
0.000782745
0.000783207
0.000783663
0.000784117
0.00078457
0.000785015
0.000785442
0.000785856
0.000786264
0.000786665
0.000787059
0.000787452
0.000787837
0.000788208
0.000788568
0.00078892
0.000789264
0.000789598
0.00078992
0.000790232
0.000790541
0.000790852
0.000791167
0.000791481
0.000791783
0.000792063
0.000792319
0.000792563
0.000792801
0.000793031
0.000793251
0.000793464
0.000793668
0.000793861
0.000794048
0.000794228
0.000794401
0.000794568
0.000794731
0.000794885
0.000795027
0.000795161
0.000795288
0.000795404
0.00079551
0.000795612
0.000795707
0.000795793
0.00079587
0.000795939
0.000795999
0.00079605
0.000796093
0.000796129
0.000796158
0.000796178
0.000796191
0.000796198
0.000373228
0.000373635
0.000374059
0.000374505
0.000374963
0.000375442
0.000375932
0.000376422
0.000376918
0.000377421
0.000377934
0.000378458
0.000379015
0.000379594
0.000380172
0.000380758
0.00038135
0.000381953
0.000382565
0.000383192
0.000383863
0.000384533
0.000385185
0.000385838
0.000386513
0.000387219
0.000387923
0.000388637
0.000389363
0.000390115
0.000390898
0.000391679
0.000392455
0.000393241
0.000394044
0.000394849
0.000395661
0.000396483
0.000397316
0.000398158
0.00039903
0.00039993
0.000400822
0.000401709
0.00040263
0.000403567
0.000404493
0.000405439
0.000406407
0.000407399
0.000408424
0.000409426
0.000410419
0.000411446
0.000412472
0.00041349
0.000414536
0.000415599
0.000416659
0.000417736
0.000418815
0.000419904
0.000421049
0.000422238