/*--------------------------------*- C++ -*----------------------------------*\
  =========                 |
  \\      /  F ield         | OpenFOAM: The Open Source CFD Toolbox
   \\    /   O peration     | Website:  https://openfoam.org
    \\  /    A nd           | Version:  7
     \\/     M anipulation  |
\*---------------------------------------------------------------------------*/
FoamFile
{
    version     2.0;
    format      ascii;
    class       volScalarField;
    location    "3000";
    object      muTotal;
}
// * * * * * * * * * * * * * * * * * * * * * * * * * * * * * * * * * * * * * //

dimensions      [1 -1 -1 0 0 0 0];

internalField   nonuniform List<scalar> 
160000
(
0.000206173
0.000206219
0.000177306
0.000178559
0.000169679
0.000169525
0.000196694
0.000227703
0.000198398
0.000195409
0.000189535
0.000182294
0.000182085
0.000198139
0.000191664
0.000191938
0.000194395
0.000203373
0.000219696
0.000220051
0.000196606
0.000183437
0.00018491
0.000198904
0.000191292
0.000180149
0.000198697
0.000201833
0.000218769
0.00021916
0.000199523
0.000178957
0.000179301
0.000198729
0.000199181
0.000189511
0.000195078
0.000229336
0.000229789
0.000209605
0.000200801
0.000192558
0.000189078
0.000200404
0.000213483
0.000233393
0.000227875
0.000203331
0.000203777
0.000204237
0.000200382
0.000212676
0.000220367
0.000234669
0.000238686
0.000224116
0.000224663
0.000224575
0.000213857
0.000214367
0.00021716
0.000220733
0.000221286
0.000221836
0.000206495
0.000207027
0.00020758
0.000218887
0.000222397
0.000220657
0.000221236
0.000221826
0.000226699
0.000233261
0.000233888
0.000234526
0.000235173
0.000234876
0.00023552
0.000235927
0.00023659
0.000237282
0.000237965
0.000234225
0.000230209
0.000229269
0.000229924
0.000226268
0.000226903
0.000231892
0.000231879
0.00023254
0.000243552
0.000244455
0.000245187
0.000244868
0.000246541
0.00024726
0.000247994
0.000248713
0.00024945
0.000243619
0.000244331
0.000259109
0.000243702
0.00024442
0.000245142
0.000250411
0.000260239
0.000264059
0.000265795
0.000266572
0.000267366
0.000268164
0.00025528
0.000256038
0.000258881
0.000270788
0.000278946
0.000279827
0.000280693
0.000275841
0.000280538
0.000281394
0.000276833
0.000275627
0.000272495
0.000252865
0.000245463
0.000246206
0.000255703
0.000258401
0.000277641
0.000292068
0.000292108
0.000269381
0.000255939
0.000256685
0.000265267
0.000263402
0.00026416
0.000274661
0.000275464
0.00028343
0.000291785
0.000292695
0.000293535
0.00029442
0.000295261
0.000296107
0.000289425
0.000290252
0.000285511
0.000286335
0.00028716
0.000299333
0.000302245
0.000304938
0.000298642
0.000288842
0.000283983
0.000282851
0.000269931
0.000270713
0.000278331
0.000306425
0.000307316
0.000307718
0.000308552
0.000302605
0.000310184
0.000311082
0.000289778
0.000293716
0.00029981
0.000300575
0.00030675
0.000305194
0.000306008
0.00031026
0.000311052
0.000312975
0.000318755
0.000319558
0.000338784
0.000349382
0.000332795
0.000313006
0.000313846
0.000330216
0.000308554
0.000261011
0.000249111
0.000241459
0.000242163
0.000251087
0.000317457
0.000283345
0.000223959
0.000224722
0.000225179
0.000223638
0.000216354
0.000216735
0.000331067
0.000337687
0.000340803
0.000328406
0.000315468
0.00030881
0.000306309
0.000306977
0.00030869
0.000308761
0.000309179
0.000309831
0.000312701
0.000337192
0.000337888
0.000323741
0.000315827
0.000316481
0.000317039
0.000334221
0.000392052
0.000403722
0.000404993
0.000405494
0.000365187
0.000334418
0.000335051
0.000378761
0.000402811
0.000403597
0.000398942
0.000337675
0.000325305
0.000325895
0.000326445
0.000334585
0.000335196
0.000353198
0.000396263
0.000406918
0.000409321
0.000409999
0.000418514
0.000412658
0.000329888
0.000180134
0.000109039
0.000109275
0.000109458
0.000141611
0.000217287
0.000293356
0.000293786
0.000294199
0.000388814
0.0003424
0.000294787
0.00029531
0.000295768
0.000296176
0.000385092
0.000383721
0.000384303
0.00038485
0.000430609
0.000431268
0.000431935
0.000360735
0.000320419
0.000320887
0.000321315
0.000340372
0.000454627
0.000455251
0.000455876
0.000403169
0.00033575
0.000352379
0.000365822
0.000366308
0.000333391
0.000317258
0.000317644
0.000318038
0.000324275
0.000374304
0.000381684
0.000382103
0.000478194
0.000497872
0.000498432
0.000498992
0.000434575
0.000435036
0.000454184
0.000377537
0.00016975
7.697e-05
5.87056e-05
5.88357e-05
5.88408e-05
5.89387e-05
6.07653e-05
8.01473e-05
0.00010553
0.000163871
0.000247835
0.000292929
0.000369566
0.000432006
0.000432355
0.000298558
0.000298832
0.000299117
0.000299339
0.000332332
0.000371489
0.000409405
0.000506228
0.000526172
0.000526649
0.000366543
0.00030431
0.000304508
0.00030481
0.000304985
0.000305269
0.000305453
0.000305698
0.000305888
0.000306117
0.000306312
0.00030652
0.000377068
0.000356845
0.000272465
0.000272636
0.000272787
0.000272941
0.000273096
0.000517382
0.000517672
0.000517988
0.000471984
0.000340171
0.000340316
0.000340539
0.00034069
0.000373518
0.000440822
0.000441025
0.000441228
0.000412123
0.000402888
0.000403103
0.000403229
0.000403429
0.000421419
0.000449792
0.000458997
0.00045921
0.000459345
0.000459533
0.000459676
0.0004599
0.000428893
0.00037586
0.000375941
0.000376061
0.000376152
0.000376259
0.000376344
0.000376442
0.000404019
0.000414927
0.000441136
0.000441222
0.000441304
0.000451239
0.000452954
0.000453027
0.000453094
0.000415977
0.000411631
0.000411678
0.00041721
0.000414779
0.000396282
0.000387331
0.000314734
0.000273932
0.000204462
0.00013878
0.000138802
0.000138804
0.000138809
0.000184834
0.000185025
0.000221477
0.000173825
0.000172463
0.000174619
0.000186178
0.000192384
0.00019262
0.000194698
0.00019702
0.000201787
0.00020071
0.000198131
0.000205183
0.000205479
0.000198282
0.000190539
0.000189204
0.000191336
0.000196606
0.000195143
0.000194346
0.000210208
0.000210981
0.000196336
0.000213856
0.000214248
0.00021307
0.000212658
0.000211806
0.000186583
0.000179303
0.000182608
0.000205347
0.000221388
0.000221849
0.000205576
0.000198947
0.000199353
0.000198347
0.000192648
0.000192028
0.000199798
0.00022149
0.000233395
0.000233916
0.000203212
0.000197658
0.000198124
0.000202012
0.000208752
0.000216132
0.000238118
0.000238682
0.000230746
0.000231317
0.000218593
0.00021386
0.000219473
0.000220157
0.000220722
0.000221284
0.000218025
0.000218574
0.000219147
0.000207576
0.000208116
0.000222375
0.000226603
0.000227203
0.000227807
0.00021525
0.000215809
0.00021638
0.000216971
0.000224647
0.00022709
0.000227711
0.000235576
0.000236602
0.00023167
0.000226767
0.000227395
0.000234471
0.0002352
0.000235874
0.000227659
0.000229766
0.000238788
0.000242283
0.000242997
0.000243717
0.000244462
0.000237246
0.000243853
0.000246511
0.000241386
0.000241092
0.00022732
0.000227976
0.00024466
0.000244335
0.000265367
0.000266175
0.000244421
0.000245138
0.00024588
0.000251942
0.000251972
0.000252745
0.000253495
0.000260457
0.000267946
0.000273643
0.00027446
0.000272961
0.000273262
0.000267564
0.000276164
0.000280697
0.000273332
0.000261771
0.000262954
0.000261959
0.000261338
0.000261557
0.000253642
0.000255392
0.000253044
0.00025953
0.000258392
0.000292978
0.000295446
0.000296369
0.000285444
0.000300137
0.00029255
0.000266874
0.000275811
0.000286356
0.000288738
0.00029005
0.000290907
0.000291808
0.000290426
0.000283694
0.000281917
0.000283383
0.000274636
0.000275429
0.000278131
0.000286817
0.000298661
0.000300726
0.00030318
0.000304062
0.000304945
0.000289458
0.000290822
0.000291653
0.000291521
0.000275191
0.00027432
0.000277208
0.000300019
0.000307314
0.000303109
0.00030122
0.000277276
0.000278034
0.000282109
0.000282743
0.000301007
0.000313855
0.000326229
0.000330184
0.000320107
0.000321612
0.000310754
0.000313021
0.000305748
0.000310154
0.000323941
0.000357735
0.000359861
0.000344681
0.000332339
0.000360985
0.000361997
0.000319694
0.00024203
0.000191721
0.000205198
0.000236168
0.000303238
0.000282906
0.000283529
0.000316956
0.000277834
0.000218649
0.000212158
0.000232198
0.000283591
0.000343318
0.000347843
0.000348663
0.000319034
0.000308435
0.000307206
0.000307745
0.000307035
0.000317204
0.00034954
0.000357523
0.000346751
0.000358682
0.000328815
0.000313385
0.000314066
0.000314599
0.000315228
0.000328774
0.000377392
0.000402994
0.00040413
0.000405003
0.000405805
0.000406605
0.000407414
0.000408201
0.000408896
0.000409254
0.000344518
0.000324553
0.000324727
0.000325277
0.000325872
0.000326433
0.000326986
0.000327559
0.000361205
0.000418556
0.000419275
0.000420207
0.000490179
0.000503217
0.000282149
0.000108544
0.000108832
0.00010908
0.000109282
0.000182967
0.000264707
0.000295509
0.00030582
0.000302787
0.000377775
0.000390036
0.000307521
0.000294811
0.0002953
0.000295734
0.000359637
0.000399785
0.000385667
0.000384301
0.000429997
0.000430617
0.000431279
0.000383892
0.000319959
0.000320432
0.000320881
0.000321313
0.000392993
0.000454643
0.000455249
0.000455892
0.000361893
0.000335745
0.000360359
0.000360849
0.000316419
0.00031686
0.000317252
0.000317651
0.000318026
0.000324065
0.000337909
0.000352692
0.000429435
0.000476314
0.000473628
0.000474161
0.00061352
0.000630873
0.000574745
0.00064448
0.000641241
0.000189555
5.86542e-05
5.8771e-05
5.88141e-05
7.15356e-05
0.000117947
0.00017918
0.000239451
0.000294587
0.000340851
0.000375004
0.000402984
0.000431634
0.000432012
0.000431377
0.000298549
0.00029885
0.000299089
0.000328085
0.000381844
0.00042822
0.000501926
0.00052575
0.000526217
0.000526649
0.000318169
0.000304263
0.000304565
0.000304784
0.000305036
0.000321835
0.000377331
0.000374259
0.000373978
0.000379031
0.000346811
0.000345489
0.000404389
0.000403316
0.000338052
0.000354032
0.000392393
0.000338382
0.000432295
0.00051738
0.000517703
0.000517951
0.000350706
0.000340127
0.000340355
0.000340512
0.000340701
0.000390932
0.00044082
0.000441027
0.00044123
0.000441427
0.000441619
0.000441807
0.00044199
0.000441863
0.000449414
0.00045882
0.000459022
0.000459171
0.000459387
0.000424152
0.000389761
0.000389878
0.000390012
0.000401696
0.000409232
0.000410764
0.000396611
0.000401349
0.000393898
0.000424189
0.000424288
0.000424378
0.00044113
0.000435727
0.000435807
0.000449196
0.000441109
0.000441172
0.000453103
0.000420355
0.000415932
0.000460086
0.000460123
0.000438083
0.000438124
0.000438155
0.000375684
0.00036111
0.000303591
0.000158732
0.000138801
0.000138808
0.000138812
0.000184831
0.000198862
0.000221997
0.000221943
0.000221856
0.000192453
0.000202582
0.000205158
0.000196138
0.000197359
0.00020494
0.000205216
0.000200422
0.000204381
0.000205176
0.000202573
0.000202873
0.000202254
0.000189204
0.000189501
0.000195738
0.000202816
0.000203361
0.00020415
0.00021098
0.000216538
0.000216914
0.00021163
0.00021715
0.00021755
0.000202741
0.000200516
0.000192138
0.000193985
0.000194351
0.00020443
0.000215356
0.00021298
0.000211603
0.00020915
0.000210696
0.000211397
0.000211265
0.00019771
0.000198667
0.000209443
0.000197115
0.000201383
0.000208787
0.00020928
0.000209779
0.000210092
0.000214503
0.000225617
0.000226347
0.00022042
0.000227642
0.000223593
0.000224144
0.000224694
0.000212634
0.000210402
0.00021094
0.000208098
0.000198515
0.000199031
0.000208614
0.000215539
0.000216086
0.000221094
0.000219839
0.000220408
0.000221524
0.000222106
0.000216828
0.000225186
0.000229105
0.00023551
0.000236585
0.000237247
0.000227561
0.000226891
0.000227534
0.000232712
0.000234467
0.000230956
0.000231623
0.000232277
0.000232955
0.000224771
0.000225433
0.000241826
0.000230712
0.000231384
0.000237239
0.000233529
0.000235746
0.000243029
0.000247097
0.000248529
0.000249613
0.000264471
0.00026629
0.000263723
0.000264346
0.000248858
0.000249296
0.000246099
0.000246829
0.000259894
0.000260779
0.000261552
0.000262338
0.000255648
0.0002653
0.00027092
0.000267801
0.000262441
0.00024936
0.000244746
0.000243691
0.000251425
0.000258996
0.000261743
0.000261715
0.000264587
0.000262803
0.000265852
0.000273309
0.000274133
0.000270716
0.000280173
0.000293025
0.000290771
0.000289932
0.000290784
0.000300368
0.000298002
0.000285059
0.00027284
0.000268397
0.000276531
0.00028131
0.000282126
0.000288771
0.000292283
0.000286928
0.000281904
0.000282834
0.000278488
0.000285298
0.000286119
0.000276828
0.000281509
0.000295551
0.000293921
0.000292404
0.000285209
0.000276589
0.000277378
0.00028445
0.000305825
0.000310437
0.00031159
0.000298707
0.000290089
0.000290907
0.000303436
0.000319704
0.000292505
0.000278172
0.000279172
0.000282764
0.000283232
0.000283958
0.000327816
0.000334711
0.000335615
0.000336497
0.000336758
0.00031993
0.000295722
0.000310611
0.000337288
0.000342529
0.000366011
0.000374185
0.000369565
0.000281904
0.000235293
0.000234598
0.000209959
0.000153829
0.000200941
0.000292762
0.000317195
0.000325579
0.000330026
0.000331362
0.000273428
0.000254505
0.000275802
0.000316973
0.000353613
0.000348669
0.000308769
0.0003095
0.000308257
0.000309338
0.000315758
0.000317343
0.000322273
0.000351599
0.00036713
0.000364399
0.000364908
0.000365417
0.000365807
0.000315242
0.000314054
0.000321198
0.00036701
0.000401528
0.000402559
0.000403385
0.000404201
0.000405012
0.00040578
0.000406608
0.000407416
0.000408199
0.00040875
0.000359485
0.000288465
0.000335636
0.000378382
0.000341846
0.000327019
0.00036319
0.00038154
0.000382272
0.000382947
0.000383608
0.000416195
0.000478189
0.000504738
0.000505553
0.000218229
0.00010862
0.000108889
0.000109101
0.000163472
0.000265204
0.000320388
0.000329368
0.000330664
0.000352644
0.000389468
0.000390063
0.000349629
0.000294807
0.000295265
0.000344446
0.000399179
0.000399776
0.000400384
0.000411426
0.000430003
0.000430634
0.000367371
0.000367914
0.000388292
0.000388851
0.000388759
0.000379285
0.000413861
0.000454638
0.00045527
0.000442752
0.000325048
0.000315199
0.000315624
0.000316027
0.000316457
0.000316857
0.000328013
0.000361449
0.00038037
0.000389972
0.000390936
0.000391384
0.000391387
0.000399954
0.00051739
0.000646447
0.000647203
0.000648024
0.000648704
0.000649456
0.000650096
0.000448569
5.98815e-05
5.877e-05
9.99522e-05
0.000178338
0.000289748
0.000387581
0.000402912
0.000377692
0.000382072
0.000412799
0.000430307
0.000431633
0.000432022
0.000318949
0.000298581
0.000298836
0.000351783
0.000422052
0.000447453
0.000502207
0.000525329
0.000525793
0.000526224
0.000426504
0.000304051
0.000304323
0.00032198
0.000330329
0.000319128
0.000355957
0.000410493
0.000410786
0.000411073
0.000415885
0.000407956
0.000432541
0.00049358
0.00050004
0.000500347
0.000500664
0.000486102
0.000481169
0.000517068
0.000517389
0.000484377
0.000411962
0.000339954
0.00034018
0.000340335
0.000353991
0.000399521
0.000440597
0.00044081
0.000411238
0.000409882
0.000439949
0.000438145
0.000422413
0.000422588
0.000422755
0.000458637
0.000458832
0.000458995
0.000459215
0.000427576
0.000427894
0.000444343
0.000419018
0.000452264
0.000525472
0.00052562
0.000525782
0.000503574
0.000406765
0.000367079
0.000367178
0.00036725
0.000392273
0.000437798
0.000433392
0.00044923
0.000459274
0.000459348
0.000459429
0.0004531
0.000459983
0.000460037
0.000460088
0.0004266
0.000423456
0.000438124
0.000438155
0.000437996
0.000404062
0.000292896
0.000167052
0.000138808
0.000138811
0.000138812
0.000189761
0.00019604
0.000209556
0.000209489
0.000206288
0.000206533
0.000203216
0.000205159
0.000192098
0.000190808
0.000189284
0.000188851
0.00019596
0.000194363
0.000202073
0.000192784
0.00018767
0.000187956
0.000189204
0.000197654
0.000193463
0.000193772
0.000194084
0.000190521
0.000208425
0.000216548
0.000209479
0.000211631
0.000195964
0.000179305
0.000198569
0.000206672
0.000207066
0.000204062
0.0002009
0.00021845
0.000218877
0.000218607
0.000211595
0.000216364
0.000217778
0.000218244
0.000204797
0.000197712
0.00019814
0.000196083
0.00019651
0.000199406
0.000205246
0.000204538
0.000205017
0.000209754
0.00020309
0.000203554
0.000204037
0.000205927
0.000203701
0.00020419
0.000204688
0.000210461
0.00021274
0.000213278
0.000206578
0.000191622
0.000203683
0.00022244
0.000223032
0.000217196
0.000233022
0.000248029
0.000236954
0.000222214
0.000219142
0.000218674
0.00021927
0.000225207
0.000203157
0.000203708
0.000223365
0.000205105
0.000232474
0.000239797
0.000240479
0.000231339
0.00023199
0.00023845
0.000242773
0.000243491
0.000226318
0.000226977
0.000225442
0.000226474
0.000235825
0.000236518
0.000229294
0.000233523
0.00021995
0.00021207
0.000221495
0.000244974
0.000253817
0.000258284
0.00028468
0.000285513
0.000276791
0.000273612
0.00026077
0.000247456
0.000246917
0.000250744
0.000245053
0.000254119
0.000254464
0.000246897
0.00025517
0.000269587
0.000270306
0.000260745
0.000250675
0.000244634
0.000237497
0.000233521
0.000234227
0.000239785
0.000254283
0.000265482
0.000266297
0.000267103
0.000261816
0.000265826
0.000261584
0.00026834
0.00027509
0.00030447
0.000326387
0.000330297
0.000314614
0.000281451
0.000258457
0.000257258
0.000258021
0.000267064
0.000276798
0.000284317
0.000287219
0.000292275
0.000293146
0.000293996
0.000285111
0.000289993
0.00027752
0.000270476
0.00027125
0.000275197
0.000291799
0.00029942
0.000306281
0.000307182
0.000308056
0.000306224
0.000308448
0.000310813
0.000311727
0.00031264
0.000280829
0.00029098
0.000335004
0.000349966
0.000368561
0.000369589
0.000370612
0.000350069
0.000338231
0.000338766
0.000305083
0.000299328
0.000300127
0.000301645
0.000316839
0.000330455
0.000296289
0.00029571
0.000302311
0.000338844
0.00036121
0.000373806
0.000355629
0.000256781
0.000257686
0.000265311
0.000266334
0.000178102
0.000195824
0.00028334
0.00029698
0.000303436
0.000316005
0.000330406
0.00033136
0.000330588
0.000320431
0.000322679
0.000328138
0.000364609
0.000367723
0.000367565
0.000316353
0.000307588
0.000307679
0.000308364
0.000310027
0.00033604
0.000367833
0.000369457
0.000369163
0.000363593
0.000363631
0.000361202
0.000347783
0.000352047
0.000387378
0.00040058
0.000401636
0.00040256
0.000403277
0.000354167
0.000339972
0.000345694
0.000365345
0.000385885
0.000407829
0.00037704
0.00029904
0.000286364
0.000378289
0.00042278
0.000424042
0.000424872
0.000425633
0.000371751
0.000353177
0.000353792
0.000402355
0.000468133
0.000503955
0.000504816
0.000505733
0.000230775
0.000108676
0.00010891
0.000136353
0.000231955
0.000298411
0.000320001
0.00034023
0.000362256
0.000388858
0.000389459
0.000390078
0.00036338
0.000311143
0.000335177
0.000394181
0.000399149
0.000399758
0.000352158
0.000341854
0.000430009
0.000430658
0.000431309
0.000431965
0.000388303
0.000363384
0.000363877
0.000364358
0.000450429
0.000454648
0.000455266
0.000455904
0.000396725
0.000315221
0.000315633
0.000316048
0.00032879
0.000352656
0.000353578
0.00035401
0.000364113
0.000374715
0.000375156
0.000375587
0.000376001
0.00048637
0.000645668
0.000646421
0.000647295
0.000648039
0.000606711
0.000603758
0.00065032
0.000651103
0.000508361
0.000364524
0.000353858
0.000405907
0.000448045
0.000448505
0.000448945
0.000440547
0.000422915
0.0003926
0.000392959
0.000418002
0.000436553
0.000409566
0.000365039
0.000329193
0.000329472
0.000358943
0.000471956
0.000524901
0.000525366
0.000509514
0.000303588
0.000303837
0.000304094
0.000316924
0.000364841
0.000416097
0.000410297
0.000384029
0.000383248
0.000403171
0.000424451
0.000498721
0.000499078
0.000499386
0.000499753
0.000500033
0.000500387
0.000490965
0.000447325
0.00044759
0.000499944
0.00051736
0.000447902
0.000339791
0.000340003
0.00034017
0.000340354
0.000359889
0.000380887
0.000400096
0.000420922
0.000413925
0.000409877
0.000415322
0.000438096
0.000446836
0.000447022
0.000447203
0.000447379
0.000409489
0.000409096
0.000423262
0.000381193
0.000358891
0.00045995
0.000481017
0.00051757
0.000525472
0.000525639
0.000525766
0.000519227
0.000445453
0.000367091
0.000367168
0.000367258
0.000406996
0.000420105
0.000416436
0.000416511
0.000459267
0.000459354
0.000459422
0.000459497
0.000459985
0.000443524
0.000416229
0.000385298
0.00037438
0.000374414
0.000399385
0.000437995
0.000408597
0.000362865
0.000311486
0.000237183
0.000138811
0.000138812
0.000194914
0.000214047
0.000210699
0.000197411
0.000194775
0.000195095
0.000188475
0.000188702
0.000185979
0.000186213
0.000189738
0.000188747
0.000188996
0.000191477
0.000200652
0.000188919
0.00018919
0.000194212
0.000198323
0.000201515
0.00020184
0.000194729
0.00019022
0.000190524
0.000202419
0.000193579
0.000193704
0.000206466
0.000182313
0.000174839
0.000175161
0.000192532
0.000178036
0.000195284
0.000196347
0.000200328
0.000213982
0.000215176
0.000229741
0.000230218
0.000208227
0.000208665
0.000209553
0.000204614
0.000200516
0.000209231
0.00020063
0.000205438
0.000207189
0.000207673
0.00020502
0.000206568
0.000207046
0.000204124
0.000208841
0.00021445
0.000209381
0.000212373
0.00021361
0.000214132
0.000205375
0.000193359
0.000187925
0.0001884
0.000194578
0.000186276
0.000211802
0.000221716
0.000226684
0.000255839
0.000256506
0.000247728
0.000249832
0.000242887
0.000224239
0.000221753
0.00020513
0.000199221
0.000199762
0.000204788
0.000227346
0.000227964
0.000237972
0.00024086
0.000241974
0.000243257
0.000243969
0.000238595
0.000233999
0.000233266
0.000233939
0.000229309
0.000233231
0.000236503
0.000228123
0.000203744
0.000185504
0.000187583
0.000192632
0.000176016
0.000192509
0.00023059
0.000252173
0.000281448
0.00029387
0.000294832
0.000295723
0.000285663
0.000262921
0.000252584
0.000241136
0.000234675
0.000235363
0.000236078
0.000238042
0.000260716
0.000254876
0.000262339
0.000264308
0.000251714
0.000253894
0.000247262
0.000246831
0.000247129
0.000251389
0.000258055
0.000257175
0.000255034
0.000256635
0.000254457
0.000216791
0.000194841
0.000187149
0.00020306
0.00028539
0.000330308
0.000340973
0.000333535
0.000334315
0.000328106
0.000297441
0.00026299
0.000263777
0.000265206
0.000276636
0.000287006
0.00028919
0.000287345
0.000293116
0.000293967
0.000294811
0.000292229
0.000290091
0.000293001
0.000278831
0.000272038
0.00027283
0.000276165
0.000281809
0.000299404
0.000304359
0.000296403
0.000232469
0.000198289
0.000195859
0.000186538
0.000202485
0.00032387
0.000360438
0.000369618
0.000369856
0.000353176
0.000333682
0.000332255
0.000331868
0.000314707
0.000300104
0.000302066
0.000315583
0.000330515
0.000327865
0.000296859
0.00028585
0.000286577
0.000339143
0.000317327
0.000256145
0.000257074
0.0002957
0.000296729
0.000192567
0.000161957
0.000259822
0.000299738
0.000298209
0.00029917
0.000300053
0.000324688
0.000318925
0.000324388
0.000263714
0.000277896
0.000323713
0.000364693
0.000368486
0.000369388
0.000346554
0.000320002
0.000316924
0.000327176
0.000356881
0.000366518
0.000368636
0.000369447
0.000325224
0.000315521
0.000340125
0.000372975
0.000385814
0.000386706
0.000387509
0.000380159
0.000358555
0.000331262
0.000331927
0.000332597
0.000339776
0.000366066
0.000374374
0.000368672
0.000323193
0.000260158
0.000260304
0.000261161
0.000375452
0.000422782
0.000420959
0.000421717
0.000438351
0.000479587
0.000480453
0.00047543
0.000467551
0.00050315
0.000504022
0.000504981
0.000506014
0.000210212
0.000108703
0.000119006
0.000202451
0.000286638
0.000338726
0.000365963
0.000387604
0.000388216
0.00038883
0.000389448
0.000381678
0.000346654
0.000331142
0.000340375
0.000370721
0.000368424
0.000256182
0.000256567
0.000256946
0.000430026
0.000430673
0.000390573
0.000362348
0.00036288
0.000363378
0.000376641
0.000453424
0.000454035
0.000454647
0.000455295
0.000422469
0.000314818
0.000315229
0.000330643
0.000355206
0.000349599
0.000350041
0.000374362
0.000383793
0.000384261
0.000384723
0.000375149
0.000377
0.000460555
0.000643902
0.000645608
0.000646472
0.00050497
0.000206735
0.000206959
0.000220559
0.000354574
0.000229475
0.000355173
0.00042534
0.000425851
0.000426314
0.000425744
0.000418309
0.000418726
0.000422458
0.000440262
0.000454408
0.00047615
0.00047662
0.000477042
0.00047752
0.000477925
0.00047713
0.000461371
0.000482073
0.000489124
0.000489561
0.000303073
0.000303354
0.000303598
0.000303859
0.000307913
0.000357096
0.000422549
0.000423617
0.000373788
0.000274613
0.000274819
0.000275008
0.000275202
0.000397106
0.000488288
0.000499391
0.000499711
0.000500067
0.000481402
0.000481714
0.000498996
0.000499295
0.00049959
0.000394378
0.000339641
0.000339837
0.000368477
0.000392181
0.00039443
0.00042408
0.000460361
0.000445496
0.000400746
0.000400937
0.00040112
0.00042332
0.000442254
0.000446835
0.000447021
0.000447202
0.000430017
0.000380103
0.000320652
0.000232634
0.00023272
0.000232803
0.000377328
0.000482972
0.000485319
0.000506857
0.000525627
0.000511051
0.00044519
0.000445304
0.000445417
0.000490088
0.000458597
0.00044117
0.000458997
0.000459097
0.000459183
0.000459274
0.000459343
0.000404468
0.000417382
0.000469057
0.000469116
0.000462195
0.000429299
0.000397474
0.000374405
0.000374437
0.00037446
0.00037448
0.000406508
0.000372857
0.000276875
0.000144853
0.000138816
0.000183193
0.000213737
0.000196828
0.000191231
0.00019145
0.000201222
0.000192624
0.000193834
0.000192899
0.000198461
0.000199027
0.000199285
0.000199556
0.000198557
0.000197444
0.000201064
0.000201359
0.000197106
0.000197356
0.000200488
0.000194409
0.000194722
0.00019504
0.000190525
0.000190836
0.000199468
0.000192968
0.000193301
0.000178731
0.000179051
0.000178839
0.000180598
0.000173933
0.000198076
0.00020456
0.000207781
0.000220116
0.000219507
0.000229741
0.000230223
0.000230065
0.000224379
0.00021204
0.000204609
0.000205945
0.000211702
0.000209951
0.000207592
0.000204063
0.000204539
0.000205027
0.000204657
0.000205124
0.000207829
0.000212728
0.000214443
0.000216348
0.000216875
0.000209698
0.000210953
0.000211473
0.000189586
0.000189208
0.000188396
0.000191633
0.000186284
0.000214859
0.000213283
0.000213822
0.000247844
0.000255789
0.000247917
0.000249852
0.000247047
0.000224247
0.000226719
0.000227354
0.000217795
0.000210933
0.000206289
0.000215124
0.000233459
0.000237983
0.000237057
0.000237732
0.000241513
0.000234488
0.000234658
0.000235348
0.000236032
0.000227276
0.000224416
0.000231263
0.000234586
0.00020414
0.00019416
0.000182377
0.00017163
0.000172125
0.000176033
0.000203153
0.000248185
0.000275979
0.000293115
0.000293978
0.000294849
0.000280836
0.000266286
0.000254855
0.000245626
0.000246365
0.000244848
0.000237637
0.000250818
0.000252504
0.00024497
0.00024569
0.000253186
0.000268623
0.000281564
0.000282426
0.000283432
0.000284293
0.000279874
0.000280745
0.000265992
0.000259229
0.000252391
0.000227353
0.000191276
0.000186135
0.000186699
0.000187166
0.000211458
0.000293615
0.000328506
0.000340991
0.000341978
0.000341731
0.000325938
0.00029622
0.00027532
0.000273697
0.000271971
0.000277938
0.000272812
0.000278956
0.00028451
0.000282976
0.000282029
0.000282827
0.000288898
0.000295701
0.000296562
0.000294227
0.000273448
0.000271869
0.000288723
0.000301839
0.000302024
0.00030555
0.000300912
0.000220932
0.000191107
0.000191645
0.000186562
0.000198892
0.000286024
0.000359496
0.000368437
0.000356945
0.000355047
0.000356943
0.000361616
0.000362589
0.000322077
0.000313058
0.000313787
0.000326555
0.000330488
0.000320942
0.00029913
0.000310338
0.000347961
0.000229855
0.000218672
0.000276534
0.000307042
0.000308182
0.000214729
0.000163453
0.000251182
0.000325858
0.000341611
0.000315627
0.000299707
0.000300036
0.000301372
0.000265712
0.000248003
0.000251195
0.000272365
0.000324126
0.00035994
0.00036851
0.000369392
0.000363072
0.000355512
0.000352931
0.000355878
0.000366853
0.000367652
0.000362989
0.000321346
0.000314592
0.000315198
0.000342059
0.000371667
0.000339518
0.000319189
0.00031968
0.000320323
0.000325043
0.000351949
0.000371519
0.000372262
0.000371832
0.000374014
0.000374367
0.000332496
0.000259834
0.000260031
0.000260284
0.000260935
0.000360576
0.000415721
0.000416672
0.000441096
0.000481323
0.000491265
0.000471757
0.000472602
0.000502334
0.000503209
0.000478488
0.00022109
0.000196446
0.00019108
0.000172909
0.000199386
0.000252997
0.000314979
0.000376716
0.000392414
0.000393051
0.000382517
0.000347758
0.00034827
0.000348826
0.000349377
0.000388425
0.000397448
0.000398047
0.000286075
0.000256173
0.000256556
0.000256947
0.000430057
0.00043073
0.000361892
0.000362373
0.000362871
0.000363373
0.000418174
0.00045342
0.000454027
0.000454675
0.000449679
0.000351625
0.000325328
0.000360069
0.000409709
0.000413538
0.000414074
0.000414598
0.000399793
0.000368349
0.000368797
0.000397452
0.000429789
0.000468384
0.00058761
0.000643821
0.000380434
0.000206215
0.000206536
0.000206757
0.000207007
0.000207217
0.000207458
0.000207689
0.000285672
0.000421447
0.000425774
0.000417402
0.000417849
0.00041828
0.000418695
0.000458659
0.000475234
0.00047568
0.000476136
0.000458691
0.000351179
0.000351501
0.00035182
0.000352121
0.000403035
0.00047152
0.000488715
0.000437108
0.000311912
0.000303354
0.000303615
0.000311296
0.000370712
0.000422948
0.000423284
0.000423597
0.000346999
0.000274607
0.000274811
0.000275008
0.000275199
0.000383334
0.000481631
0.000468396
0.000468709
0.000468991
0.0004693
0.000492164
0.000492461
0.000491004
0.000491291
0.000491571
0.000446686
0.000347563
0.000347769
0.000403513
0.000462702
0.000462937
0.000460362
0.000446816
0.000400745
0.000400935
0.000401119
0.00040224
0.00040659
0.000405731
0.000405899
0.000407284
0.000408234
0.000318418
0.000232533
0.000232635
0.000232722
0.000232805
0.000305104
0.000443081
0.000525328
0.000525479
0.000525634
0.000525773
0.000525934
0.000526045
0.000526186
0.000520274
0.000452746
0.000392766
0.0003824
0.000382471
0.00038255
0.00038261
0.000403783
0.000403843
0.0004039
0.000457042
0.000469127
0.000469171
0.000469227
0.000469258
0.000451431
0.000442712
0.000391425
0.000409184
0.000409202
0.000409216
0.000320602
0.000168809
0.000138821
0.000199099
0.00019653
0.000190175
0.000190518
0.000194179
0.000201221
0.000199359
0.00020045
0.000200698
0.000202159
0.000197699
0.000194254
0.00019564
0.000197341
0.000193692
0.000194203
0.00019871
0.000201292
0.000197355
0.00020198
0.000203468
0.000203807
0.000195031
0.000195643
0.000204835
0.000205195
0.000201536
0.000202266
0.000192377
0.000186253
0.000178835
0.000181007
0.00017394
0.000189247
0.000189957
0.000220154
0.000228833
0.000229285
0.000229749
0.000225276
0.000226305
0.000226793
0.000222015
0.000205444
0.000211722
0.000214632
0.000204934
0.000205386
0.000204067
0.000204536
0.000205021
0.000206147
0.000205122
0.000213164
0.000213669
0.000210794
0.000216346
0.000214473
0.000209696
0.000210497
0.00020319
0.000189796
0.000189203
0.000198834
0.000209972