/*--------------------------------*- C++ -*----------------------------------*\
  =========                 |
  \\      /  F ield         | OpenFOAM: The Open Source CFD Toolbox
   \\    /   O peration     | Website:  https://openfoam.org
    \\  /    A nd           | Version:  7
     \\/     M anipulation  |
\*---------------------------------------------------------------------------*/
FoamFile
{
    version     2.0;
    format      ascii;
    class       volScalarField;
    location    "3000";
    object      nuTotal;
}
// * * * * * * * * * * * * * * * * * * * * * * * * * * * * * * * * * * * * * //

dimensions      [0 2 -1 0 0 0 0];

internalField   nonuniform List<scalar> 
160000
(
3.99143e-07
3.99581e-07
4.07134e-07
4.07254e-07
4.1046e-07
4.1103e-07
4.04138e-07
3.98556e-07
4.04796e-07
4.06052e-07
4.08074e-07
4.1057e-07
4.11234e-07
4.07825e-07
4.09993e-07
4.10554e-07
4.106e-07
4.09202e-07
4.0662e-07
4.0725e-07
4.12821e-07
4.16883e-07
4.17204e-07
4.14446e-07
4.17019e-07
4.20784e-07
4.16781e-07
4.16863e-07
4.14175e-07
4.14891e-07
4.19777e-07
4.25988e-07
4.26786e-07
4.22573e-07
4.23323e-07
4.26594e-07
4.26095e-07
4.1995e-07
4.20749e-07
4.25496e-07
4.284e-07
4.31374e-07
4.33279e-07
4.31437e-07
4.29564e-07
4.26888e-07
4.28852e-07
4.3481e-07
4.35751e-07
4.36724e-07
4.38698e-07
4.37072e-07
4.36645e-07
4.35143e-07
4.35578e-07
4.39236e-07
4.40278e-07
4.41452e-07
4.44697e-07
4.45729e-07
4.46382e-07
4.46917e-07
4.48005e-07
4.49091e-07
4.53535e-07
4.54674e-07
4.55856e-07
4.54724e-07
4.55291e-07
4.56832e-07
4.57991e-07
4.59192e-07
4.59536e-07
4.59625e-07
4.60818e-07
4.62044e-07
4.63285e-07
4.64688e-07
4.65943e-07
4.67259e-07
4.68541e-07
4.69877e-07
4.712e-07
4.73278e-07
4.75459e-07
4.77102e-07
4.78437e-07
4.80587e-07
4.81904e-07
4.82437e-07
4.83917e-07
4.8528e-07
4.84863e-07
4.86275e-07
4.8768e-07
4.8921e-07
4.90419e-07
4.91832e-07
4.93251e-07
4.94657e-07
4.96082e-07
4.98618e-07
5.00044e-07
4.99207e-07
5.03303e-07
5.04756e-07
5.06211e-07
5.06892e-07
5.06949e-07
5.08007e-07
5.0941e-07
5.10894e-07
5.12371e-07
5.1388e-07
5.17477e-07
5.18979e-07
5.20147e-07
5.19948e-07
5.20486e-07
5.22093e-07
5.23678e-07
5.2601e-07
5.27008e-07
5.2858e-07
5.30917e-07
5.32836e-07
5.35065e-07
5.3992e-07
5.42953e-07
5.44563e-07
5.44596e-07
5.45808e-07
5.44504e-07
5.44321e-07
5.46106e-07
5.51054e-07
5.54962e-07
5.56549e-07
5.56811e-07
5.58753e-07
5.60324e-07
5.60488e-07
5.62095e-07
5.62627e-07
5.63303e-07
5.64984e-07
5.66618e-07
5.68256e-07
5.69887e-07
5.71481e-07
5.74078e-07
5.75693e-07
5.78073e-07
5.79709e-07
5.81349e-07
5.81427e-07
5.82821e-07
5.84273e-07
5.86882e-07
5.90009e-07
5.9249e-07
5.94428e-07
5.98247e-07
5.99948e-07
6.00505e-07
5.98273e-07
5.99946e-07
6.01626e-07
6.03221e-07
6.05686e-07
6.06439e-07
6.08128e-07
6.12725e-07
6.13883e-07
6.14796e-07
6.16353e-07
6.17182e-07
6.19065e-07
6.20686e-07
6.21913e-07
6.23481e-07
6.24914e-07
6.25916e-07
6.27465e-07
6.26926e-07
6.27514e-07
6.31018e-07
6.35174e-07
6.3686e-07
6.36732e-07
6.41375e-07
6.50951e-07
6.55329e-07
6.58974e-07
6.60769e-07
6.6049e-07
6.51102e-07
6.57571e-07
6.71911e-07
6.73833e-07
6.75738e-07
6.77989e-07
6.81732e-07
6.83167e-07
6.6327e-07
6.63937e-07
6.6517e-07
6.68285e-07
6.71565e-07
6.74038e-07
6.75927e-07
6.77376e-07
6.78665e-07
6.80139e-07
6.81562e-07
6.82973e-07
6.84041e-07
6.82374e-07
6.83779e-07
6.87065e-07
6.89663e-07
6.91084e-07
6.92416e-07
6.91579e-07
6.8705e-07
6.87454e-07
6.8879e-07
6.90159e-07
6.95192e-07
7.00055e-07
7.01368e-07
6.98075e-07
6.97343e-07
6.98682e-07
7.00476e-07
7.08031e-07
7.10941e-07
7.12214e-07
7.13469e-07
7.13744e-07
7.14978e-07
7.1414e-07
7.11168e-07
7.11486e-07
7.12484e-07
7.13617e-07
7.1415e-07
7.15899e-07
7.25828e-07
7.6493e-07
8.27912e-07
8.29689e-07
8.31034e-07
7.9637e-07
7.58658e-07
7.42233e-07
7.43304e-07
7.4433e-07
7.33634e-07
7.39695e-07
7.4786e-07
7.49186e-07
7.50312e-07
7.51334e-07
7.41239e-07
7.42486e-07
7.43598e-07
7.4464e-07
7.41805e-07
7.42914e-07
7.44059e-07
7.5167e-07
7.57841e-07
7.58917e-07
7.59928e-07
7.58396e-07
7.48814e-07
7.49803e-07
7.50842e-07
7.55978e-07
7.64217e-07
7.63193e-07
7.627e-07
7.63689e-07
7.68685e-07
7.71972e-07
7.72932e-07
7.73845e-07
7.73877e-07
7.68752e-07
7.68917e-07
7.69747e-07
7.63005e-07
7.6269e-07
7.6353e-07
7.64371e-07
7.69531e-07
7.70336e-07
7.69705e-07
7.76946e-07
8.2849e-07
9.67974e-07
1.07142e-06
1.07219e-06
1.07354e-06
1.0739e-06
1.06094e-06
9.64024e-07
9.02198e-07
8.41541e-07
8.08571e-07
7.99668e-07
7.8966e-07
7.84548e-07
7.85226e-07
8.01554e-07
8.02331e-07
8.03032e-07
8.03658e-07
7.99238e-07
7.95085e-07
7.9198e-07
7.85706e-07
7.85241e-07
7.85895e-07
7.98932e-07
8.0821e-07
8.08893e-07
8.09504e-07
8.10118e-07
8.10687e-07
8.11249e-07
8.11796e-07
8.12343e-07
8.12871e-07
8.13398e-07
8.13909e-07
8.0509e-07
8.07894e-07
8.21884e-07
8.22371e-07
8.22822e-07
8.2328e-07
8.23739e-07
7.97819e-07
7.98251e-07
7.98674e-07
8.01918e-07
8.14821e-07
8.15275e-07
8.1569e-07
8.16087e-07
8.12533e-07
8.06732e-07
8.07099e-07
8.07463e-07
8.1025e-07
8.11459e-07
8.11799e-07
8.12134e-07
8.12446e-07
8.11163e-07
8.09222e-07
8.08861e-07
8.09155e-07
8.09459e-07
8.09743e-07
8.10022e-07
8.10292e-07
8.12929e-07
8.18185e-07
8.18412e-07
8.18627e-07
8.18844e-07
8.19051e-07
8.1925e-07
8.1944e-07
8.16852e-07
8.16037e-07
8.14031e-07
8.14187e-07
8.14335e-07
8.13724e-07
8.13735e-07
8.1386e-07
8.13976e-07
8.17078e-07
8.17571e-07
8.17663e-07
8.17259e-07
8.17551e-07
8.19338e-07
8.20293e-07
8.29583e-07
8.37116e-07
8.57443e-07
8.98096e-07
8.98098e-07
8.98111e-07
8.98115e-07
4.04142e-07
4.04545e-07
3.9712e-07
4.08657e-07
4.09578e-07
4.09432e-07
4.06714e-07
4.05685e-07
4.06165e-07
4.06226e-07
4.06267e-07
4.05779e-07
4.06607e-07
4.07804e-07
4.06885e-07
4.07456e-07
4.09673e-07
4.12203e-07
4.13247e-07
4.13414e-07
4.12833e-07
4.1388e-07
4.14798e-07
4.12011e-07
4.12577e-07
4.16528e-07
4.13514e-07
4.14243e-07
4.15272e-07
4.16153e-07
4.17134e-07
4.23858e-07
4.26787e-07
4.2673e-07
4.2193e-07
4.19563e-07
4.20393e-07
4.24552e-07
4.26932e-07
4.27787e-07
4.28994e-07
4.31356e-07
4.32503e-07
4.31574e-07
4.27984e-07
4.26889e-07
4.27812e-07
4.34832e-07
4.3718e-07
4.38172e-07
4.38349e-07
4.37923e-07
4.37464e-07
4.3457e-07
4.35576e-07
4.3801e-07
4.39059e-07
4.42593e-07
4.44705e-07
4.44725e-07
4.45782e-07
4.46895e-07
4.48002e-07
4.49846e-07
4.50948e-07
4.52098e-07
4.55845e-07
4.56998e-07
4.55257e-07
4.55693e-07
4.56868e-07
4.58053e-07
4.61856e-07
4.63028e-07
4.64224e-07
4.65457e-07
4.65261e-07
4.6614e-07
4.67388e-07
4.67326e-07
4.68563e-07
4.70887e-07
4.73249e-07
4.74535e-07
4.74638e-07
4.76001e-07
4.77333e-07
4.80314e-07
4.81361e-07
4.81164e-07
4.82051e-07
4.8343e-07
4.84838e-07
4.86272e-07
4.89051e-07
4.89359e-07
4.90411e-07
4.9283e-07
4.94439e-07
4.98599e-07
5.00023e-07
4.98467e-07
5.0005e-07
4.98236e-07
4.99705e-07
5.04755e-07
5.06205e-07
5.07702e-07
5.083e-07
5.09934e-07
5.11465e-07
5.1295e-07
5.13424e-07
5.1389e-07
5.14663e-07
5.16165e-07
5.18e-07
5.19598e-07
5.22121e-07
5.22591e-07
5.23684e-07
5.26391e-07
5.29811e-07
5.3132e-07
5.33185e-07
5.35017e-07
5.36727e-07
5.3976e-07
5.41178e-07
5.43321e-07
5.43933e-07
5.45795e-07
5.42426e-07
5.43923e-07
5.45586e-07
5.48698e-07
5.48476e-07
5.5116e-07
5.56527e-07
5.568e-07
5.56992e-07
5.5844e-07
5.60016e-07
5.61642e-07
5.63327e-07
5.65283e-07
5.67962e-07
5.6998e-07
5.71502e-07
5.74496e-07
5.76118e-07
5.77467e-07
5.77888e-07
5.78015e-07
5.79512e-07
5.80969e-07
5.82622e-07
5.8429e-07
5.88131e-07
5.89704e-07
5.91364e-07
5.93166e-07
5.97414e-07
5.99359e-07
6.00669e-07
5.99114e-07
5.99948e-07
6.02228e-07
6.04177e-07
6.09393e-07
6.11036e-07
6.12174e-07
6.13777e-07
6.12867e-07
6.1294e-07
6.13129e-07
6.14362e-07
6.17218e-07
6.18747e-07
6.21803e-07
6.23197e-07
6.25832e-07
6.26957e-07
6.26898e-07
6.24966e-07
6.26474e-07
6.29719e-07
6.32814e-07
6.31626e-07
6.33412e-07
6.39996e-07
6.55019e-07
6.71717e-07
6.69014e-07
6.62199e-07
6.51493e-07
6.56091e-07
6.57761e-07
6.54863e-07
6.6256e-07
6.77512e-07
6.81226e-07
6.77303e-07
6.68365e-07
6.61809e-07
6.62835e-07
6.64375e-07
6.69496e-07
6.72516e-07
6.7424e-07
6.75707e-07
6.77352e-07
6.77482e-07
6.75118e-07
6.75762e-07
6.78389e-07
6.78579e-07
6.83389e-07
6.86919e-07
6.8838e-07
6.89816e-07
6.91178e-07
6.90817e-07
6.86963e-07
6.86118e-07
6.87434e-07
6.88804e-07
6.90149e-07
6.91486e-07
6.92842e-07
6.94159e-07
6.95459e-07
6.96816e-07
7.04462e-07
7.08325e-07
7.0966e-07
7.10944e-07
7.12225e-07
7.13472e-07
7.14701e-07
7.15933e-07
7.13275e-07
7.09346e-07
7.10526e-07
7.11637e-07
7.0821e-07
7.08658e-07
7.31464e-07
8.24245e-07
8.26368e-07
8.28243e-07
8.29725e-07
7.69347e-07
7.4521e-07
7.40682e-07
7.40197e-07
7.41805e-07
7.33603e-07
7.33526e-07
7.4452e-07
7.47938e-07
7.49146e-07
7.5023e-07
7.42711e-07
7.3987e-07
7.42317e-07
7.43592e-07
7.40767e-07
7.41807e-07
7.42943e-07
7.48169e-07
7.56777e-07
7.57855e-07
7.58916e-07
7.59909e-07
7.52722e-07
7.48816e-07
7.49821e-07
7.50845e-07
7.60036e-07
7.64205e-07
7.6228e-07
7.63258e-07
7.70011e-07
7.7102e-07
7.71995e-07
7.72926e-07
7.73824e-07
7.73888e-07
7.72953e-07
7.7204e-07
7.65547e-07
7.6312e-07
7.64167e-07
7.65007e-07
7.59076e-07
7.59332e-07
7.62372e-07
7.60492e-07
7.61326e-07
8.18461e-07
1.07033e-06
1.0713e-06
1.07247e-06
9.95756e-07
8.8051e-07
8.30369e-07
8.08484e-07
7.97146e-07
7.90916e-07
7.8765e-07
7.85615e-07
7.83882e-07
7.84555e-07
7.85337e-07
8.01595e-07
8.02326e-07
8.02998e-07
7.99159e-07
7.93347e-07
7.89762e-07
7.85334e-07
7.8463e-07
7.85266e-07
7.85953e-07
8.05292e-07
8.08246e-07
8.08877e-07
8.09497e-07
8.10096e-07
8.08082e-07
8.01729e-07
8.02641e-07
8.03245e-07
8.03269e-07
8.07543e-07
8.08254e-07
8.02399e-07
8.03025e-07
8.1082e-07
8.09284e-07
8.0558e-07
8.12261e-07
8.03012e-07
7.97813e-07
7.98248e-07
7.98683e-07
8.13004e-07
8.14841e-07
8.15269e-07
8.15683e-07
8.16073e-07
8.10708e-07
8.06728e-07
8.07102e-07
8.07467e-07
8.07821e-07
8.08168e-07
8.0851e-07
8.0884e-07
8.09181e-07
8.0893e-07
8.08562e-07
8.0886e-07
8.09164e-07
8.09461e-07
8.12489e-07
8.15945e-07
8.16216e-07
8.16463e-07
8.1557e-07
8.15108e-07
8.15198e-07
8.16744e-07
8.16507e-07
8.17434e-07
8.1487e-07
8.1505e-07
8.1522e-07
8.1403e-07
8.14621e-07
8.14767e-07
8.13876e-07
8.14636e-07
8.14759e-07
8.13976e-07
8.16697e-07
8.17187e-07
8.13784e-07
8.13869e-07
8.15601e-07
8.15667e-07
8.15727e-07
8.21577e-07
8.23276e-07
8.31498e-07
8.81752e-07
8.98099e-07
8.98108e-07
8.98113e-07
4.04137e-07
4.01169e-07
3.97029e-07
3.97512e-07
3.98018e-07
4.04614e-07
4.02805e-07
4.02793e-07
4.05333e-07
4.05602e-07
4.04513e-07
4.05042e-07
4.06666e-07
4.06404e-07
4.06874e-07
4.08074e-07
4.08654e-07
4.0947e-07
4.1325e-07
4.13874e-07
4.13044e-07
4.12134e-07
4.12736e-07
4.13285e-07
4.12579e-07
4.12224e-07
4.12914e-07
4.1474e-07
4.14468e-07
4.15203e-07
4.19064e-07
4.20397e-07
4.23279e-07
4.23711e-07
4.24499e-07
4.23012e-07
4.21624e-07
4.22984e-07
4.24148e-07
4.25589e-07
4.26224e-07
4.27042e-07
4.28038e-07
4.32055e-07
4.32848e-07
4.31446e-07
4.35267e-07
4.3525e-07
4.34619e-07
4.35616e-07
4.36626e-07
4.37648e-07
4.37797e-07
4.36721e-07
4.37692e-07
4.39922e-07
4.39699e-07
4.41604e-07
4.42673e-07
4.43741e-07
4.47327e-07
4.49013e-07
4.50135e-07
4.51988e-07
4.55474e-07
4.56629e-07
4.55647e-07
4.554e-07
4.56538e-07
4.56783e-07
4.58304e-07
4.5946e-07
4.60554e-07
4.61733e-07
4.64122e-07
4.63784e-07
4.64395e-07
4.64582e-07
4.65786e-07
4.67055e-07
4.70229e-07
4.7179e-07
4.73108e-07
4.73531e-07
4.74629e-07
4.76746e-07
4.7808e-07
4.79447e-07
4.80793e-07
4.83845e-07
4.85217e-07
4.8367e-07
4.87209e-07
4.8861e-07
4.89029e-07
4.91202e-07
4.92297e-07
4.92523e-07
4.93378e-07
4.94694e-07
4.96061e-07
4.95297e-07
4.96573e-07
4.98482e-07
4.99963e-07
5.04009e-07
5.05531e-07
5.07676e-07
5.0915e-07
5.08644e-07
5.10144e-07
5.11634e-07
5.13131e-07
5.15793e-07
5.15882e-07
5.16673e-07
5.1875e-07
5.21227e-07
5.25102e-07
5.27655e-07
5.29556e-07
5.29849e-07
5.30268e-07
5.31527e-07
5.33234e-07
5.34503e-07
5.36509e-07
5.37738e-07
5.38327e-07
5.39913e-07
5.42111e-07
5.42453e-07
5.42501e-07
5.44568e-07
5.46413e-07
5.47987e-07
5.48439e-07
5.50424e-07
5.53805e-07
5.57241e-07
5.59642e-07
5.60182e-07
5.61253e-07
5.62873e-07
5.63727e-07
5.6503e-07
5.67505e-07
5.69963e-07
5.71556e-07
5.73905e-07
5.74649e-07
5.76272e-07
5.79344e-07
5.80396e-07
5.80237e-07
5.82214e-07
5.84166e-07
5.86975e-07
5.90045e-07
5.91691e-07
5.92385e-07
5.91245e-07
5.92481e-07
5.94136e-07
5.97556e-07
6.00514e-07
6.0217e-07
6.02196e-07
6.01886e-07
6.07134e-07
6.11052e-07
6.12639e-07
6.13799e-07
6.15444e-07
6.17016e-07
6.12904e-07
6.13842e-07
6.15468e-07
6.17061e-07
6.1871e-07
6.22317e-07
6.27169e-07
6.26816e-07
6.25337e-07
6.26465e-07
6.25859e-07
6.26838e-07
6.28986e-07
6.41372e-07
6.52556e-07
6.54986e-07
6.63843e-07
6.90249e-07
6.7057e-07
6.51484e-07
6.49687e-07
6.50307e-07
6.51548e-07
6.53191e-07
6.63307e-07
6.68722e-07
6.66423e-07
6.61866e-07
6.59168e-07
6.61197e-07
6.67596e-07
6.69131e-07
6.70917e-07
6.72342e-07
6.7303e-07
6.74376e-07
6.75275e-07
6.73375e-07
6.73292e-07
6.75054e-07
6.76487e-07
6.77904e-07
6.79345e-07
6.86685e-07
6.8836e-07
6.88876e-07
6.85124e-07
6.83435e-07
6.84751e-07
6.86097e-07
6.87461e-07
6.88821e-07
6.90154e-07
6.91493e-07
6.92843e-07
6.94157e-07
6.95481e-07
7.01405e-07
7.1225e-07
7.06931e-07
7.03722e-07
7.08922e-07
7.12078e-07
7.09202e-07
7.08688e-07
7.09927e-07
7.11142e-07
7.12337e-07
7.10785e-07
7.07761e-07
7.07447e-07
7.08573e-07
7.46744e-07
8.24788e-07
8.26818e-07
8.28373e-07
7.78137e-07
7.43756e-07
7.35654e-07
7.35628e-07
7.36623e-07
7.35105e-07
7.32471e-07
7.33576e-07
7.39004e-07
7.47911e-07
7.4906e-07
7.43268e-07
7.38765e-07
7.39854e-07
7.40961e-07
7.41148e-07
7.40768e-07
7.41847e-07
7.48688e-07
7.49792e-07
7.48883e-07
7.49958e-07
7.51064e-07
7.53022e-07
7.50886e-07
7.48823e-07
7.49829e-07
7.51762e-07
7.64583e-07
7.67052e-07
7.68051e-07
7.69056e-07
7.70052e-07
7.71027e-07
7.70444e-07
7.67287e-07
7.66234e-07
7.66227e-07
7.6706e-07
7.67928e-07
7.68814e-07
7.68887e-07
7.61595e-07
7.57014e-07
7.57898e-07
7.58804e-07
7.59656e-07
7.60461e-07
7.61274e-07
7.72078e-07
1.06108e-06
1.0714e-06
9.07838e-07
8.28968e-07
7.95571e-07
7.83311e-07
7.82638e-07
7.85844e-07
7.86138e-07
7.8399e-07
7.83263e-07
7.83875e-07
7.84566e-07
7.97571e-07
8.016e-07
8.02297e-07
7.95352e-07
7.88966e-07
7.87633e-07
7.84689e-07
7.84032e-07
7.8466e-07
7.85337e-07
7.92594e-07
8.07586e-07
8.08242e-07
8.06139e-07
8.05583e-07
8.07842e-07
8.03518e-07
7.985e-07
7.99064e-07
7.99616e-07
7.99757e-07
8.01008e-07
7.99463e-07
7.95745e-07
7.95881e-07
7.96378e-07
7.96857e-07
7.98229e-07
7.99023e-07
7.9736e-07
7.97807e-07
8.00218e-07
8.06108e-07
8.14405e-07
8.14843e-07
8.15267e-07
8.13951e-07
8.09459e-07
8.06342e-07
8.06725e-07
8.09578e-07
8.1008e-07
8.07932e-07
8.08436e-07
8.10076e-07
8.10405e-07
8.1072e-07
8.08253e-07
8.08559e-07
8.08867e-07
8.09171e-07
8.11913e-07
8.12185e-07
8.11167e-07
8.13501e-07
8.11107e-07
8.06734e-07
8.06961e-07
8.07179e-07
8.08651e-07
8.15998e-07
8.20275e-07
8.20464e-07
8.20643e-07
8.18155e-07
8.14291e-07
8.14807e-07
8.13728e-07
8.13138e-07
8.13275e-07
8.134e-07
8.13978e-07
8.1359e-07
8.13691e-07
8.13784e-07
8.16456e-07
8.16799e-07
8.15668e-07
8.15728e-07
8.15793e-07
8.18756e-07
8.33399e-07
8.76229e-07
8.98093e-07
8.98106e-07
8.98113e-07
4.0287e-07
4.01814e-07
3.99366e-07
3.99858e-07
4.01006e-07
4.01465e-07
4.02678e-07
4.02795e-07
4.06306e-07
4.07187e-07
4.08144e-07
4.08828e-07
4.07682e-07
4.08672e-07
4.07539e-07
4.10336e-07
4.12279e-07
4.12886e-07
4.13251e-07
4.11893e-07
4.13589e-07
4.14232e-07
4.14881e-07
4.16479e-07
4.13117e-07
4.12239e-07
4.14388e-07
4.14741e-07
4.19016e-07
4.24252e-07
4.20018e-07
4.19033e-07
4.19799e-07
4.21334e-07
4.22941e-07
4.20143e-07
4.20946e-07
4.21869e-07
4.24135e-07
4.2411e-07
4.24803e-07
4.25678e-07
4.29437e-07
4.32059e-07
4.32966e-07
4.34494e-07
4.35407e-07
4.35726e-07
4.35423e-07
4.36659e-07
4.37654e-07
4.37733e-07
4.40297e-07
4.41274e-07
4.42293e-07
4.42987e-07
4.44626e-07
4.45665e-07
4.46721e-07
4.46605e-07
4.47295e-07
4.48392e-07
4.51109e-07
4.56051e-07
4.54228e-07
4.51457e-07
4.5262e-07
4.55059e-07
4.53285e-07
4.52065e-07
4.55128e-07
4.59093e-07
4.60993e-07
4.62395e-07
4.63621e-07
4.63815e-07
4.69989e-07
4.71233e-07
4.68301e-07
4.73688e-07
4.69305e-07
4.69431e-07
4.70726e-07
4.73756e-07
4.75058e-07
4.75363e-07
4.76082e-07
4.77441e-07
4.82068e-07
4.83429e-07
4.85234e-07
4.8652e-07
4.86242e-07
4.87625e-07
4.9049e-07
4.91191e-07
4.95488e-07
4.98795e-07
4.98223e-07
4.95296e-07
4.95411e-07
4.9626e-07
4.94113e-07
4.95531e-07
4.98211e-07
5.00226e-07
5.03688e-07
5.0744e-07
5.09134e-07
5.10118e-07
5.12725e-07
5.12785e-07
5.14365e-07
5.1728e-07
5.17494e-07
5.16874e-07
5.18381e-07
5.21498e-07
5.24892e-07
5.27681e-07
5.3072e-07
5.33204e-07
5.3478e-07
5.3538e-07
5.34444e-07
5.34359e-07
5.3597e-07
5.37555e-07
5.40084e-07
5.41151e-07
5.43545e-07
5.44228e-07
5.45006e-07
5.42891e-07
5.42195e-07
5.43459e-07
5.46763e-07
5.52615e-07
5.57883e-07
5.5978e-07
5.61401e-07
5.61653e-07
5.61875e-07
5.62547e-07
5.63921e-07
5.65017e-07
5.66667e-07
5.6828e-07
5.71198e-07
5.72242e-07
5.75792e-07
5.78629e-07
5.80244e-07
5.81371e-07
5.80722e-07
5.81465e-07
5.8236e-07
5.84041e-07
5.85673e-07
5.87631e-07
5.89123e-07
5.90622e-07
5.92327e-07
5.9403e-07
6.00143e-07
6.00407e-07
5.96781e-07
5.97017e-07
5.97033e-07
5.98668e-07
6.00297e-07
6.0385e-07
6.06707e-07
6.08333e-07
6.13978e-07
6.16444e-07
6.18054e-07
6.19559e-07
6.19273e-07
6.19345e-07
6.2536e-07
6.27134e-07
6.27859e-07
6.25101e-07
6.24543e-07
6.25104e-07
6.28511e-07
6.44027e-07
6.45978e-07
6.46832e-07
6.4882e-07
6.75877e-07
6.70677e-07
6.51342e-07
6.50884e-07
6.51619e-07
6.51624e-07
6.51564e-07
6.53181e-07
6.55026e-07
6.58018e-07
6.59442e-07
6.60393e-07
6.58022e-07
6.59268e-07
6.60858e-07
6.68174e-07
6.70956e-07
6.72515e-07
6.73984e-07
6.75309e-07
6.73543e-07
6.71683e-07
6.73036e-07
6.74577e-07
6.76619e-07
6.78096e-07
6.79817e-07
6.82711e-07
6.83725e-07
6.81756e-07
6.82069e-07
6.83405e-07
6.84754e-07
6.86121e-07
6.92122e-07
6.95136e-07
6.9589e-07
6.95206e-07
6.94657e-07
6.94184e-07
6.98267e-07
7.09126e-07
7.12614e-07
7.02384e-07
7.0001e-07
7.01252e-07
7.0251e-07
7.03747e-07
7.0964e-07
7.12881e-07
7.14102e-07
7.10699e-07
7.07207e-07
7.06367e-07
7.07555e-07
7.08822e-07
7.4356e-07
8.25228e-07
8.26948e-07
7.96455e-07
7.50265e-07
7.37571e-07
7.35582e-07
7.34152e-07
7.32814e-07
7.31338e-07
7.32453e-07
7.33601e-07
7.37484e-07
7.45293e-07
7.43185e-07
7.38012e-07
7.38711e-07
7.39822e-07
7.45783e-07
7.48161e-07
7.40787e-07
7.41875e-07
7.42994e-07
7.44092e-07
7.48911e-07
7.52567e-07
7.53589e-07
7.54555e-07
7.48089e-07
7.4882e-07
7.49842e-07
7.50857e-07
7.56555e-07
7.67075e-07
7.6808e-07
7.69067e-07
7.68296e-07
7.66297e-07
7.67181e-07
7.68103e-07
7.67909e-07
7.67716e-07
7.68606e-07
7.69474e-07
7.70308e-07
7.62451e-07
7.56129e-07
7.57005e-07
7.57941e-07
7.58889e-07
7.61298e-07
7.62313e-07
7.61546e-07
7.62471e-07
7.69652e-07
7.8203e-07
7.84255e-07
7.79825e-07
7.77301e-07
7.78086e-07
7.7884e-07
7.80221e-07
7.82352e-07
7.85784e-07
7.86492e-07
7.84978e-07
7.8422e-07
7.87189e-07
7.92359e-07
7.97571e-07
7.98233e-07
7.95151e-07
7.85907e-07
7.83423e-07
7.84053e-07
7.85601e-07
8.06259e-07
8.06948e-07
8.07601e-07
8.06229e-07
8.00578e-07
7.96145e-07
7.97275e-07
8.00394e-07
8.01085e-07
7.99743e-07
7.98466e-07
7.93826e-07
7.94351e-07
7.94869e-07
7.95376e-07
7.95885e-07
7.96378e-07
7.97441e-07
8.0088e-07
8.01342e-07
7.98336e-07
7.97805e-07
8.02727e-07
8.13968e-07
8.14409e-07
8.1484e-07
8.15253e-07
8.13231e-07
8.11308e-07
8.09801e-07
8.08332e-07
8.09332e-07
8.10075e-07
8.09964e-07
8.08438e-07
8.08119e-07
8.08449e-07
8.08769e-07
8.09079e-07
8.12526e-07
8.12882e-07
8.11962e-07
8.16245e-07
8.1905e-07
8.10025e-07
8.08865e-07
8.06925e-07
8.06737e-07
8.06963e-07
8.07182e-07
8.07758e-07
8.12758e-07
8.20271e-07
8.20462e-07
8.20638e-07
8.16742e-07
8.15748e-07
8.16234e-07
8.16381e-07
8.13138e-07
8.13275e-07
8.13402e-07
8.13515e-07
8.1359e-07
8.14914e-07
8.17256e-07
8.20293e-07
8.21536e-07
8.21603e-07
8.19103e-07
8.15794e-07
8.18338e-07
8.23109e-07
8.30217e-07
8.46342e-07
8.98107e-07
8.98114e-07
4.01623e-07
3.98022e-07
3.99138e-07
4.0245e-07
4.03559e-07
4.03996e-07
4.06131e-07
4.06607e-07
4.07866e-07
4.08363e-07
4.08028e-07
4.08841e-07
4.09363e-07
4.09389e-07
4.07875e-07
4.11303e-07
4.11883e-07
4.1131e-07
4.11023e-07
4.11013e-07
4.11653e-07
4.1401e-07
4.15841e-07
4.16483e-07
4.14406e-07
4.17211e-07
4.17933e-07
4.15809e-07
4.22548e-07
4.25589e-07
4.26345e-07
4.22334e-07
4.27155e-07
4.23383e-07
4.24028e-07
4.2396e-07
4.2188e-07
4.2252e-07
4.20735e-07
4.21589e-07
4.26748e-07
4.27623e-07
4.28414e-07
4.30457e-07
4.32386e-07
4.31447e-07
4.34392e-07
4.34307e-07
4.34993e-07
4.35979e-07
4.37662e-07
4.38418e-07
4.39403e-07
4.41155e-07
4.41204e-07
4.41141e-07
4.4335e-07
4.43848e-07
4.4476e-07
4.45817e-07
4.48915e-07
4.53091e-07
4.55823e-07
4.56936e-07
4.56485e-07
4.60058e-07
4.54952e-07
4.54169e-07
4.54474e-07
4.50897e-07
4.52039e-07
4.54592e-07
4.55539e-07
4.57943e-07
4.62619e-07
4.64496e-07
4.69527e-07
4.72367e-07
4.73617e-07
4.73789e-07
4.70317e-07
4.71582e-07
4.71145e-07
4.72044e-07
4.73272e-07
4.74525e-07
4.75877e-07
4.78275e-07
4.80592e-07
4.82221e-07
4.83581e-07
4.85942e-07
4.86697e-07
4.87606e-07
4.90699e-07
4.97723e-07
5.04491e-07
5.05414e-07
5.05454e-07
5.12436e-07
5.08746e-07
5.01168e-07
4.9881e-07
4.96073e-07
4.96088e-07
4.97529e-07
4.98991e-07
5.01773e-07
5.06511e-07
5.09789e-07
5.1342e-07
5.16247e-07
5.17734e-07
5.19266e-07
5.20581e-07
5.18263e-07
5.20785e-07
5.21243e-07
5.22659e-07
5.26407e-07
5.27726e-07
5.3058e-07
5.32353e-07
5.33989e-07
5.34958e-07
5.35581e-07
5.3744e-07
5.3949e-07
5.40914e-07
5.43006e-07
5.52492e-07
5.60357e-07
5.64736e-07
5.61619e-07
5.47092e-07
5.43491e-07
5.44096e-07
5.46445e-07
5.48024e-07
5.50328e-07
5.55545e-07
5.62284e-07
5.63921e-07
5.65469e-07
5.65443e-07
5.65723e-07
5.67182e-07
5.69157e-07
5.70092e-07
5.71714e-07
5.73326e-07
5.75394e-07
5.77425e-07
5.78787e-07
5.82597e-07
5.85439e-07
5.87107e-07
5.88353e-07
5.89212e-07
5.88474e-07
5.89617e-07
5.92466e-07
6.05562e-07
6.16769e-07
6.19402e-07
6.24513e-07
6.20937e-07
5.9987e-07
5.9785e-07
5.98715e-07
6.00361e-07
6.03524e-07
6.07171e-07
6.09001e-07
6.10723e-07
6.14415e-07
6.18015e-07
6.19451e-07
6.19386e-07
6.19294e-07
6.21267e-07
6.26896e-07
6.30194e-07
6.31749e-07
6.2668e-07
6.30931e-07
6.42407e-07
6.44431e-07
6.40231e-07
6.42214e-07
6.68305e-07
6.83969e-07
6.53871e-07
6.48865e-07
6.5073e-07
6.5226e-07
6.53802e-07
6.52217e-07
6.54628e-07
6.55688e-07
6.66722e-07
6.65905e-07
6.60888e-07
6.57984e-07
6.59177e-07
6.60665e-07
6.64548e-07
6.69244e-07
6.71206e-07
6.71461e-07
6.69675e-07
6.7024e-07
6.71564e-07
6.73016e-07
6.79383e-07
6.82155e-07
6.80597e-07
6.78652e-07
6.78946e-07
6.80334e-07
6.81724e-07
6.83825e-07
6.87358e-07
6.9187e-07
6.93235e-07
6.94587e-07
6.95151e-07
6.93719e-07
6.94308e-07
6.96259e-07
7.02833e-07
7.14669e-07
7.16085e-07
7.17347e-07
7.02682e-07
7.00052e-07
7.01524e-07
7.02771e-07
7.02843e-07
7.015e-07
7.02748e-07
7.04331e-07
7.06059e-07
7.05254e-07
7.06459e-07
7.07783e-07
7.09208e-07
7.50347e-07
8.25406e-07
8.1307e-07
7.58202e-07
7.38143e-07
7.31785e-07
7.29933e-07
7.29011e-07
7.30147e-07
7.31286e-07
7.32433e-07
7.3438e-07
7.39331e-07
7.42459e-07
7.42468e-07
7.40208e-07
7.41597e-07
7.60019e-07
7.61145e-07
7.62253e-07
7.40805e-07
7.41915e-07
7.46466e-07
7.50471e-07
7.51539e-07
7.52571e-07
7.52225e-07
7.46854e-07
7.47825e-07
7.48837e-07
7.49867e-07
7.53341e-07
7.66097e-07
7.67097e-07
7.6597e-07
7.63949e-07
7.65626e-07
7.66579e-07
7.6486e-07
7.64875e-07
7.65793e-07
7.66699e-07
7.6859e-07
7.69296e-07
7.63205e-07
7.55277e-07
7.56087e-07
7.57019e-07
7.64166e-07
8.0833e-07
8.09278e-07
8.05513e-07
7.80256e-07
8.04667e-07
7.82141e-07
7.76279e-07
7.77169e-07
7.78031e-07
7.7894e-07
7.80378e-07
7.81137e-07
7.81591e-07
7.80937e-07
7.80649e-07
7.79929e-07
7.80644e-07
7.8137e-07
7.82091e-07
7.82796e-07
7.8355e-07
7.85281e-07
7.84586e-07
7.84803e-07
7.85428e-07
8.04948e-07
8.05633e-07
8.0631e-07
8.06967e-07
8.06978e-07
8.00818e-07
7.94949e-07
7.95482e-07
8.00819e-07
8.16288e-07
8.16873e-07
8.17439e-07
8.18e-07
8.01472e-07
7.95015e-07
7.94872e-07
7.9538e-07
7.95883e-07
7.97543e-07
7.98017e-07
7.97435e-07
7.97898e-07
7.98356e-07
8.06819e-07
8.13522e-07
8.13968e-07
8.10929e-07
8.08883e-07
8.09094e-07
8.06838e-07
8.0446e-07
8.05952e-07
8.10136e-07
8.10515e-07
8.1088e-07
8.09274e-07
8.08113e-07
8.08119e-07
8.08448e-07
8.08767e-07
8.10437e-07
8.15395e-07
8.23239e-07
8.42357e-07
8.42663e-07
8.4296e-07
8.17264e-07
8.08747e-07
8.0885e-07
8.07783e-07
8.06965e-07
8.08002e-07
8.12572e-07
8.12774e-07
8.12964e-07
8.10077e-07
8.12371e-07
8.13849e-07
8.12691e-07
8.12851e-07
8.13001e-07
8.13141e-07
8.13277e-07
8.17891e-07
8.16843e-07
8.12955e-07
8.13056e-07
8.13635e-07
8.16233e-07
8.19155e-07
8.21605e-07
8.21664e-07
8.21715e-07
8.21756e-07
8.18568e-07
8.22001e-07
8.36593e-07
8.9262e-07
8.98111e-07
4.04568e-07
3.98072e-07
4.02083e-07
4.03911e-07
4.04357e-07
4.02606e-07
4.05114e-07
4.05356e-07
4.0612e-07
4.0536e-07
4.05802e-07
4.06314e-07
4.06845e-07
4.07706e-07
4.08597e-07
4.08423e-07
4.09005e-07
4.10623e-07
4.11237e-07
4.11219e-07
4.13358e-07
4.14011e-07
4.1466e-07
4.16487e-07
4.17143e-07
4.15823e-07
4.18131e-07
4.18828e-07
4.23562e-07
4.24305e-07
4.25237e-07
4.25563e-07
4.28439e-07
4.22717e-07
4.22124e-07
4.22303e-07
4.2069e-07
4.21683e-07
4.20741e-07
4.2159e-07
4.22557e-07
4.24522e-07
4.27884e-07
4.30448e-07
4.31145e-07
4.30924e-07
4.32305e-07
4.33836e-07
4.35676e-07
4.36665e-07
4.37676e-07
4.38845e-07
4.39818e-07
4.40326e-07
4.40378e-07
4.41131e-07
4.41879e-07
4.42924e-07
4.4559e-07
4.46483e-07
4.47552e-07
4.54087e-07
4.5544e-07
4.56935e-07
4.57277e-07
4.6007e-07
4.54317e-07
4.55923e-07
4.57067e-07
4.52102e-07
4.5214e-07
4.54578e-07
4.55576e-07
4.57308e-07
4.62628e-07
4.63513e-07
4.64776e-07
4.68065e-07
4.7094e-07
4.73408e-07
4.72801e-07
4.70553e-07
4.71142e-07
4.72702e-07
4.74011e-07
4.74813e-07
4.7752e-07
4.78971e-07
4.80354e-07
4.81725e-07
4.84851e-07
4.8689e-07
4.87059e-07
4.8796e-07
4.96095e-07
5.00321e-07
5.05488e-07
5.10837e-07
5.12273e-07
5.12476e-07
5.05799e-07
4.97928e-07
4.95282e-07
4.94671e-07
4.96114e-07
4.97544e-07
5.00815e-07
5.04377e-07
5.07749e-07
5.10978e-07
5.12494e-07
5.1436e-07
5.17294e-07
5.16565e-07
5.17954e-07
5.20902e-07
5.22387e-07
5.22724e-07
5.21971e-07
5.21854e-07
5.23421e-07
5.24973e-07
5.26535e-07
5.2881e-07
5.30416e-07
5.3429e-07
5.37068e-07
5.3993e-07
5.46553e-07
5.57912e-07
5.61411e-07
5.63059e-07
5.6477e-07
5.5933e-07
5.45984e-07
5.43675e-07
5.44121e-07
5.4567e-07
5.47336e-07
5.50561e-07
5.55694e-07
5.60316e-07
5.6231e-07
5.64368e-07
5.65248e-07
5.6778e-07
5.68601e-07
5.69546e-07
5.71514e-07
5.73378e-07
5.74984e-07
5.75853e-07
5.76678e-07
5.78331e-07
5.80417e-07
5.85231e-07
5.87235e-07
5.86434e-07
5.86396e-07
5.88129e-07
5.89486e-07
5.91902e-07
6.08367e-07
6.19189e-07
6.20874e-07
6.2459e-07
6.22177e-07
6.04851e-07
5.97981e-07
5.98827e-07
6.01514e-07
6.03329e-07
6.04794e-07
6.06042e-07
6.0764e-07
6.13499e-07
6.16275e-07
6.1788e-07
6.18027e-07
6.19253e-07
6.22041e-07
6.26512e-07
6.26642e-07
6.23966e-07
6.44404e-07
6.49394e-07
6.39316e-07
6.3704e-07
6.38991e-07
6.59331e-07
6.8142e-07
6.53952e-07
6.43833e-07
6.43651e-07
6.48344e-07
6.52162e-07
6.53772e-07
6.55236e-07
6.62749e-07
6.68084e-07
6.69189e-07
6.66822e-07
6.60801e-07
6.58422e-07
6.59153e-07
6.60636e-07
6.62808e-07
6.6512e-07
6.66937e-07
6.6818e-07
6.68627e-07
6.70085e-07
6.72077e-07
6.78311e-07
6.80733e-07
6.82167e-07
6.80352e-07
6.78749e-07
6.83585e-07
6.87581e-07
6.88999e-07
6.90369e-07
6.91199e-07
6.89488e-07
6.8893e-07
6.90285e-07
6.91741e-07
6.92935e-07
6.94296e-07
7.00233e-07
7.13294e-07
7.14701e-07
7.16072e-07
7.17399e-07
7.04211e-07
7.00636e-07
7.01882e-07
7.01389e-07
7.00137e-07
7.00875e-07
7.03319e-07
7.04563e-07
7.04133e-07
7.05335e-07
7.08024e-07
7.43823e-07
7.54025e-07
7.57896e-07
7.68068e-07
7.57802e-07
7.43411e-07
7.33549e-07
7.27503e-07
7.27258e-07
7.28421e-07
7.3061e-07
7.35496e-07
7.36664e-07
7.37823e-07
7.3897e-07
7.36099e-07
7.36439e-07
7.37538e-07
7.52779e-07
7.59994e-07
7.61114e-07
7.62257e-07
7.40866e-07
7.41997e-07
7.49427e-07
7.50506e-07
7.51538e-07
7.52546e-07
7.48444e-07
7.46837e-07
7.47832e-07
7.48859e-07
7.50274e-07
7.602e-07
7.64598e-07
7.61324e-07
7.57508e-07
7.58203e-07
7.59168e-07
7.60118e-07
7.62382e-07
7.66446e-07
7.67362e-07
7.65469e-07
7.63658e-07
7.61798e-07
7.5649e-07
7.55205e-07
7.71481e-07
8.06498e-07
8.07567e-07
8.08526e-07
8.09398e-07
8.10269e-07
8.11134e-07
8.12022e-07
7.92486e-07
7.76609e-07
7.77153e-07
7.78724e-07
7.79541e-07
7.80328e-07
7.81087e-07
7.78811e-07
7.78454e-07
7.79175e-07
7.79901e-07
7.81821e-07
7.92469e-07
7.93199e-07
7.93896e-07
7.94568e-07
7.899e-07
7.8526e-07
7.84834e-07
7.89055e-07
8.03551e-07
8.05655e-07
8.06316e-07
8.05757e-07
7.98606e-07
7.94269e-07
7.94873e-07
7.9547e-07
8.03929e-07
8.16277e-07
8.16867e-07
8.17434e-07
8.17997e-07
8.02832e-07
7.95432e-07
7.96832e-07
7.97341e-07
7.97847e-07
7.98335e-07
7.9736e-07
7.97829e-07
7.98404e-07
7.98861e-07
7.99312e-07
8.02824e-07
8.12959e-07
8.13395e-07
8.07793e-07
8.03458e-07
8.03861e-07
8.04455e-07
8.05847e-07
8.10132e-07
8.10513e-07
8.10879e-07
8.11146e-07
8.11107e-07
8.11542e-07
8.11872e-07
8.12078e-07
8.12313e-07
8.23255e-07
8.42057e-07
8.42361e-07
8.42669e-07
8.42966e-07
8.2699e-07
8.11554e-07
8.06505e-07
8.06741e-07
8.06968e-07
8.07186e-07
8.07396e-07
8.07599e-07
8.07789e-07
8.08303e-07
8.12793e-07
8.18097e-07
8.19327e-07
8.19488e-07
8.19639e-07
8.19781e-07
8.17822e-07
8.17948e-07
8.18062e-07
8.138e-07
8.13055e-07
8.13149e-07
8.13234e-07
8.13311e-07
8.14653e-07
8.15376e-07
8.19938e-07
8.18287e-07
8.18322e-07
8.18351e-07
8.28812e-07
8.75183e-07
8.98109e-07
4.00662e-07
4.01688e-07
4.03671e-07
4.04074e-07
4.03687e-07
4.02601e-07
4.03547e-07
4.03837e-07
4.04322e-07
4.04548e-07
4.06106e-07
4.07485e-07
4.07763e-07
4.07998e-07
4.09492e-07
4.10009e-07
4.09598e-07
4.09673e-07
4.11236e-07
4.10868e-07
4.11271e-07
4.11927e-07
4.14646e-07
4.15213e-07
4.13857e-07
4.14547e-07
4.1612e-07
4.16734e-07
4.19866e-07
4.22281e-07
4.25236e-07
4.25462e-07
4.2845e-07
4.24915e-07
4.25609e-07
4.1981e-07
4.19122e-07
4.19931e-07
4.20748e-07
4.22444e-07
4.23201e-07
4.24085e-07
4.25921e-07
4.30259e-07
4.2991e-07
4.30329e-07
4.33404e-07
4.34332e-07
4.35684e-07
4.36658e-07
4.37664e-07
4.38501e-07
4.39813e-07
4.39177e-07
4.40186e-07
4.419e-07
4.41873e-07
4.4341e-07
4.45581e-07
4.46576e-07
4.49406e-07
4.54011e-07
4.5543e-07
4.54198e-07