/*--------------------------------*- C++ -*----------------------------------*\
  =========                 |
  \\      /  F ield         | OpenFOAM: The Open Source CFD Toolbox
   \\    /   O peration     | Website:  https://openfoam.org
    \\  /    A nd           | Version:  7
     \\/     M anipulation  |
\*---------------------------------------------------------------------------*/
FoamFile
{
    version     2.0;
    format      ascii;
    class       volScalarField;
    location    "3000";
    object      p;
}
// * * * * * * * * * * * * * * * * * * * * * * * * * * * * * * * * * * * * * //

dimensions      [1 -1 -2 0 0 0 0];

internalField   nonuniform List<scalar> 
160000
(
99334.5
99335.7
99338.5
99342.1
99346.3
99351.8
99358.6
99367.1
99378.2
99387.2
99396.1
99407.9
99420.1
99431.2
99443.9
99459.7
99477.7
99494.9
99509.6
99525.3
99545.2
99569.2
99593.4
99616.6
99643
99669.1
99690.1
99710.9
99735.2
99764.5
99800.2
99832.7
99855.7
99879.7
99915.4
99949.7
99977.6
100006
100043
100081
100114
100149
100182
100218
100255
100285
100321
100368
100410
100446
100484
100517
100551
100589
100627
100669
100707
100744
100802
100856
100886
100915
100961
101017
101077
101116
101152
101190
101232
101300
101341
101383
101433
101484
101537
101585
101631
101682
101728
101771
101812
101847
101885
101933
101978
102017
102062
102119
102176
102221
102269
102314
102348
102382
102427
102488
102545
102596
102647
102704
102757
102811
102860
102900
102948
103001
103054
103104
103146
103187
103229
103282
103334
103381
103438
103488
103538
103587
103623
103657
103696
103750
103803
103848
103889
103920
103950
103995
104042
104084
104131
104183
104217
104242
104273
104317
104360
104402
104459
104523
104563
104591
104625
104666
104694
104727
104766
104803
104842
104886
104930
104970
105015
105050
105086
105125
105161
105190
105219
105249
105279
105313
105348
105380
105415
105447
105471
105499
105533
105571
105604
105633
105668
105689
105709
105741
105774
105806
105829
105849
105880
105908
105932
105967
106001
106030
106059
106088
106117
106139
106157
106176
106194
106208
106220
106237
106259
106274
106288
106301
106313
106327
106341
106353
106365
106379
106398
106417
106431
106445
106458
106470
106482
106497
106509
106520
106534
106545
106554
106563
106570
106577
106586
106594
106602
106610
106618
106626
106634
106641
106649
106656
106661
106666
106670
106674
106678
106681
106685
106687
106689
106691
106692
106693
106694
106694
106694
106693
106692
106691
106689
106687
106685
106680
106673
106668
106662
106653
106645
106639
106634
106628
106622
106614
106605
106597
106588
106578
106570
106561
106549
106533
106520
106506
106494
106482
106470
106457
106437
106417
106402
106388
106374
106360
106344
106325
106309
106292
106279
106269
106257
106240
106216
106191
106165
106142
106120
106088
106053
106023
105997
105979
105965
105951
105935
105913
105889
105865
105834
105811
105789
105758
105728
105698
105659
105620
105589
105559
105531
105505
105470
105429
105390
105354
105315
105279
105256
105235
105206
105171
105137
105098
105053
105014
104977
104937
104903
104872
104844
104812
104757
104704
104662
104617
104571
104518
104436
104373
104322
104281
104241
104199
104164
104128
104077
104024
103980
103936
103882
103820
103760
103709
103663
103613
103566
103518
103464
103429
103393
103330
103247
103166
103094
103047
102998
102939
102885
102816
102742
102664
102595
102522
102453
102388
102317
102252
102194
102136
102071
101998
101922
101843
101773
101703
101616
101560
101509
101436
101385
101346
99334.9
99336
99338.8
99342.3
99346.8
99352.6
99359.5
99367.4
99377.5
99387.1
99396.2
99407.6
99421.4
99434.2
99446.3
99460.9
99479.5
99494.3
99508
99523.7
99543.8
99567.7
99590.7
99614
99641.9
99671.5
99693.2
99713.4
99736.8
99764.1
99796.3
99828.6
99855.1
99881
99915.9
99949.8
99977.1
100010
100051
100083
100112
100148
100183
100221
100255
100284
100321
100371
100413
100444
100476
100514
100555
100591
100628
100674
100712
100751
100798
100845
100885
100922
100964
101017
101071
101112
101155
101197
101243
101292
101335
101380
101431
101486
101539
101584
101630
101680
101727
101769
101810
101848
101891
101941
101983
102018
102061
102115
102171
102220
102264
102309
102347
102383
102433
102494
102549
102600
102649
102704
102756
102805
102861
102903
102944
102999
103052
103100
103144
103186
103228
103280
103334
103387
103441
103490
103539
103585
103624
103659
103696
103744
103796
103842
103884
103919
103955
103999
104043
104085
104135
104185
104215
104240
104274
104324
104362
104398
104461
104523
104565
104593
104625
104662
104692
104726
104767
104805
104847
104895
104930
104965
105015
105051
105084
105121
105156
105187
105220
105251
105282
105313
105345
105380
105417
105448
105472
105499
105532
105564
105598
105630
105667
105690
105712
105745
105772
105802
105828
105852
105881
105910
105939
105974
106003
106030
106059
106089
106117
106138
106155
106174
106192
106207
106221
106237
106255
106272
106286
106301
106314
106327
106341
106354
106366
106379
106397
106416
106430
106444
106457
106470
106482
106495
106509
106521
106533
106544
106553
106562
106571
106579
106587
106595
106603
106611
106618
106626
106633
106640
106649
106657
106661
106665
106669
106673
106677
106681
106684
106687
106689
106691
106692
106693
106693
106694
106694
106693
106692
106691
106689
106687
106684
106680
106673
106667
106661
106653
106646
106640
106633
106627
106620
106612
106605
106597
106588
106578
106570
106560
106547
106533
106521
106506
106493
106481
106470
106457
106436
106417
106402
106388
106374
106360
106345
106328
106311
106293
106278
106266
106253
106237
106217
106195
106170
106143
106118
106087
106054
106022
105997
105981
105967
105952
105935
105914
105889
105863
105834
105810
105785
105754
105725
105696
105662
105624
105589
105558
105530
105502
105468
105427
105387
105354
105317
105280
105256
105235
105206
105168
105136
105103
105055
105017
104981
104938
104905
104875
104842
104802
104751
104702
104661
104617
104566
104508
104444
104383
104328
104282
104239
104196
104160
104125
104077
104023
103979
103936
103883
103819
103758
103708
103663
103615
103570
103520
103471
103432
103389
103326
103256
103179
103106
103047
102991
102933
102870
102805
102734
102660
102596
102521
102459
102404
102326
102254
102194
102132
102065
101999
101924
101844
101777
101706
101623
101563
101507
101441
101388
101345
99335.9
99337.5
99340
99343.4
99347.6
99353.1
99360.3
99367.9
99377.2
99387.3
99396.6
99408
99422.9
99437
99448.6
99462.4
99478.2
99492.3
99507.8
99524.3
99543.4
99564.7
99587.2
99613.9
99640.7
99669.3
99695.1
99717.4
99738.4
99763.3
99796.7
99829
99856.6
99882.2
99912.5
99947.3
99977.6
100013
100055
100086
100114
100147
100184
100223
100254
100283
100325
100375
100414
100442
100471
100508
100553
100594
100634
100679
100717
100757
100796
100837
100886
100927
100966
101014
101069
101108
101146
101194
101242
101288
101338
101387
101434
101488
101538
101582
101631
101679
101721
101766
101809
101848
101891
101942
101988
102026
102068
102111
102162
102214
102259
102302
102347
102389
102441
102501
102554
102607
102655
102704
102755
102803
102855
102904
102947
102993
103045
103098
103147
103188
103233
103284
103332
103389
103442
103491
103540
103582
103619
103657
103699
103746
103792
103837
103879
103917
103957
104001
104044
104091
104139
104177
104209
104240
104276
104323
104366
104408
104463
104522
104565
104595
104625
104662
104692
104725
104766
104808
104852
104895
104930
104969
105017
105050
105080
105117
105152
105183
105218
105251
105284
105315
105345
105379
105416
105447
105473
105502
105533
105561
105593
105625
105657
105688
105720
105750
105774
105799
105828
105854
105881
105915
105948
105978
106005
106032
106060
106089
106115
106135
106153
106171
106188
106205
106221
106237
106253
106269
106284
106300
106314
106327
106339
106353
106367
106382
106401
106416
106428
106444
106458
106469
106481
106495
106509
106520
106531
106543
106554
106563
106571
106579
106588
106596
106604
106611
106619
106626
106633
106640
106648
106656
106661
106665
106669
106672
106677
106681
106684
106687
106689
106691
106692
106692
106693
106693
106693
106693
106692
106691
106689
106686
106683
106678
106673
106667
106660
106654
106647
106639
106632
106626
106619
106611
106603
106596
106589
106580
106570
106559
106547
106534
106520
106506
106493
106481
106469
106456
106434
106417
106401
106388
106376
106360
106344
106328
106312
106293
106278
106264
106250
106236
106218
106196
106170
106143
106116
106086
106059
106030
106002
105983
105968
105952
105935
105915
105890
105860
105831
105807
105780
105751
105724
105695
105659
105623
105591
105559
105530
105499
105464
105428
105391
105356
105318
105285
105259
105233
105202
105162
105132
105102
105060
105021
104986
104942
104908
104878
104841
104797
104747
104695
104653
104612
104559
104501
104450
104398
104338
104282
104238
104194
104156
104121
104070
104018
103977
103936
103888
103822
103757
103705
103663
103622
103581
103528
103476
103433
103380
103321
103262
103193
103120
103049
102987
102928
102863
102791
102719
102658
102597
102520
102461
102411
102342
102257
102189
102129
102067
102002
101927
101850
101782
101708
101632
101567
101501
101440
101392
101347
99337.4
99338.7
99341
99344.2
99348.3
99353.4
99360.5
99368
99376.5
99386.3
99396.9
99410.6
99425.3
99437.8
99449.2
99463.3
99478.6
99493.1
99509.2
99525.4
99544.6
99563.9
99586.1
99616
99639.2
99664.7
99695.7
99718
99739.4
99766.4
99797.5
99830.5
99859.9
99885.4
99912.2
99944.6
99979.3
100018
100059
100088
100115
100145
100182
100222
100256
100289
100331
100374
100411
100443
100472
100505
100550
100594
100633
100675
100719
100761
100801
100843
100889
100929
100967
101017
101069
101108
101146
101191
101237
101279
101330
101393
101445
101495
101536
101574
101624
101673
101718
101767
101808
101847
101895
101951
101993
102030
102071
102113
102161
102209
102254
102302
102347
102396
102454
102504
102551
102611
102664
102705
102747
102798
102850
102901
102948
102994
103042
103096
103146
103190
103242
103291
103335
103386
103438
103492
103543
103581
103615
103657
103702
103748
103792
103838
103876
103912
103954
103999
104047
104093
104137
104172
104204
104237
104274
104321
104369
104414
104465
104517
104560
104596
104631
104665
104696
104726
104763
104810
104857
104894
104929
104969
105011
105049
105083
105119
105151
105182
105219
105252
105282
105314
105345
105377
105414
105447
105473
105501
105531
105558
105588
105625
105658
105688
105720
105750
105775
105802
105831
105857
105882
105915
105952
105981
106008
106033
106059
106086
106110
106132
106152
106169
106183
106201
106221
106238
106253
106267
106282
106298
106313
106327
106339
106351
106367
106384
106403
106416
106429
106446
106458
106468
106480
106495
106508
106520
106530
106542
106553
106563
106571
106580
106588
106596
106604
106612
106619
106627
106633
106641
106648
106654
106660
106664
106668
106672
106676
106680
106683
106686
106688
106690
106691
106692
106693
106693
106693
106693
106692
106690
106688
106685
106681
106677
106672
106666
106659
106653
106647
106639
106631
106625
106618
106610
106602
106595
106588
106580
106570
106559
106549
106536
106520
106506
106493
106480
106467
106453
106435
106418
106401
106388
106374
106360
106345
106328
106311
106293
106278
106264
106247
106233
106216
106193
106165
106136
106110
106087
106066
106041
106014
105990
105972
105955
105934
105911
105886
105856
105828
105803
105773
105747
105724
105694
105659
105625
105592
105556
105528
105500
105464
105427
105391
105355
105319
105290
105261
105233
105203
105159
105124
105095
105061
105025
104990
104949
104911
104880
104840
104791
104743
104693
104645
104605
104558
104500
104449
104401
104347
104289
104243
104196
104152
104112
104062
104015
103972
103930
103886
103830
103766
103707
103661
103621
103587
103543
103488
103438
103380
103324
103268
103202
103130
103055
102982
102920
102855
102772
102703
102652
102597
102520
102464
102417
102352
102263
102188
102130
102069
102005
101940
101863
101789
101713
101635
101565
101498
101440
101389
101345
99338.2
99339.6
99341.9
99344.8
99348.8
99354
99360.7
99368.2
99376.5
99386.9
99399.1
99415.1
99427.5
99437.2
99448.3
99463.6
99479.5
99495.9
99512.2
99526.8
99542.7
99562.7
99586.2
99615.4
99640.9
99669.6
99698.2
99720.3
99744.5
99769.6
99794.4
99827.2
99859.5
99885.5
99911.3
99945.1
99985.8
100025
100057
100085
100116
100146
100179
100222
100260
100296
100338
100379
100410
100438
100471
100506
100549
100592
100634
100676
100719
100761
100802
100846
100892
100935
100975
101021
101072
101108
101143
101186
101233
101278
101331
101392
101441
101491
101536
101573
101618
101670
101720
101763
101802
101850
101900
101952
101996
102033
102074
102116
102159
102206
102257
102309
102352
102400
102459
102507
102553
102609
102664
102706
102745
102792
102847
102896
102946
102996
103045
103100
103147
103190
103244
103300
103344
103383
103428
103489
103548
103584
103616
103659
103704
103747
103792
103835
103871
103908
103955
104002
104048
104092
104136
104169
104199
104234
104271
104314
104366
104419
104467
104514
104558
104599
104633
104665
104699
104730
104767
104811
104854
104894
104934
104972
105009
105046
105082
105117
105151
105184
105223
105253
105281
105314
105345
105376
105412
105445
105469
105495
105527
105557
105590
105627
105658
105690
105721
105752
105780
105807
105835
105860
105885
105915
105948
105981
106011
106035
106058
106082
106107
106128
106146
106164
106179
106198
106222
106240
106253
106267
106281
106296
106312
106325
106338
106351
106366
106385
106403
106418
106432
106446
106457
106467
106481
106495
106509
106520
106529
106539
106551
106561
106571
106580
106588
106596
106604
106612
106619
106627
106634
106642
106648
106653
106659
106663
106667
106671
106675
106679
106683
106685
106688
106690
106691
106692
106692
106693
106692
106692
106691
106689
106687
106684
106680
106676
106671
106665
106658
106652
106646
106639
106632
106624
106616
106608
106600
106593
106588
106581
106571
106559
106548
106532
106517
106506
106494
106479
106467
106451
106435
106417
106402
106388
106374
106358
106342
106327
106312
106296
106279
106262
106246
106230
106209
106181
106152
106130
106110
106088
106066
106045
106023
106002
105981
105958
105935
105909
105878
105851
105826
105798
105768
105746
105724
105693
105658
105625
105593
105558
105526
105497
105461
105426
105391
105354
105321
105294
105265
105234
105204
105159
105119
105089
105063
105033
104994
104953
104914
104875
104829
104784
104741
104693
104643
104601
104552
104493
104444
104400
104350
104294
104247
104202
104153
104107
104057
104014
103971
103926
103880
103828
103769
103708
103657
103619
103588
103551
103501
103446
103387
103329
103271
103209
103142
103069
102977
102904
102842
102766
102695
102645
102593
102528
102469
102419
102352
102260
102187
102133
102076
102008
101942
101871
101800
101723
101630
101561
101503
101448
101390
101344
99339.2
99340.9
99343.2
99346.3
99350.6
99355.4
99360.9
99368.5
99378
99389.7
99401.7
99415.9
99427.5
99437.5
99449.5
99462.8
99478
99497
99515.4
99531.1
99546.3
99563.1
99585.6
99616.3
99643.9
99669
99696.4
99722
99750.5
99771.9
99793.6
99825.1
99857.5
99886.6
99914.5
99947.7
99987.2
100024
100056
100086
100117
100148
100183
100226
100262
100297
100338
100379
100412
100440
100469
100508
100552
100591
100635
100679
100720
100761
100807
100851
100897
100945
100982
101022
101071
101107
101140
101184
101233
101281
101334
101386
101430
101483
101534
101572
101614
101665
101717
101765
101808
101853
101904
101954
101996
102037
102080
102119
102157
102205
102264
102316
102355
102399
102458
102510
102558
102607
102655
102703
102747
102793
102842
102889
102942
102997
103054
103110
103150
103188
103239
103299
103347
103387
103430
103490
103549
103589
103621
103658
103705
103747
103792
103831
103866
103913
103958
104001
104046
104091
104132
104165
104196
104235
104273
104310
104356
104411
104465
104514
104559
104602
104635
104666
104701
104737
104773
104811
104852
104895
104934
104971
105006
105040
105078
105117
105157
105191
105225
105253
105279
105311
105347
105376
105406
105439
105465
105491
105524
105557
105592
105631
105660
105688
105721
105757
105786
105813
105839
105862
105885
105917
105951
105981
106008
106032
106056
106080
106107
106125
106140
106159
106176
106194
106219
106239
106252
106265
106280
106294
106311
106325
106337
106350
106367
106384
106401
106417
106431
106445
106457
106469
106483
106495
106509
106519
106528
106537
106549
106561
106571
106581
106588
106596
106604
106612
106620
106627
106634
106641
106648
106654
106658
106662
106666
106670
106674
106678
106681
106684
106687
106689
106690
106691
106692
106692
106692
106691
106690
106688
106685
106682
106678
106674
106669
106663
106657
106651
106644
106638
106632
106623
106614
106607
106600
106594
106588
106581
106570
106558
106546
106530
106516
106506
106494
106479
106465
106449
106433
106417
106402
106388
106373
106358
106342
106325
106310
106295
106279
106261
106243
106226
106199
106171
106149
106130
106111
106089
106066
106048
106029
106007
105985
105960
105933
105906
105874
105851
105829
105797
105766
105743
105721
105690
105656
105623
105592
105559
105527
105494
105459
105424
105387
105352
105323
105297
105269
105235
105202
105161
105118
105089
105063
105033
104996
104958
104917
104868
104820
104781
104742
104688
104636
104596
104550
104489
104436
104394
104353
104306
104250
104200
104155
104107
104058
104015
103969
103922
103874
103823
103768
103713
103658
103619
103590
103555
103507
103449
103391
103333
103273
103208
103145
103076
102983
102897
102834
102766
102694
102639
102589
102533
102470
102415
102352
102262
102192
102137
102078
102012
101947
101876
101803
101718
101620
101560
101509
101453
101393
101344
99340.9
99342.5
99345
99348.5
99352.8
99357
99362.1
99369.5
99378.6
99390.1
99402.8
99416.2
99426.9
99437.1
99449.8
99464.3
99480.8
99498.1
99517.6
99534.9
99548.9
99565
99590.9
99621.3
99647.6
99670.4
99694.4
99719.9
99748.5
99772.2
99795.2
99824.4
99856.6
99888.2
99919.3
99951.6
99985.9
100022
100057
100091
100122
100151
100186
100228
100263
100297
100338
100376
100411
100441
100472
100512
100554
100592
100635
100683
100724
100766
100813
100857
100903
100950
100984
101018
101062
101106
101141
101178
101226
101284
101340
101383
101426
101478
101529
101572
101617
101665
101716
101766
101810
101858
101911
101952
101992
102037
102082
102121
102161
102209
102268
102319
102359
102404
102461
102518
102564
102604
102646
102700
102745
102791
102837
102885
102944
102998
103056
103116
103152
103188
103245
103302
103349
103390
103436
103495
103550
103587
103622
103658
103698
103745
103794
103829
103863
103916
103963
104001
104041
104084
104129
104167
104200
104237
104271
104309
104351
104400
104462
104514
104559
104601
104638
104670
104702
104738
104775
104815
104857
104901
104933
104966
105003
105034
105073
105117
105162
105195
105227
105254
105277
105307
105348
105376
105403
105436
105464
105490
105520
105556
105590
105625
105659
105689
105722
105759
105788
105816
105842
105865
105890
105922
105953
105978
106001
106029
106055
106077
106100
106120
106138
106158
106174
106190
106213
106234
106250
106264
106278
106293
106311
106325
106338
106351
106367
106381
106397
106416
106430
106443
106457
106471
106483
106495
106508
106519
106528
106537
106547
106561
106571
106580
106588
106596
106603
106611
106619
106626
106634
106641
106648
106653
106657
106661
106665
106670
106674
106677
106680
106683
106686
106688
106689
106690
106691
106691
106691
106690
106688
106686
106684
106680
106676
106671
106667
106662
106656
106650
106644
106638
106631
106621
106613
106606
106600
106594
106587
106578
106569
106558
106545
106530
106515
106504
106492
106476
106463
106449
106434
106417
106401
106386
106372
106358
106341
106325
106309
106292
106276
106257
106239
106222
106197
106169
106148
106129
106111
106090
106069
106052
106034
106008
105984
105959
105933
105906
105876
105854
105832
105798
105763
105737
105712
105685
105655
105624
105591
105557
105525
105491
105460
105427
105387
105351
105323
105297
105268
105236
105198
105159
105124
105093
105063
105031
104996
104960
104919
104862
104813
104779
104742
104687
104634
104592
104545
104487
104432
104390
104353
104312
104259
104201
104151
104103
104057
104017
103971
103918
103867
103820
103771
103721
103665
103621
103589
103553
103509
103460
103403
103333
103270
103209
103146
103080
102993
102894
102821
102758
102697
102639
102581
102522
102463
102408
102347
102269
102201
102146
102086
102019
101950
101881
101806
101717
101632
101569
101509
101447
101385
101342
99342.9
99344.3
99347
99350.3
99354.3
99358.7
99364.3
99371.5
99379.9
99390.6
99403
99416.2
99427.1
99437.9
99451.5
99468.3
99483.2
99497.5
99515.9
99536.5
99553.3
99572.7
99596.2
99622
99649.4
99674.6
99694.3
99716
99746.5
99771.7
99796.6
99827.3
99860.2
99888.6
99916.9
99951.3
99988.3
100029
100063
100093
100124
100157
100193
100231
100264
100298
100337
100374
100406
100438
100476
100517
100556
100594
100640
100687
100730
100775
100822
100861
100903
100948
100984
101018
101059
101102
101139
101176
101221
101283
101337
101379
101421
101477
101528
101571
101616
101668
101724
101770
101814
101862
101907
101949
101992
102041
102086
102121
102160
102212
102270
102322
102366
102414
102465
102514
102564
102607
102647
102690
102738
102787
102834
102887
102948
103002
103062
103116
103155
103198
103251
103298
103349
103395
103445
103499
103543
103581
103620
103659
103697
103746
103794
103826
103859
103913
103968
104007
104041
104080
104127
104168
104201
104232
104267
104309
104351
104398
104466
104515
104554
104595
104640
104672
104702
104741
104784
104820
104857
104898
104933
104972
105003
105031
105069
105114
105157
105194
105228
105254
105278
105310
105346
105373
105399
105435
105468
105492
105515
105549
105590
105623
105653
105687
105726
105761
105790
105817
105847
105874
105899
105926
105950
105972
105996
106025
106054
106074
106093
106113
106134
106157
106173
106189
106209
106230
106248
106263
106276
106293
106310
106325
106339
106352
106366
106379
106393
106412
106428
106442
106458
106471
106483
106495
106508
106519
106528
106537
106548
106560
106571
106580
106588
106595
106602
106611
106618
106625
106633
106640
106647
106652
106656
106661
106665
106669
106673
106676
106680
106683
106685
106686
106688
106689
106689
106689
106689
106688
106686
106684
106681
106678
106674
106670
106665
106660
106654
106649
106644
106637
106629
106620
106612
106606
106600
106592
106585
106577
106568
106557
106543
106529
106515
106504
106490
106474
106461
106446
106433
106417
106399
106384
106370
106355
106338
106325
106310
106292
106274
106253
106235
106217
106195
106171
106148
106128
106111
106091
106072
106056
106036
106010
105983
105956
105932
105907
105881
105857
105830
105797
105758
105731
105708
105684
105657
105620
105586
105553
105523
105492
105460
105429
105390
105352
105325
105297
105269
105237
105194
105152
105124
105097
105064
105032
104997
104959
104916
104857
104810
104774
104733
104683
104631
104589
104544
104487
104432
104391
104354
104309
104259
104205
104146
104098
104059
104020
103974
103921
103867
103814
103770
103728
103680
103630
103588
103548
103505
103461
103407
103336
103271
103210
103147
103078
102995
102900
102817
102754
102697
102633
102569
102514
102461
102401
102339
102282
102220
102157
102091
102020
101951
101881
101803
101710
101642
101585
101518
101441
101380
101341
99344.8
99346
99348.5
99351.9
99356.2
99360.3
99365.6
99373.3
99382.4
99393.6
99404.6
99416
99427.2
99438.8
99453.3
99470.1
99484.8
99499.2
99519.3
99540.6
99559
99577.4
99598.3
99622.4
99648.1
99672.8
99694.7
99719.7
99747.6
99772.9
99800.2
99830.2
99861.8
99889.7
99918.4
99955.2
99993.7
100038
100068
100093
100122
100158
100196
100232
100265
100300
100336
100373
100405
100437
100478
100525
100561
100596
100644
100691
100735
100782
100826
100863
100904
100948
100985
101020
101056
101094
101136
101176
101219
101279
101336
101381
101426
101480
101525
101566
101615
101675
101731
101773
101814
101861
101906
101948
101994
102045
102088
102125
102164
102213
102269
102321
102369
102420
102470
102515
102565
102608
102646
102689
102738
102784
102831
102890
102946
103001
103060
103113
103161
103219
103260
103300
103348
103393
103445
103497
103539
103578
103621
103658
103696
103744
103788
103826
103864
103909
103962
104007
104047
104091
104129
104165
104197
104229
104265
104306
104351
104410
104469
104514
104549
104587
104635
104673
104709
104748
104785
104822
104863
104898
104931
104972
105004
105035
105070
105107
105151
105190
105227
105255
105282
105313
105340
105367
105397
105433
105467
105494
105520
105548
105583
105619
105651
105688
105728
105760
105789
105821
105857
105879
105901
105924
105945
105968
105994
106023
106049
106069
106089
106109
106129
106151
106169
106187
106206
106226
106245
106261
106275
106290
106309
106324
106338
106352
106366
106379
106393
106409
106426
106442
106457
106469
106481
106495
106508
106518
106527
106537
106548
106560
106571
106579
106586
106595
106603
106611
106618
106625
106632
106639
106646
106651
106656
106660
106664
106668
106672
106675
106679
106682
106684
106685
106687
106687
106688
106688
106687
106686
106684
106682
106679
106677
106673
106668
106664
106658
106652
106648
106643
106636
106629
106619
106612
106605
106597
106591
106585
106576
106566
106552
106541
106530
106516
106503
106488
106473
106459
106445
106432
106415
106398
106382
106369
106356
106340
106324
106307
106289
106271
106253
106232
106209
106190
106170
106149
106130
106113
106094
106073
106054
106036
106015
105989
105958
105930
105904
105882
105859
105829
105796
105758
105729
105704
105682
105656
105620
105587
105553
105520
105490
105460
105428
105394
105357
105326
105296
105265
105233
105195
105152
105123
105097
105065
105034
105002
104959
104905
104848
104802
104760
104720
104679
104628
104588
104547
104491
104435
104391
104350
104306
104261
104215
104157
104097
104056
104018
103971
103923
103870
103809
103766
103727
103686
103642
103593
103549
103505
103457
103399
103337
103279
103219
103149
103066
102980
102902
102825
102752
102690
102629
102572
102517
102461
102399
102334
102285
102235
102166
102097
102022
101948
101879
101805
101720
101650
101590
101523
101448
101387
101344
99346.4
99347.5
99349.8
99353.6
99357.6
99361.8
99367.7
99375.6
99385
99395.7
99406.5
99417.8
99429
99441.7
99455.4
99471.1
99487.7
99503
99523.8
99545.5
99564
99578.6
99596.4
99623.2
99647.6
99671.8
99698.1
99724
99749.4
99775.7
99803.8
99830.3
99859.3
99892.2
99926.9
99961.2
99994.3
100034
100071
100097
100125
100163
100200
100235
100268
100303
100335
100370
100402
100435
100479
100529
100564
100599
100647
100692
100737
100786
100828
100866
100908
100949
100985
101022
101054
101087
101130
101176
101222
101284
101341
101388
101433
101480
101524
101566
101617
101673
101724
101771
101818
101867
101907
101946
101994
102046
102090
102129
102169
102219
102270
102318
102369
102422
102478
102524
102567
102607
102644
102688
102739
102782
102829
102894
102947
102999
103056
103108
103163
103220
103265
103311
103349
103387
103440
103496
103539
103576
103616
103658
103701
103745
103784
103823
103864
103908
103958
104006
104050
104091
104128
104164
104198
104231
104268
104307
104357
104419
104462
104500
104545
104594
104642
104677
104711
104748
104785
104826
104869
104899
104928
104971
105006
105040
105070
105101
105148
105189
105224
105252
105280
105313
105340
105364
105395
105432
105464
105492
105523
105550
105581
105619
105651
105686
105728
105760
105791
105823
105854
105880
105904
105923
105942
105968
105995
106020
106041
106060
106085
106108
106128
106148
106165
106181
106203
106224
106242
106259
106274
106289
106306
106323
106337
106351
106366
106380
106393
106409
106426
106442
106456
106468
106479
106493
106506
106516
106526
106536
106547
106560
106570
106579
106587
106595
106602
106610
106618
106625
106632
106638
106645
106650
106656
106660
106663
106667
106671
106674
106677
106680
106682
106684
106685
106686
106686
106686
106685
106684
106682
106680
106678
106675
106670
106666
106662
106656
106651
106646
106641
106636
106629
106619
106611
106603
106596
106590
106583
106573
106562
106550
106540
106530
106516
106502
106486
106471
106456
106443
106429
106413
106397
106383
106370
106356
106339
106320
106303
106287
106270
106252
106227
106205
106188
106171
106150
106130
106113
106093
106072
106055
106034
106012
105990
105964
105934
105907
105881
105856
105825
105790
105759
105732
105705
105680
105652
105619
105587
105554
105516
105489
105461
105425
105394
105364
105330
105294
105261
105230
105195
105152
105122
105097
105066
105034
105002
104954
104893
104844
104794
104744
104714
104682
104633
104589
104545
104491
104440
104396
104352
104308
104262
104213
104161
104093
104053
104014
103970
103927
103870
103807
103764
103727
103687
103647
103601
103554
103508
103455
103401
103343
103281
103215
103137
103051
102974
102904
102829
102751
102687
102632
102580
102526
102465
102396
102330
102283
102236
102176
102109
102028
101949
101878
101802
101728
101659
101588
101515
101449
101395
101348
99348.3
99349.3
99351.3
99355.3
99359.4
99364.2
99370.4
99379.1
99389.1
99398.5
99408.6
99419.7
99430.8
99443.8
99458.5
99476.1
99491.7
99506.6
99527
99548
99564.8
99579
99597.3
99625.2
99650.5
99676.6
99702
99726.2
99752.8
99779
99802.9
99828.1
99858.8
99896.1
99933.8
99964.4
99994.5
100030
100070
100103
100136
100171
100206
100241
100272
100302
100332
100365
100399
100434
100479
100528
100567
100606
100649
100691
100739
100790
100828
100866
100912
100950
100984
101021
101053
101084
101132
101180
101229
101291
101346
101393
101440
101484
101525
101568
101618
101665
101712
101764
101820
101869
101906
101945
102000
102048
102090
102131
102172
102220
102270
102325
102377
102427
102483
102528
102566
102605
102644
102688
102739
102784
102830
102894
102950
103003
103057
103106
103157
103211
103262
103313
103353
103390
103438
103497
103542
103575
103613
103656
103703
103751
103784
103816
103863
103911
103959
104003
104045
104088
104127
104166
104202
104234
104267
104308
104366
104420
104458
104496