/*--------------------------------*- C++ -*----------------------------------*\
  =========                 |
  \\      /  F ield         | OpenFOAM: The Open Source CFD Toolbox
   \\    /   O peration     | Website:  https://openfoam.org
    \\  /    A nd           | Version:  7
     \\/     M anipulation  |
\*---------------------------------------------------------------------------*/
FoamFile
{
    version     2.0;
    format      ascii;
    class       surfaceScalarField;
    location    "3000";
    object      phi;
}
// * * * * * * * * * * * * * * * * * * * * * * * * * * * * * * * * * * * * * //

dimensions      [0 3 -1 0 0 0 0];

internalField   nonuniform List<scalar> 
319200
(
-1.31679e-16
-7.00446e-17
-3.12368e-16
-3.40884e-17
-4.96549e-16
-3.91656e-17
-7.05419e-16
-2.99806e-17
-8.77034e-16
-8.68422e-17
-9.92469e-16
-1.05127e-16
-1.07558e-15
-1.44182e-16
-1.21058e-15
-3.68475e-17
-1.50332e-15
9.03264e-17
-1.75144e-15
1.56976e-17
-1.94257e-15
-3.05269e-17
-2.17943e-15
2.94453e-17
-2.1902e-15
-2.20981e-16
-1.85079e-15
-5.53294e-16
-1.64305e-15
-3.81146e-16
-1.68644e-15
-1.43752e-16
-1.6582e-15
-1.99162e-16
-1.93143e-15
1.07691e-16
-2.42463e-15
3.13396e-16
-2.87416e-15
2.75025e-16
-3.23996e-15
1.83878e-16
-3.62121e-15
2.00398e-16
-4.25179e-15
4.4484e-16
-4.8854e-15
4.46029e-16
-5.20456e-15
1.36738e-16
-4.9369e-15
-4.65543e-16
-4.32145e-15
-7.99746e-16
-3.95807e-15
-5.27329e-16
-3.8413e-15
-2.74871e-16
-4.03478e-15
5.48619e-17
-4.68647e-15
5.06143e-16
-5.50478e-15
6.49365e-16
-5.82821e-15
1.32227e-16
-5.77324e-15
-2.10397e-16
-5.83831e-15
-8.30321e-17
-5.96978e-15
-2.68067e-17
-6.2286e-15
1.02733e-16
-5.82769e-15
-5.46557e-16
-4.88307e-15
-1.05668e-15
-4.78773e-15
-2.26487e-16
-5.24064e-15
3.19857e-16
-5.55782e-15
1.82794e-16
-5.57567e-15
-1.23473e-16
-5.40466e-15
-2.89899e-16
-5.41105e-15
-1.19399e-16
-5.65824e-15
1.32897e-16
-5.76818e-15
-8.38931e-19
-5.56066e-15
-3.13134e-16
-5.19525e-15
-4.82649e-16
-5.67702e-15
3.78079e-16
-7.0414e-15
1.25318e-15
-7.77387e-15
6.11885e-16
-7.20451e-15
-6.75088e-16
-6.97346e-15
-3.2368e-16
-6.94092e-15
-1.32726e-16
-6.42241e-15
-6.03096e-16
-5.54745e-15
-9.74652e-16
-4.92113e-15
-7.03695e-16
-5.40332e-15
4.06913e-16
-6.76302e-15
1.27962e-15
-6.98513e-15
1.22067e-16
-6.10912e-15
-9.53738e-16
-5.85453e-15
-3.29076e-16
-5.89942e-15
-2.40003e-17
-6.6006e-15
6.35035e-16
-7.50001e-15
8.16767e-16
-7.2453e-15
-3.29304e-16
-5.78377e-15
-1.53375e-15
-4.4001e-15
-1.43704e-15
-5.53995e-15
1.09597e-15
-6.91409e-15
1.3074e-15
-7.39426e-15
4.27962e-16
-7.75352e-15
2.99975e-16
-7.59391e-15
-2.088e-16
-7.44499e-15
-2.00814e-16
-7.60429e-15
1.1151e-16
-7.86417e-15
2.11479e-16
-8.09599e-15
1.8882e-16
-8.40223e-15
2.60301e-16
-8.80292e-15
3.60523e-16
-9.41061e-15
5.655e-16
-9.17552e-15
-2.76453e-16
-8.18424e-15
-1.02654e-15
-6.92402e-15
-1.29233e-15
-5.82028e-15
-1.13434e-15
-5.64811e-15
-2.00591e-16
-5.81915e-15
1.44477e-16
-6.2395e-15
3.97439e-16
-6.8285e-15
5.66163e-16
-7.0318e-15
1.8106e-16
-7.83388e-15
7.84612e-16
-8.84313e-15
9.90287e-16
-8.99008e-15
1.3039e-16
-8.65519e-15
-3.49017e-16
-7.90695e-15
-7.59767e-16
-7.12494e-15
-7.90886e-16
-6.62481e-15
-5.08049e-16
-6.0616e-15
-5.69417e-16
-5.752e-15
-3.14214e-16
-5.68438e-15
-7.07381e-17
-5.76699e-15
8.13566e-17
-6.34122e-15
5.73838e-16
-6.12762e-15
-2.11172e-16
-5.47404e-15
-6.50588e-16
-5.91198e-15
4.41813e-16
-6.16107e-15
2.5639e-16
-6.33919e-15
1.8473e-16
-6.98488e-15
6.55939e-16
-7.30187e-15
3.29167e-16
-7.5203e-15
2.32128e-16
-7.58614e-15
8.29476e-17
-7.82168e-15
2.49021e-16
-7.8354e-15
3.39057e-17
-7.12527e-15
-6.9242e-16
-6.71326e-15
-3.9319e-16
-6.36644e-15
-3.24915e-16
-6.14616e-15
-2.00049e-16
-6.40451e-15
2.80957e-16
-6.26979e-15
-1.0741e-16
-5.78879e-15
-4.5401e-16
-5.86144e-15
9.99613e-17
-6.53796e-15
7.03043e-16
-7.52044e-15
1.01386e-15
-8.47266e-15
9.86184e-16
-9.30011e-15
8.64441e-16
-9.33967e-15
8.25079e-17
-8.44956e-15
-8.47497e-16
-7.83982e-15
-5.72183e-16
-7.6998e-15
-9.75985e-17
-7.42711e-15
-2.28462e-16
-6.92098e-15
-4.65278e-16
-6.6077e-15
-2.75144e-16
-7.06232e-15
4.97248e-16
-7.41054e-15
3.99014e-16
-7.11089e-15
-2.52308e-16
-6.107e-15
-9.54753e-16
-5.56225e-15
-4.98233e-16
-5.98153e-15
4.70921e-16
-5.83211e-15
-1.02958e-16
-5.82373e-15
3.38457e-17
-5.55238e-15
-2.16724e-16
-4.92548e-15
-5.68254e-16
-4.88711e-15
3.03473e-18
-5.5405e-15
7.09273e-16
-5.97559e-15
5.00399e-16
-5.96242e-15
4.43669e-17
-5.8118e-15
-9.15125e-17
-5.47755e-15
-2.75311e-16
-4.7951e-15
-6.24668e-16
-3.92449e-15
-8.18564e-16
-3.87868e-15
5.20638e-18
-4.35985e-15
5.39993e-16
-4.34641e-15
4.03096e-17
-4.20467e-15
-7.48126e-17
-4.33276e-15
1.81577e-16
-4.88707e-15
6.18861e-16
-5.50933e-15
6.87226e-16
-5.98444e-15
5.49745e-16
-5.84672e-15
-6.78984e-17
-5.34618e-15
-4.25887e-16
-4.8325e-15
-4.46555e-16
-4.69791e-15
-6.26967e-17
-5.03265e-15
4.0529e-16
-5.0237e-15
7.61318e-17
-4.75066e-15
-2.09849e-16
-4.42898e-15
-2.48102e-16
-4.06175e-15
-2.92983e-16
-3.9504e-15
-4.5358e-17
-4.08403e-15
2.05577e-16
-4.74845e-15
7.32536e-16
-5.61893e-15
9.55732e-16
-5.9606e-15
4.33471e-16
-5.96743e-15
8.50359e-17
-5.78774e-15
-8.41932e-17
-5.15553e-15
-5.48059e-16
-4.57597e-15
-5.06886e-16
-4.79762e-15
2.99651e-16
-5.37724e-15
6.59701e-16
-5.49121e-15
2.0823e-16
-4.97519e-15
-4.2408e-16
-4.76251e-15
-1.46006e-16
-4.19752e-15
-4.76778e-16
-3.40612e-15
-7.19328e-16
-2.82981e-15
-5.09602e-16
-2.51839e-15
-2.45751e-16
-2.53007e-15
7.78382e-17
-2.54794e-15
9.10852e-17
-2.42953e-15
-4.24731e-17
-2.31815e-15
-4.0802e-17
-2.42305e-15
1.84439e-16
-2.60633e-15
2.73642e-16
-2.82784e-15
3.20324e-16
-3.05402e-15
3.40493e-16
-3.22354e-15
2.99499e-16
-2.95229e-15
-1.2587e-16
-2.81834e-15
-4.52972e-17
-3.30203e-15
5.60553e-16
-3.72217e-15
5.43863e-16
-3.928e-15
3.84665e-16
-3.84378e-15
1.1148e-16
-3.57563e-15
-8.64961e-17
-3.43355e-15
2.10336e-17
-3.20634e-15
-8.27851e-17
-2.73688e-15
-3.52661e-16
-2.39031e-15
-2.65625e-16
-2.34407e-15
5.16553e-17
-2.34752e-15
1.22408e-16
-2.41948e-15
2.01136e-16
-2.46023e-15
1.65999e-16
-2.47099e-15
1.29541e-16
-2.43908e-15
8.46896e-17
-2.25647e-15
-6.46477e-17
-2.20428e-15
5.91368e-17
-2.29857e-15
1.97008e-16
-2.16951e-15
-2.34628e-17
-1.99936e-15
-6.44872e-17
-2.11334e-15
2.06056e-16
-2.25504e-15
2.31565e-16
-2.19597e-15
4.97657e-17
-2.12197e-15
4.65467e-17
-1.91541e-15
-8.56964e-17
-1.56345e-15
-2.42954e-16
-1.27353e-15
-2.1147e-16
-1.08166e-15
-1.236e-16
-9.2192e-16
-9.70724e-17
-8.31971e-16
-2.14078e-17
-7.53299e-16
3.38653e-18
-7.26134e-16
3.96406e-17
-7.02079e-16
6.59728e-17
-6.222e-16
1.30519e-17
-5.76455e-16
2.38042e-17
-4.88707e-16
-9.55421e-18
-4.3184e-16
1.2785e-17
-4.44138e-16
9.49136e-17
-4.75278e-16
1.13723e-16
-4.70299e-16
9.35126e-17
-4.30915e-16
4.61687e-17
-3.81004e-16
4.7288e-17
-3.30189e-16
3.24421e-17
-2.73208e-16
3.54525e-17
-2.08473e-16
2.11641e-17
-1.46923e-16
1.4724e-17
-1.0464e-16
3.37295e-17
-7.21032e-17
3.76503e-17
-3.18049e-17
3.64516e-17
1.25688e-17
3.05634e-17
7.09345e-17
2.11274e-17
1.61178e-16
-7.8973e-18
3.06859e-16
-1.27378e-17
4.83264e-16
2.68285e-17
6.10257e-16
1.08932e-16
6.04913e-16
2.23471e-16
6.35411e-16
1.52718e-16
7.75972e-16
7.78299e-18
8.77442e-16
1.5977e-17
9.27038e-16
5.89179e-17
9.43444e-16
8.95864e-17
1.04153e-15
-1.80075e-17
1.31113e-15
-2.01517e-16
1.55888e-15
-1.29034e-16
1.54216e-15
1.78388e-16
1.37481e-15
3.08647e-16
1.22066e-15
2.6116e-16
1.10225e-15
1.98614e-16
1.10332e-15
6.71776e-17
1.23304e-15
-4.13321e-17
1.33136e-15
-7.32397e-18
1.35786e-15
3.98094e-17
1.44547e-15
-2.04865e-17
1.46616e-15
7.61163e-17
1.38722e-15
1.65366e-16
1.51484e-15
-3.76663e-17
1.73993e-15
-1.19541e-16
1.82773e-15
1.32613e-17
1.82186e-15
9.04188e-17
1.7524e-15
1.39159e-16
1.76059e-15
5.35935e-17
1.87179e-15
-2.5081e-17
1.86277e-15
9.22641e-17
1.86776e-15
8.38376e-17
1.87877e-15
7.72463e-17
1.9296e-15
3.38114e-17
1.96156e-15
5.54652e-17
2.0224e-15
3.59012e-17
2.25207e-15
-1.21942e-16
2.75416e-15
-3.96438e-16
3.22551e-15
-3.61366e-16
3.44662e-15
-1.29839e-16
3.33304e-15
2.00981e-16
2.73358e-15
6.812e-16
2.13155e-15
6.81888e-16
1.90453e-15
2.83614e-16
2.11563e-15
-1.5547e-16
2.57076e-15
-3.95643e-16
3.00999e-15
-3.7667e-16
3.15935e-15
-8.38394e-17
3.06048e-15
1.81247e-16
3.04152e-15
8.0398e-17
3.15932e-15
-4.58621e-17
3.16864e-15
6.92045e-17
3.44972e-15
-1.34494e-16
4.30834e-15
-6.33913e-16
5.17843e-15
-6.19849e-16
5.56354e-15
-1.39587e-16
5.7485e-15
4.33707e-17
6.03294e-15
-7.36649e-17
6.22489e-15
6.49347e-19
6.15447e-15
2.43344e-16
6.27297e-15
3.31349e-17
6.08816e-15
3.12213e-16
5.55068e-15
6.46635e-16
4.99515e-15
6.46987e-16
4.61714e-15
4.50391e-16
4.35273e-15
3.38062e-16
4.72003e-15
-2.79103e-16
5.45701e-15
-6.07383e-16
5.63163e-15
-4.34078e-17
5.49279e-15
2.45244e-16
5.29805e-15
2.73997e-16
4.97021e-15
4.01133e-16
4.77355e-15
2.59316e-16
4.60885e-15
2.22838e-16
4.35973e-15
2.95822e-16
4.44109e-15
-1.92938e-17
4.78886e-15
-2.68573e-16
5.16636e-15
-2.5056e-16
5.21365e-15
9.02543e-17
5.19806e-15
1.3997e-16
5.35362e-15
-3.72832e-17
4.88646e-15
5.822e-16
4.83484e-15
1.55843e-16
5.477e-15
-5.40846e-16
5.72156e-15
-1.42984e-16
6.30296e-15
-4.84375e-16
7.05639e-15
-6.57316e-16
7.47144e-15
-3.19185e-16
8.06615e-15
-5.04168e-16
8.89127e-15
-7.4466e-16
8.47592e-15
5.16873e-16
7.06152e-15
1.53343e-15
6.47877e-15
6.70637e-16
6.21903e-15
3.43584e-16
6.07152e-15
2.39543e-16
6.16355e-15
-3.3522e-18
5.53253e-15
6.95062e-16
4.88085e-15
7.13055e-16
5.51234e-15
-5.67791e-16
6.73526e-15
-1.14211e-15
7.66056e-15
-8.15023e-16
7.97367e-15
-2.08869e-16
7.82612e-15
2.44806e-16
7.39224e-15
5.18162e-16
6.53418e-15
9.35529e-16
6.1284e-15
4.72437e-16
6.28561e-15
-8.41959e-17
6.26311e-15
9.66503e-17
6.21677e-15
1.25431e-16
6.30034e-15
-3.3333e-18
6.45026e-15
-7.04376e-17
6.38248e-15
1.39588e-16
6.2182e-15
2.31099e-16
6.10884e-15
1.7268e-16
6.12925e-15
4.45701e-17
6.42945e-15
-2.3907e-16
7.26841e-15
-7.67027e-16
7.70753e-15
-3.61828e-16
8.89608e-15
-1.11785e-15
9.8175e-15
-8.38253e-16
9.20637e-15
6.95945e-16
8.8357e-15
4.49123e-16
9.80826e-15
-8.9313e-16
1.14857e-14
-1.5949e-15
1.3302e-14
-1.73451e-15
1.33575e-14
4.04873e-17
1.24927e-14
9.43859e-16
1.1285e-14
1.29686e-15
9.22876e-15
2.13241e-15
7.6983e-15
1.60187e-15
6.92361e-15
8.40006e-16
6.60208e-15
3.85376e-16
6.72824e-15
-5.88612e-17
6.64072e-15
1.53345e-16
7.67999e-15
-9.76339e-16
9.71883e-15
-1.96842e-15
1.08487e-14
-1.05722e-15
1.1324e-14
-4.02514e-16
1.13984e-14
7.40324e-18
1.07887e-14
6.90741e-16
1.00158e-14
8.47997e-16
1.01629e-14
-7.58914e-17
1.04824e-14
-2.43749e-16
1.07513e-14
-1.94751e-16
1.15496e-14
-7.16035e-16
1.21415e-14
-5.02647e-16
1.30897e-14
-8.62719e-16
1.42219e-14
-1.00977e-15
1.39364e-14
4.08565e-16
1.47901e-14
-7.58415e-16
1.58292e-14
-8.97036e-16
2.12691e-16
-1.85648e-16
-1.63777e-16
-2.93226e-16
-1.32308e-16
-3.85028e-16
-1.49511e-16
-5.09717e-16
-1.25002e-16
-6.87294e-16
-1.20612e-16
-9.52825e-16
-6.08797e-17
-1.19834e-15
-1.32254e-16
-1.35692e-15
-9.0659e-17
-1.50034e-15
2.12576e-17
-1.6541e-15
-4.50523e-17
-1.80049e-15
-1.00615e-16
-1.88532e-15
-7.60536e-17
-2.06528e-15
-2.37214e-16
-2.28176e-15
-5.39541e-16
-2.29841e-15
-5.75996e-16
-2.35934e-15
-2.56511e-16
-2.97566e-15
2.39669e-16
-3.57663e-15
4.81118e-16
-3.51699e-15
3.28003e-17
-3.29488e-15
-1.46823e-16
-3.3116e-15
2.72391e-17
-3.72801e-15
4.38206e-16
-3.95735e-15
4.8199e-16
-3.67988e-15
-9.96304e-18
-3.781e-15
9.32648e-17
-4.6749e-15
2.60088e-16
-5.24501e-15
-4.18331e-16
-5.08223e-15
-8.69991e-16
-5.13501e-15
-3.78044e-16
-5.35598e-15
1.08884e-16
-4.91728e-15
-8.90514e-17
-4.33249e-15
-8.99407e-17
-4.0695e-15
-2.94912e-16
-4.21644e-15
-2.14864e-16
-4.76062e-15
3.32531e-16
-5.29273e-15
3.60851e-16
-5.23488e-15
-1.06964e-16
-5.51927e-15
-3.61921e-16
-6.20716e-15
-5.13602e-16
-5.93656e-15
-6.54025e-16
-5.34669e-15
-4.06116e-16
-5.35351e-15
6.5351e-17
-5.45777e-15
-1.58939e-16
-5.4845e-15
-3.75461e-16
-5.98056e-15
2.55197e-16
-6.1922e-15
2.20165e-16
-5.76615e-15
-5.34015e-16
-5.77339e-15
-4.08382e-16
-6.17335e-15
-2.00203e-16
-6.19658e-15
2.75045e-16
-5.84164e-15
7.92278e-16
-6.18546e-15
8.48622e-16
-7.08176e-15
1.25241e-16
-6.86157e-15
-6.51277e-16
-6.20177e-15
-8.67106e-16
-6.15688e-15
-7.3783e-16
-5.97906e-15
-1.24439e-15
-5.7765e-15
-9.87553e-16
-5.83674e-15
3.82862e-16
-5.65969e-15
1.02042e-15
-5.5666e-15
-5.18228e-17
-5.6842e-15
-9.18209e-16
-5.77093e-15
-3.13471e-16
-6.12646e-15
2.63069e-16
-5.79579e-15
2.30317e-16
-5.71427e-15
6.65425e-16
-7.00065e-15
8.93954e-16
-9.08627e-15
4.76674e-16
-1.07322e-14
1.39873e-16
-1.05783e-14
8.72184e-16
-8.95816e-15
-3.79085e-16
-7.36544e-15
-1.22425e-15
-6.65872e-15
-4.5682e-16
-6.68302e-15
-2.38307e-16
-6.94403e-15
9.20043e-18
-7.11634e-15
2.3064e-16
-6.81811e-15
-1.32586e-16
-6.90583e-15
2.32755e-16
-7.76068e-15
1.07429e-15
-7.96972e-15
5.26014e-16
-7.47969e-15
3.51888e-17
-7.71906e-15
-7.38192e-17
-8.66909e-15
-1.11873e-16
-9.84658e-15
-1.48148e-16
-9.84815e-15
-1.16724e-15
-8.40662e-15
-1.67466e-15
-7.10742e-15
-1.1796e-15
-7.2847e-15
5.50137e-16
-7.86052e-15
1.11871e-15
-8.59933e-15
8.9805e-16
-8.87154e-15
1.0365e-15
-8.94566e-15
1.04669e-15
-8.8747e-15
4.28402e-17
-8.18433e-15
-1.05337e-15
-8.14179e-15
-8.13391e-16
-8.14785e-15
-7.94454e-16
-8.00183e-15
-6.61841e-16
-7.62894e-15
-9.48637e-16
-7.09797e-15
-8.49731e-16
-7.24629e-15
7.43538e-17
-7.36589e-15
2.00028e-16
-7.10873e-15
3.1708e-16
-8.0686e-15
7.50111e-16
-8.47063e-15
-2.43251e-16
-7.59424e-15
-4.29188e-16
-8.03051e-15
6.98947e-16
-8.86526e-15
1.02941e-15
-8.44567e-15
2.49097e-16
-7.677e-15
-4.2711e-16
-7.02392e-15
-4.06569e-16
-6.21632e-15
-7.09325e-16
-5.52255e-15
-4.3104e-16
-5.6008e-15
1.28065e-16
-6.07492e-15
-2.01943e-16
-6.38311e-15
-6.64535e-17
-6.58516e-15
-1.02544e-16
-6.6226e-15
-1.40862e-16
-6.80665e-15
4.89511e-16
-7.7443e-15
8.57527e-16
-8.42376e-15
2.57159e-16
-7.78113e-15
-5.09916e-16
-6.77271e-15
-2.756e-16
-6.20039e-15
4.73509e-16
-5.70688e-15
5.25755e-16
-5.41659e-15
6.07694e-16
-5.61928e-15
3.2119e-16
-6.12208e-15
-3.07916e-16
-6.48693e-15
-1.71265e-16
-6.29779e-15
-2.4563e-16
-5.85062e-15
-6.35917e-16
-5.79251e-15
-4.84323e-16
-7.2063e-15
1.17233e-15
-8.23059e-15
1.56896e-15
-7.90398e-15
1.24058e-16
-7.84504e-15
-2.63732e-16
-8.86742e-15
1.07134e-16
-8.26575e-15
-1.04573e-15
-6.55638e-15
-1.19323e-15
-6.39251e-15
-2.23043e-16
-6.41526e-15
1.03687e-16
-6.41299e-15
-1.67366e-16
-6.52493e-15
-4.00394e-16
-6.52383e-15
5.66851e-17
-5.82182e-15
6.5798e-17
-5.20052e-15
-6.04494e-17
-5.32763e-15
2.22517e-16
-5.51266e-15
1.53025e-16
-5.36198e-15
-3.68678e-16
-5.40727e-15
-5.23337e-16
-6.17183e-15
-1.814e-18
-5.98489e-15
-1.08788e-16
-4.95396e-15
-4.35538e-16
-4.60985e-15
-2.48456e-16
-4.7471e-15
1.2302e-16
-5.19649e-15
6.9335e-16
-5.08833e-15
5.80162e-16
-4.87306e-15
5.3379e-16
-4.87602e-15
6.2226e-16
-5.1154e-15
2.34322e-16
-5.46605e-15
-3.06207e-18
-5.64298e-15
-1.98784e-16
-5.37207e-15
-2.57117e-16
-4.86707e-15
-2.36431e-17
-4.79848e-15
8.15156e-17
-5.07912e-15
1.41793e-16
-5.40834e-15
1.55551e-16
-5.34713e-15
-2.73469e-16
-4.92297e-15
-3.98614e-16
-4.52886e-15
-1.12004e-16
-4.19836e-15
4.83548e-16
-3.95163e-15
7.92386e-16
-4.1641e-15
7.27075e-16
-5.13199e-15
1.12189e-15
-5.54365e-15
4.17932e-16
-5.22868e-15
-7.87318e-16
-4.82618e-15
-8.3396e-16
-4.29337e-15
-1.56079e-16
-3.93744e-15
3.78354e-16
-3.75993e-15
1.09325e-16
-3.89556e-15
-2.12148e-16
-4.0398e-15
7.20716e-17
-3.97835e-15
-4.56592e-16
-3.65255e-15
-9.72822e-16
-3.67259e-15
-4.29028e-16
-3.6364e-15
-2.09157e-16
-3.29721e-15
-1.91437e-16
-2.98931e-15
-1.42148e-16
-2.95743e-15
-7.06805e-18
-3.29205e-15
3.65597e-16
-3.68169e-15
6.63397e-16
-3.73269e-15
4.40285e-16
-3.74126e-15
4.74044e-16
-4.1032e-15
8.57277e-16
-4.21021e-15
5.55589e-16
-4.06469e-15
-1.56151e-16
-4.02223e-15
5.4917e-18
-3.75452e-15
4.32168e-16
-3.54971e-15
5.09924e-16
-3.38591e-15
3.79964e-16
-3.34305e-15
2.18177e-16
-3.22009e-15
-6.27199e-17
-3.0658e-15
-2.83765e-18
-3.35653e-15
3.18376e-16
-3.95514e-15
3.38779e-16
-3.87484e-15
-2.53271e-16
-3.08977e-15
-6.21869e-16
-2.52444e-15
-3.25653e-16
-2.27307e-15
6.3894e-17
-2.29722e-15
2.91921e-16
-2.04035e-15
-3.25195e-17
-1.78344e-15
-7.68651e-17
-1.91805e-15
1.62855e-16
-1.95254e-15
1.77124e-16
-1.70525e-15
2.79466e-17
-1.6973e-15
4.95766e-17
-1.77525e-15
9.34398e-17
-1.68414e-15
1.91521e-16
-1.5468e-15
1.85649e-16
-1.36248e-15
-3.24198e-17
-1.15853e-15
-6.50397e-17
-1.14862e-15
-1.66049e-17
-1.32924e-15
1.88754e-18
-1.42594e-15
-5.15466e-17
-1.42374e-15
-6.25044e-17
-1.36613e-15
-8.46181e-17
-1.24639e-15
-6.29078e-17
-1.08772e-15
-7.08763e-17
-9.373e-16
-3.78826e-17
-8.73015e-16
8.30041e-17
-8.57087e-16
7.42911e-17
-8.45202e-16
8.95908e-17
-8.81452e-16
1.03694e-16
-8.31277e-16
5.56904e-17
-6.48562e-16
2.54337e-17
-5.53192e-16
1.08645e-16
-5.28511e-16
1.56025e-16
-5.0116e-16
1.12689e-16
-4.31594e-16
7.45044e-17
-3.5156e-16
3.5698e-17
-2.8704e-16
5.89466e-17
-2.40257e-16
5.63528e-17
-2.04675e-16
5.25582e-17
-1.62098e-16
6.82705e-17
-1.05258e-16
5.92849e-17
-5.94974e-17
5.36828e-17
-4.76233e-18
4.19828e-17
5.87289e-17
2.69832e-17
2.12446e-16
-7.5475e-18
4.41935e-16
3.55025e-18
6.35062e-16
7.98849e-17
8.27396e-16
1.33657e-16
1.00038e-15
2.29613e-16
1.0067e-15
2.85356e-16
9.04864e-16
2.23192e-16
9.5082e-16
7.23897e-17
9.90601e-16
1.20219e-16
1.07448e-15
9.5323e-17
1.14523e-15
-1.50809e-17
1.10042e-15
-6.18282e-17
1.05268e-15
6.07551e-17
1.15469e-15
2.09702e-16
1.31002e-15
2.49475e-16
1.42448e-15
2.24659e-16
1.46686e-15
2.28401e-16
1.34386e-15
2.70143e-16
1.17113e-15
2.24018e-16
1.27087e-15
-3.52332e-17
1.5798e-15
-2.08728e-16
1.70085e-15
-5.39368e-17
1.69793e-15
1.80086e-16
1.92074e-15
3.68781e-17
1.98844e-15
-5.93984e-18
1.81971e-15
1.54922e-16
1.81555e-15
1.08918e-16
1.94867e-15
3.73595e-17
2.04231e-15
1.14971e-16
1.94728e-15
2.22677e-16
1.85414e-15
1.54386e-16
1.88563e-15
1.41416e-16
2.0433e-15
1.46981e-17
2.16764e-15
4.53711e-17
2.38389e-15
-8.92019e-17
2.76976e-15
-2.28853e-16
2.93072e-15
-5.12153e-18
2.73578e-15
1.89302e-16
2.43268e-15
9.06981e-18
2.2892e-15
-1.29563e-16
2.2928e-15
-5.50102e-17
2.49015e-15
7.94121e-17
2.68799e-15
5.59585e-16
2.65817e-15
7.74383e-16
2.74497e-15
2.56068e-16
2.68922e-15
-3.92831e-17
2.38124e-15
-2.4223e-17
2.07688e-15
-2.15836e-17
1.9745e-15
5.94745e-17
2.03175e-15
1.67241e-16
2.08766e-15
7.53995e-17
2.48589e-15
-4.07735e-16
3.13419e-15
-5.28416e-16
3.85335e-15
-6.53282e-16
3.98478e-15
-5.10412e-16
3.82321e-15
-2.2201e-16
3.95274e-15
-6.58648e-17
4.13488e-15
3.0218e-17
4.32385e-15
-1.26718e-16
4.53036e-15
-9.63573e-17
4.43523e-15
4.33027e-16
4.10413e-15
4.49767e-16
4.01485e-15
4.80661e-16
4.16543e-15
5.70594e-16
4.43296e-15
4.48873e-16
4.84751e-15
1.06361e-16
5.08723e-15
1.80041e-16
4.57893e-15
3.17691e-16
3.89402e-15
1.90084e-16
4.07818e-15
-1.34624e-16
4.55493e-15
-1.6097e-16
4.7842e-15
1.10462e-16
4.8205e-15
4.28149e-16
4.65633e-15
4.80237e-16
4.98048e-15
-5.3139e-17
5.79293e-15
-4.56995e-16
6.08995e-15
-2.31924e-16
5.97277e-15
-6.34198e-17
6.82662e-15
-9.68672e-16
7.6946e-15
-6.59746e-16
7.42753e-15
5.15434e-16
6.87355e-15
6.24097e-16
6.63907e-15
9.16243e-16
5.7523e-15
1.13133e-15
5.20449e-15
8.77349e-17
5.62522e-15
-4.82996e-16
5.94903e-15
-7.28891e-16
5.93609e-15
-5.63059e-16
6.1536e-15
-4.51341e-16
6.27534e-15
-5.44072e-16
5.99654e-15
-3.88911e-16
6.34901e-15
2.44414e-16
7.26717e-15
6.95554e-16
7.56142e-15
4.49758e-16
6.95032e-15
1.03243e-15
5.93582e-15
1.34229e-15
5.47259e-15
5.33605e-16
5.57457e-15
6.55829e-16
5.55081e-15
8.02074e-16
5.66349e-15
-6.14071e-16
6.17179e-15
-1.55327e-15
6.31793e-15
-8.67649e-16
6.17483e-15
2.27755e-17
6.31654e-15
1.82965e-16
6.52451e-15
3.84997e-16
6.74351e-15
7.84725e-16
6.65784e-15
6.26411e-16
5.87302e-15
7.71416e-16
5.35234e-15
6.83193e-16
5.16579e-15
3.75188e-16
5.24674e-15
-1.99765e-17
5.68969e-15
-4.49101e-16
6.15871e-15
-2.65682e-16
6.34095e-15
1.11966e-16
6.18073e-15
3.97444e-16
6.26401e-15
2.56805e-17
7.07154e-15
-9.79786e-16
8.10333e-15
-1.72098e-15
8.62853e-15
-8.09298e-16
8.63653e-15
-1.04459e-15
8.07752e-15
-1.89395e-16
7.72549e-15
1.12674e-15
7.54935e-15
6.93061e-16
7.40453e-15
-6.81226e-16
7.30818e-15
-1.4343e-15
7.19578e-15
-1.55413e-15
7.66555e-15
-3.61545e-16
8.07788e-15
6.03945e-16
8.85538e-15
5.8793e-16
1.01565e-14
8.98442e-16
9.86515e-15
1.96617e-15
8.95858e-15
1.81179e-15
9.10663e-15
3.04047e-16
9.31085e-15
-1.85239e-16
9.46979e-15
5.20539e-17
8.98069e-15
-4.10942e-16
8.01541e-15
-9.32426e-16
8.42342e-15
-1.40636e-15
8.4818e-15
-3.90395e-16
7.90813e-15
6.51911e-16
8.37766e-15
2.87826e-16
9.58715e-15
-2.96399e-16
1.012e-14
-5.35906e-16
1.03269e-14
-3.85132e-16
1.11371e-14
-9.33273e-16
1.13017e-14
-8.03545e-16
1.11369e-14
-2.60356e-16
1.16654e-14
-1.31599e-15
1.15557e-14
-7.96789e-16
1.11676e-14
8.92294e-16
1.04225e-14
1.04447e-16
1.03707e-14
-7.43333e-16
-2.99115e-16
-1.34648e-16
-2.26579e-16
-2.65284e-16
-1.79844e-16
-4.2821e-16
-2.0166e-16
-5.86944e-16
-1.39368e-16
-7.78119e-16
-1.51437e-16
-9.4779e-16
-7.62501e-17
-1.24237e-15
-4.54914e-17
-1.51302e-15
-4.58243e-17
-1.77853e-15
9.58342e-17
-2.23313e-15
1.83556e-16
-2.50677e-15
-6.48741e-17
-2.39627e-15
-3.975e-16
-2.46526e-15
-3.6027e-16
-3.0394e-15
-1.78859e-16
-3.62588e-15
-2.2009e-16
-3.89553e-15
-1.87236e-16
-3.76788e-15
-1.12101e-16
-3.28553e-15
-2.07734e-16
-3.14757e-15
-2.88796e-16
-3.2635e-15
-2.36571e-16
-3.22897e-15
-1.88833e-16
-3.09556e-15
1.24966e-16
-2.86687e-15
9.05489e-17
-2.73156e-15
-2.95548e-16
-3.00071e-15
2.14939e-16
-3.31628e-15
4.21942e-16
-3.77263e-15
-1.19442e-16
-4.67259e-15
-1.30148e-16
-5.00886e-15
-2.23286e-16
-4.66941e-15
-3.83872e-16
-4.78689e-15
-1.23145e-16
-4.8087e-15
-2.29381e-16
-4.6627e-15
-6.03162e-16
-4.39365e-15
-6.46033e-16
-4.21624e-15
2.38181e-17
-4.33358e-15
3.42055e-16
-4.28432e-15
-2.93002e-16
-4.26574e-15
-5.06597e-16
-4.33622e-15
-5.6707e-16
-4.68914e-15
-4.28381e-16
-5.17768e-15
-4.81242e-17
-5.58777e-15
3.48215e-16
-6.19049e-15
3.1861e-16
-6.8937e-15
2.0353e-16
-6.31115e-15
-4.74988e-16
-5.19745e-15
-1.00508e-15
-5.10069e-15
-7.37707e-16
-5.62071e-15
7.08879e-18
-6.47311e-15
5.36795e-16
-6.2393e-15
-8.68489e-17
-5.25155e-15
-3.03468e-16
-4.89704e-15
3.99427e-16
-5.17885e-15
3.14385e-16
-5.98073e-15
5.80752e-17
-7.10946e-15
1.66716e-16
-8.39528e-15
4.52235e-16
-9.42458e-15
-3.1615e-16
-9.72957e-15
-7.78227e-16
-8.39167e-15
-1.05467e-15
-6.45654e-15
-9.93223e-16
-6.09987e-15
-4.87478e-16
-6.6981e-15
-3.99547e-16
-6.81539e-15
-2.82342e-16
-6.35276e-15
-2.69564e-16
-6.19005e-15
-3.84569e-18
-5.6061e-15
-2.96034e-19
-4.78691e-15
9.79014e-18
-4.69045e-15
3.20136e-16
-5.26602e-15
6.63092e-16
-5.606e-15
1.15139e-15
-6.59086e-15
5.55926e-16
-7.11841e-15
-7.57245e-16
-6.24041e-15
-1.39208e-15
-5.5533e-15
-9.70216e-16
-6.05119e-15
4.59692e-16
-7.238e-15
1.36797e-15
-8.28991e-15
8.72151e-16
-9.24782e-15
1.14457e-15
-8.82812e-15
6.07291e-16
-8.21801e-15
-1.24737e-16
-8.57011e-15
3.46049e-16
-8.83669e-15
1.52611e-16
-8.341e-15
-6.4533e-16
-7.47393e-15
-1.04549e-15
-7.33908e-15
-1.3334e-15
-8.07792e-15
-9.6339e-16
-8.51159e-15
-7.74334e-16
-7.60686e-15
-3.81174e-16
-6.56237e-15
5.19649e-17
-6.74367e-15
1.05987e-15
-6.32541e-15
5.97412e-16
-5.21723e-15
-7.81939e-17
-5.17443e-15
-1.39241e-17
-5.36854e-15
-8.72927e-16
-5.05018e-15
-1.14233e-15
-5.40218e-15
-4.50998e-16
-6.35578e-15
2.83634e-16
-6.77001e-15
-5.4071e-16
-6.35861e-15
-1.26576e-15
-6.10648e-15
-1.80806e-16
-6.84615e-15
9.38236e-16
-7.28801e-15
7.59814e-16
-7.15769e-15
6.21376e-16
-7.88537e-15
4.8804e-16
-8.00997e-15
-2.98534e-16
-7.22565e-15
-7.82209e-17
-6.68285e-15
4.95357e-16
-6.63697e-15
2.1221e-16
-7.11028e-15
5.76195e-17
-7.16494e-15
-3.37517e-16
-6.78831e-15
-1.07219e-15
-5.96215e-15
-1.24152e-15
-5.48813e-15
-3.29849e-16
-5.98669e-15
3.12538e-16
-6.51035e-15
4.77056e-16
-6.48392e-15
-1.0907e-16
-6.15631e-15
-4.46555e-16
-5.70782e-15
6.59689e-17
-5.36381e-15
5.40628e-16
-5.15701e-15
7.82982e-17
-5.29302e-15
-3.46909e-16
-5.38096e-15
-1.60002e-16
-4.94551e-15
6.84175e-17
-4.33275e-15
-5.66738e-17
-4.18817e-15
4.93771e-16
-4.47898e-15
6.43999e-16
-5.15959e-15
4.04719e-16
-5.4788e-15
1.83728e-16
-5.40377e-15
-2.83171e-16
-5.85987e-15
-1.44868e-16
-6.53139e-15
2.25367e-16
-6.3331e-15
1.01941e-15
-5.64709e-15
9.2923e-16
-5.89639e-15
4.15996e-16
-6.3925e-15
2.75864e-16
-6.47423e-15
2.31527e-16
-7.03815e-15
-4.37305e-16
-7.22065e-15
-9.63404e-16
-7.16875e-15
-2.28387e-16
-7.74272e-15
7.26564e-16
-8.95591e-15
1.10302e-15
-8.83986e-15
-4.49937e-16
-7.56283e-15
-1.164e-15
-6.85377e-15
-5.8727e-16
-6.02913e-15
-8.24319e-16
-5.56121e-15
-1.90261e-16
-5.7524e-15
4.00567e-16
-5.85366e-15
-2.0843e-16
-5.72532e-15
-5.93327e-16
-5.75914e-15
8.87938e-17
-5.93463e-15
1.30365e-16
-6.32271e-15
1.1309e-17
-7.31843e-15
8.10313e-16
-7.41023e-15
2.91035e-16
-6.17102e-15
-4.71223e-16
-5.24919e-15
-2.82878e-16
-4.88496e-15
2.36557e-16
-4.47008e-15
2.75462e-16
-4.04652e-15
-1.22403e-16
-3.90404e-15
-7.86618e-17
-4.23064e-15
1.88846e-16
-4.48027e-15
6.12582e-17
-4.49051e-15
5.53309e-17
-4.63484e-15
2.95102e-16
-4.59291e-15
1.71085e-16
-4.43205e-15
6.81406e-17
-4.69844e-15
6.6281e-17
-5.18552e-15
1.57573e-16
-5.62195e-15
3.98047e-16
-5.85627e-15
8.05912e-16
-5.65443e-15
6.79955e-16
-4.88962e-15
5.07969e-17
-3.65192e-15
-3.18131e-17
-3.13929e-15
-1.88383e-17
-3.90073e-15
3.79359e-17
-4.6224e-15
-4.35889e-17
-4.43384e-15
-2.65902e-16
-3.72084e-15
-2.56343e-16
-3.22797e-15
-3.15131e-16
-3.05503e-15
-3.15077e-16
-2.92699e-15
1.42451e-17
-3.39579e-15
8.02834e-17
-3.96613e-15
-3.32434e-16
-3.88287e-15
-4.38521e-16
-3.71792e-15
-3.04602e-16
-3.70411e-15
-1.37327e-16
-3.92113e-15
1.42799e-16
-4.36856e-15
5.17773e-16
-4.6351e-15
7.50609e-16
-4.32336e-15
5.26408e-16
-3.78055e-15
8.83754e-17
-3.77652e-15
6.45489e-16
-3.91719e-15
1.15711e-15
-3.89113e-15
6.58926e-16
-3.90968e-15
-3.5092e-17
-3.51516e-15
-2.78311e-16
-2.95817e-15
-1.23486e-18
-2.69595e-15
3.70169e-16
-2.58119e-15
3.76876e-16
-2.54157e-15
2.9457e-16
-2.61226e-15
1.18305e-16
-2.55032e-15
3.28331e-17
-2.28581e-15
1.39991e-16
-2.06593e-15
2.02286e-16
-2.20887e-15
-1.70569e-17
-2.42755e-15
-2.96061e-16
-2.50667e-15
-1.45472e-16
-2.21158e-15
-1.39759e-16
-1.76683e-15
-6.74334e-17
-1.57412e-15
-1.39459e-16
-1.64434e-15
7.86506e-17
-1.66651e-15
2.63231e-16
-1.52418e-15
1.05653e-16
-1.50012e-15
7.58695e-17
-1.49137e-15
1.14274e-16
-1.44615e-15
1.19919e-16
-1.33382e-15
1.54317e-16
-1.20824e-15
1.40121e-16
-1.24314e-15
8.94489e-17
-1.35362e-15
1.20923e-16
-1.34265e-15
4.02501e-17
-1.25679e-15
-1.88381e-17
-1.27208e-15
3.05106e-17
-1.28996e-15
2.96719e-17
-1.25524e-15
-4.06019e-17
-1.16805e-15
-6.92217e-17
-1.155e-15
-9.27751e-18
-1.12756e-15
7.28789e-18
-9.39443e-16
-2.32959e-17
-7.65851e-16
-2.18131e-17
-7.30161e-16
1.24237e-16
-7.34568e-16
1.8515e-16
-7.11301e-16
1.28268e-16
-7.44454e-16
1.51183e-16
-6.96131e-16
1.4353e-16
-5.3377e-16
7.79765e-17
-4.45093e-16
1.07597e-16
-4.24682e-16
1.33753e-16
-4.32701e-16
1.19646e-16
-4.14468e-16
1.24696e-16
-3.49402e-16
8.11416e-17
-2.77065e-16
6.33547e-17
-2.02543e-16
7.86663e-17
-1.34279e-16
6.05376e-17
-7.8063e-17
6.24889e-17
-2.55582e-17
5.30432e-17
3.03502e-17
5.76093e-17
1.69373e-16
6.43924e-17
3.3069e-16
9.90626e-17
4.62953e-16
1.70589e-16
5.66727e-16
2.06675e-16
6.21404e-16
3.08936e-16
7.01874e-16
3.12033e-16
7.16961e-16
3.0418e-16
7.53868e-16
1.26337e-16
7.73941e-16
1.87442e-16
7.80143e-16
1.69004e-16
7.97387e-16
4.58066e-17
8.10998e-16
1.618e-17
9.18477e-16
5.74573e-17
1.08777e-15
1.37469e-16
1.17737e-15
2.41663e-16
1.26866e-15
2.0886e-16
1.36777e-15
2.03632e-16
1.42926e-15
2.89912e-16
1.34902e-15
3.81629e-16
1.20591e-15
1.77126e-16
1.09661e-15
-2.58453e-17
1.0425e-15
8.54978e-17
1.25771e-15
5.95765e-17
1.65973e-15
-2.82576e-16
1.93201e-15
-1.9469e-16
2.08271e-15
9.44274e-17
2.23889e-15
3.86774e-17
2.26621e-15
9.38368e-17
2.32105e-15
1.35433e-16
2.3413e-15
2.78057e-16
2.26151e-15
3.18717e-16
2.55722e-15
-7.23306e-17
2.77175e-15
-9.7291e-17
2.88915e-15
3.61337e-17
2.74586e-15
1.675e-16
2.32571e-15
3.0359e-16
2.24659e-15
1.7707e-16
2.53982e-15
-1.64534e-17
2.57616e-15
5.16258e-17
2.4117e-15
1.09816e-16
2.32127e-15
1.07084e-16
2.56894e-15
-9.68782e-17
3.24453e-15
-4.42454e-17
3.41729e-15
6.74133e-16
3.05206e-15
6.89075e-16
2.87215e-15
2.00022e-16
2.56082e-15
3.31182e-16
2.20609e-15
3.69315e-16
1.85672e-15
4.57322e-16
1.7271e-15
3.4597e-16
1.90472e-15
-6.03536e-17
2.05582e-15
-5.07539e-16
2.12983e-15
-5.47127e-16
2.48917e-15
-8.98044e-16
3.0544e-15
-8.55035e-16
4.02903e-15
-1.0122e-15
4.72648e-15
-6.20225e-16
4.75027e-15
1.17253e-16
4.14906e-15
5.62426e-16
3.50736e-15
6.18787e-16
3.53756e-15
4.74863e-16
3.65174e-15
4.09568e-16
3.56353e-15
6.41091e-16
3.45438e-15
7.49985e-16
3.4381e-15
5.35958e-16
3.53563e-15
8.22286e-17
3.67663e-15
1.15152e-16
4.05403e-15
3.54774e-17
4.63614e-15
-3.04827e-16
4.77531e-15
-1.99512e-16
4.27532e-15
4.08251e-16
4.12544e-15
3.27477e-16
4.66767e-15
-5.1174e-17
5.09449e-15
1.06889e-16
5.02448e-15
7.78177e-17
4.6569e-15
-9.18793e-18
4.38951e-15
1.21267e-16
4.55367e-15
-1.24658e-16
4.46602e-15
-7.70109e-16
4.26703e-15
-3.64883e-16
4.82931e-15
4.18825e-17
5.68228e-15
-1.42892e-16
6.31224e-15
3.7034e-16
5.82916e-15
1.69214e-15
4.84076e-15
1.1501e-15
4.52768e-15
-9.61187e-17
4.37771e-15
-5.09009e-16
4.49452e-15
-6.1254e-16
4.79839e-15
-6.88603e-16
4.99474e-15
-6.7667e-16
4.98725e-15
-3.22336e-16
5.16771e-15
1.23666e-16
5.31395e-15
6.0769e-16
5.39698e-15
4.2628e-16
6.2544e-15
2.37054e-16
6.42421e-15
1.2358e-15
5.83354e-15
1.18604e-15
6.43527e-15
1.17717e-16
7.13338e-15
1.72228e-16
6.48671e-15
1.1424e-16
5.40489e-15
-3.76949e-16
5.317e-15
-6.93681e-16
6.11333e-15
-6.99444e-16
6.97177e-15
-6.04078e-16
7.68258e-15
-2.55239e-16
7.67165e-15
8.6652e-16
6.96275e-15
1.41038e-15
6.9675e-15
8.40482e-16
7.15002e-15
5.67894e-16
6.85505e-15
7.3494e-16
5.76696e-15
1.13782e-15
5.08594e-15
3.01979e-16
5.63017e-15
-7.48329e-16
6.62736e-15
-8.24258e-16
7.32086e-15
-2.33356e-16
7.07764e-15
3.39093e-16
6.05272e-15
1.18422e-16
5.32492e-15
-9.18796e-16
5.59513e-15
-1.00967e-15
6.26885e-15
-1.65239e-15
6.79137e-15
-6.44535e-16
8.0117e-15
-2.67181e-17
9.21981e-15
-4.54494e-16
9.50798e-15
-9.14409e-16
9.1754e-15
-1.04228e-15
8.89631e-15
-1.21555e-15
9.18479e-15
-5.87764e-16
9.07773e-15
7.8807e-16
8.54303e-15
1.20258e-15
8.61629e-15
9.0288e-16
8.87355e-15
1.77986e-15
8.45376e-15
2.29701e-15
7.83294e-15
9.9262e-16