/*--------------------------------*- C++ -*----------------------------------*\
  =========                 |
  \\      /  F ield         | OpenFOAM: The Open Source CFD Toolbox
   \\    /   O peration     | Website:  https://openfoam.org
    \\  /    A nd           | Version:  7
     \\/     M anipulation  |
\*---------------------------------------------------------------------------*/
FoamFile
{
    version     2.0;
    format      ascii;
    class       volScalarField;
    location    "3000";
    object      rho;
}
// * * * * * * * * * * * * * * * * * * * * * * * * * * * * * * * * * * * * * //

dimensions      [1 -3 0 0 0 0 0];

internalField   nonuniform List<scalar> 
160000
(
22.5677
22.528
16.5755
16.7628
15.2285
15.1728
20.1377
27.8951
20.4001
19.7225
18.5044
17.1187
17.0387
20.0679
18.7157
18.7172
19.143
20.9344
24.7066
24.7088
19.3456
16.857
17.0628
19.6156
18.0974
16.1075
19.3779
19.9312
23.572
23.5737
19.27
15.618
15.6191
18.9043
18.9204
17.1238
18.0301
25.241
25.2436
20.5704
18.7882
17.2607
16.6162
18.4881
20.9095
25.2903
23.8363
18.7059
18.7062
18.7065
17.9494
20.096
21.5227
24.5635
25.398
21.979
21.9808
21.8501
19.6619
19.6633
20.0804
20.6513
20.6529
20.6546
17.8417
17.8431
17.8447
19.6886
20.2247
19.8105
19.813
19.8138
20.5959
21.7321
21.735
21.7366
21.7386
21.5591
21.5598
21.5137
21.5154
21.5173
21.5188
20.709
19.886
19.6136
19.6149
18.9048
18.9063
19.6197
19.5084
19.5089
21.2892
21.3203
21.3236
21.1439
21.318
21.3184
21.3208
21.3218
21.3243
20.2057
20.2071
22.6712
19.8719
19.8734
19.8751
20.6186
22.1812
22.7295
22.8995
22.8989
22.9017
22.9024
20.5589
20.5607
20.9007
22.8075
24.1585
24.1607
24.1623
23.1174
23.8231
23.8252
22.8544
22.4974
21.825
18.7045
17.5936
17.5949
18.7869
19.0641
21.8711
24.1992
24.0435
20.2002
18.2031
18.2045
19.2748
18.9157
18.9174
20.2872
20.2887
21.3617
22.5397
22.5447
22.543
22.5476
22.5461
22.5482
21.3883
21.3893
20.5771
20.5785
20.58
22.2627
22.5808
22.8653
21.7651
20.2396
19.4746
19.2223
17.5227
17.524
18.3506
22.0342
22.0383
21.9744
21.9763
21.0128
21.973
21.9769
19.0093
19.4069
20.0881
20.0883
20.8055
20.4928
20.4943
20.9501
20.9507
21.103
21.7823
21.7835
24.5019
26.0829
23.3218
20.4724
20.4731
22.5587
19.5921
14.4834
13.3678
12.673
12.6765
13.369
20.0716
16.2255
11.1127
11.1211
11.1094
10.9588
10.4144
10.4098
20.9584
21.7164
22.0235
20.3588
18.7722
17.9737
17.641
17.642
17.7522
17.6935
17.6711
17.6721
17.9045
20.5646
20.5645
18.8713
17.9579
17.958
17.9528
19.7427
27.4739
29.3068
29.387
29.3355
23.1135
19.3342
19.3346
24.6733
28.2222
28.2234
27.3498
19.2765
17.9303
17.931
17.9285
18.6975
18.7005
20.5909
26.0805
27.5977
27.8727
27.8762
29.1477
28.0787
17.724
7.29147
4.16077
4.16117
4.16165
5.45664
9.15618
14.1699
14.1704
14.171
23.5125
18.2881
14.1127
14.1128
14.1139
14.1143
22.6027
22.3726
22.3733
22.374
28.5103
28.5119
28.5117
19.4867
15.7338
15.7348
15.7349
17.348
31.6444
31.6477
31.646
23.8025
16.7431
18.2057
19.4656
19.4666
16.3933
15.0454
15.0448
15.0462
15.511
19.9993
20.7211
20.7216
34.2168
38.086
38.0875
38.0888
26.8168
26.8174
29.5782
19.9257
6.29382
2.85999
2.28914
2.29125
2.29
2.29181
2.34594
2.9474
3.7865
5.97778
9.97253
12.6765
18.6361
25.408
25.4048
12.9839
12.983
12.9846
12.9839
15.3239
18.5819
22.3725
36.7439
40.9497
40.9579
18.0054
13.1896
13.1859
13.1904
13.1869
13.1914
13.1896
13.1922
13.1912
13.1931
13.1929
13.194
18.6591
16.8906
11.0472
11.0478
11.0479
11.0481
11.0483
37.377
37.3783
37.386
29.3885
15.4211
15.4179
15.4215
15.4204
18.0656
24.998
24.9983
24.9986
21.6845
20.723
20.7274
20.7235
20.7277
22.5867
25.9065
27.0837
27.0895
27.0847
27.0879
27.0859
27.0948
23.2808
18.0442
18.0423
18.0441
18.0433
18.0443
18.0438
18.0446
20.5764
21.6696
24.5725
24.5726
24.5728
25.7774
25.9843
25.9847
25.9849
21.7212
21.2694
21.2695
21.8349
21.5787
19.7534
18.9264
13.3377
10.8598
7.4085
4.80149
4.8022
4.8022
4.80234
18.015
18.0158
26.4521
15.9448
15.6849
16.0136
18.0409
19.2046
19.2056
19.5766
20.002
20.9615
20.6709
20.0684
21.525
21.526
19.9261
18.3457
18.0412
18.3847
19.3445
18.9992
18.786
22.0086
22.1066
18.987
22.599
22.601
22.2475
22.0709
21.7988
16.8643
15.6192
16.092
20.117
23.5148
23.5184
19.9272
18.5959
18.5967
18.34
17.2757
17.104
18.3797
22.6098
25.2906
25.2928
18.6849
17.6372
17.6392
18.2292
19.3557
20.6717
25.3961
25.3972
23.4124
23.4149
20.6542
19.6618
20.6219
20.6495
20.6513
20.6529
19.9397
19.9413
19.9431
17.8449
17.8465
20.2237
20.909
20.9108
20.9124
18.5777
18.579
18.5804
18.5821
19.7919
20.1178
20.1189
21.4466
21.5155
20.4839
19.5144
19.5155
20.6376
20.6458
20.6476
19.1319
19.3745
20.8111
21.3152
21.3177
21.3187
21.3218
19.948
20.9667
21.3137
20.3011
20.1332
17.8635
17.8638
20.3769
20.2074
23.8733
23.8765
19.8736
19.875
19.8768
20.7461
20.6258
20.6275
20.6292
21.675
22.8647
23.7759
23.7779
23.3482
23.2548
22.0968
23.4781
24.1624
22.6704
20.6121
20.6755
20.3962
20.1782
20.0904
18.816
18.9578
18.5211
19.3325
19.0638
24.5306
24.817
24.819
22.7393
25.2003
23.6677
19.503
20.6982
22.2152
22.4619
22.5366
22.538
22.5414
22.1823
21.0188
20.6351
20.7315
19.3883
19.39
19.6508
20.7651
22.4226
22.6115
22.862
22.864
22.8651
20.4396
20.5161
20.5171
20.3843
18.1554
17.955
18.2135
21.1075
22.0379
21.309
20.9312
17.7729
17.7737
18.1656
18.1536
20.3533
22.0171
23.7472
24.2355
22.5682
22.6658
21.0197
21.2192
20.152
20.622
22.4037
27.7044
27.9206
25.1591
23.1263
27.6042
27.6013
20.9951
12.8265
9.10541
9.96408
12.1957
18.4757
16.2442
16.2351
19.8044
15.5313
10.6454
10.1628
11.5459
15.826
22.5618
23.0796
23.0806
19.2549
18.0062
17.805
17.792
17.6487
18.6632
22.4715
23.4511
21.919
23.4068
19.5884
17.8425
17.8438
17.8318
17.8323
19.2073
25.323
29.3173
29.3768
29.3872
29.3882
29.3895
29.3905
29.3917
29.3794
29.306
20.1716
17.9728
17.9313
17.9276
17.9284
17.9273
17.9263
17.927
21.5236
29.6129
29.6159
29.6601
45.2127
49.0471
13.6622
4.15963
4.16033
4.16076
4.16128
7.37225
12.1328
14.3735
15.1705
14.8863
22.2203
23.6678
15.1639
14.1122
14.1132
14.1137
19.8042
24.4494
22.6041
22.3733
28.5094
28.5112
28.511
22.0631
15.733
15.7343
15.7344
15.7353
22.8191
31.6469
31.6456
31.6483
19.2142
16.7431
18.9707
18.9731
15.0429
15.0449
15.0442
15.0455
15.0459
15.4947
16.6069
17.8758
26.4336
33.8649
33.2736
33.2751
81.629
94.1274
60.4591
105.498
101.705
7.16778
2.28909
2.29071
2.29049
2.6802
4.23159
6.64425
9.55061
12.8371
16.2239
19.2078
22.0422
25.4075
25.4084
25.2774
12.9824
12.9843
12.9836
15.0212
19.5836
24.6071
35.9702
40.9478
40.9561
40.9488
14.1648
13.1857
13.1898
13.189
13.1907
14.3374
18.8195
18.5157
18.4675
18.9048
16.133
16.0114
21.3111
21.1737
15.3888
16.6247
20.0093
15.3695
24.2458
37.3772
37.3849
37.3779
16.2489
15.4173
15.4209
15.4197
15.4216
19.6478
24.9981
24.9983
24.9986
24.9989
24.9991
24.9991
24.9993
24.9626
25.8802
27.0829
27.087
27.0839
27.0899
22.8007
19.3183
19.3172
19.3186
20.4182
21.1572
21.3017
19.897
20.3429
19.6223
22.6739
22.6744
22.6745
24.5719
23.9285
23.9287
25.5224
24.5318
24.5315
25.9861
22.1811
21.7112
26.8654
26.8641
24.1318
24.1323
24.1323
17.9025
16.6971
12.6198
5.53784
4.80215
4.80233
4.80244
18.015
20.8424
26.6008
26.5152
26.4184
19.3098
21.4206
21.9502
19.923
20.1269
21.7224
21.7233
20.6096
21.4132
21.5247
20.8892
20.8909
20.6925
18.041
18.0423
19.1732
20.5461
20.5924
20.6901
22.106
23.3137
23.3155
22.0109
23.1886
23.1905
19.9006
19.3912
17.7674
18.0315
18.0318
19.8574
22.0443
21.4425
21.0676
20.4788
20.7043
20.758
20.6423
18.0108
18.1041
20.0137
17.6877
18.3585
19.6316
19.6332
19.6348
19.6036
20.3532
22.5215
22.5651
21.2242
22.6131
21.6518
21.6524
21.6531
19.2508
18.7641
18.7654
18.1907
16.5717
16.5731
18.0129
19.097
19.0976
19.8863
19.5614
19.5629
19.6574
19.6589
18.6555
19.9957
20.5937
21.6805
21.7617
21.7636
19.8707
19.6443
19.6449
20.4398
20.6378
19.9046
19.9071
19.905
19.9082
18.4614
18.4644
21.1034
19.0965
19.0971
19.9484
19.2309
19.4818
20.5824
21.1644
21.2888
21.3525
23.9993
24.209
23.5511
23.5213
20.6004
20.5514
19.911
19.9125
21.9803
21.9988
21.9996
22.002
20.7408
22.2527
23.12
22.4179
21.3625
19.1762
18.3943
18.1421
19.1485
20.1773
20.4838
20.3576
20.6823
20.2822
20.6321
21.6938
21.6958
21.0211
22.4243
24.5315
23.9582
23.6547
23.6564
25.2445
24.6446
22.2688
20.2571
19.5058
20.5644
21.1586
21.1584
22.0563
22.4791
21.5076
20.6345
20.6531
19.9204
20.7785
20.7799
19.371
19.9016
21.8093
21.4393
21.0956
19.9643
18.7194
18.7211
19.5385
22.4632
23.0392
23.0804
21.0375
19.7493
19.751
21.3547
23.672
19.6521
17.788
17.8179
18.1548
18.1224
18.1225
23.9996
24.969
24.9707
24.9719
24.8728
22.1836
18.9055
20.6872
24.4079
25.1042
29.0737
30.4913
29.3847
16.7638
12.3854
12.2691
10.3662
6.85252
9.67381
17.3947
20.1215
21.0811
21.5507
21.6126
15.1176
13.3915
15.2117
19.4286
24.1229
23.3034
18.2706
18.2725
18.0624
18.1051
18.7304
18.8296
19.3056
22.8474
24.9383
24.4247
24.3878
24.3525
24.2992
18.0347
17.8434
18.5261
24.0418
29.3376
29.3798
29.3847
29.3861
29.387
29.3834
29.3893
29.3907
29.3916
29.3531
22.0264
14.7078
19.1229
24.2176
19.661
18.0431
21.9903
24.2789
24.2868
24.289
24.2909
29.0945
42.0504
49.8198
49.8213
9.38497
4.15989
4.16035
4.1609
6.45067
12.198
16.5055
17.2802
17.3549
19.475
23.6672
23.6679
18.9995
14.1128
14.1131
18.3238
24.4486
24.4494
24.4502
25.861
28.5101
28.5103
20.2873
20.2872
22.5134
22.5134
22.4384
21.2966
25.4704
31.6453
31.6482
29.4591
15.8724
15.0425
15.0437
15.0429
15.0445
15.0444
15.9091
18.8526
20.7232
21.7181
21.7753
21.7757
21.728
22.6508
42.6534
110.624
110.615
110.657
110.596
110.657
110.589
28.5501
2.326
2.29058
3.61026
6.62282
12.5722
20.5959
22.1969
19.5341
19.931
23.1954
25.2866
25.4079
25.4087
14.4264
12.9843
12.984
16.9289
23.9404
27.1584
36.1015
40.944
40.9528
40.947
24.2276
13.188
13.1896
14.3998
14.9936
14.1617
16.9732
22.1329
22.1331
22.1333
22.6305
21.7402
24.4952
33.3144
34.4073
34.4061
34.4086
31.8443
31.0017
37.3741
37.3797
31.3838
21.8818
15.418
15.4211
15.4195
16.4659
20.4977
24.9968
24.9971
21.6303
21.4699
24.8192
24.5787
22.7506
22.7509
22.7511
27.082
27.0847
27.0831
27.089
23.1969
23.2157
25.1253
22.2131
26.0798
37.8158
37.8157
37.8194
33.6361
20.8768
17.2614
17.2626
17.2619
19.4467
24.179
23.6606
25.5363
26.8092
26.8087
26.81
25.9856
26.8663
26.8659
26.8657
22.8393
22.4934
24.1323
24.1323
24.1105
20.4921
11.9617
5.85837
4.8024
4.80243
4.80244
18.9761
20.2317
23.2848
23.2113
22.383
22.3842
21.5625
21.9501
19.1001
18.798
18.4557
18.3269
19.678
19.302
20.8445
18.882
17.8617
17.8628
18.0408
19.6137
18.7326
18.7334
18.7344
18.0119
21.5363
23.314
21.6165
22.011
18.7215
15.7715
19.085
20.6242
20.6264
19.9383
19.2452
22.83
22.8309
22.6753
21.0674
21.9896
22.1988
22.201
19.378
18.0108
18.0122
17.5833
17.585
18.0108
18.9722
18.7602
18.7616
19.5396
18.2563
18.2577
18.2592
18.5052
18.0395
18.0409
18.0424
18.9553
19.2705
19.2724
18.0217
15.6114
17.3823
20.5551
20.5573
19.3879
22.287
25.4405
22.8481
19.885
19.2436
19.0653
19.067
19.9967
16.3423
16.3436
19.3558
16.3868
20.7477
21.999
22.0016
20.1992
20.2008
21.2403
21.9199
21.9231
18.8084
18.8107
18.4645
18.5263
19.9406
19.9432
18.6634
19.2307
17.0718
15.8993
17.1137
20.6713
22.1049
22.7961
28.2433
28.2451
26.0699
25.2199
22.5546
20.1299
19.9267
20.4256
19.4039
20.7366
20.6691
19.3549
20.5411
22.8768
22.8645
21.0809
19.3718
18.3781
17.2948
16.6818
16.6833
17.3183
19.2383
20.8238
20.8252
20.8271
19.8972
20.386
19.6345
20.5264
21.4498
26.5587
31.2042
31.9335
28.0994
21.8182
18.3466
18.0917
18.0935
19.2076
20.4856
21.4948
21.8139
22.479
22.4806
22.4821
20.9898
21.6006
19.6765
18.6301
18.632
19.0479
21.2506
22.2724
23.2169
23.2186
23.22
22.7951
23.0068
23.2404
23.2419
23.2435
18.6592
19.866
26.5671
29.2566
33.109
33.111
33.1128
28.5209
26.1682
26.1058
20.7971
19.931
19.9328
20.0274
21.9798
23.8781
19.0674
18.906
19.6256
24.6592
28.3521
30.6198
27.0063
14.359
14.3698
15.0009
15.019
8.27336
9.36446
16.4797
17.8508
18.4904
19.8755
21.5969
21.613
21.4019
20.0245
20.2018
20.7821
25.7995
26.1644
26.0055
19.0352
17.9931
17.9306
17.9316
18.037
20.9375
25.1634
25.2888
25.1258
24.199
24.0964
23.6503
21.7762
22.229
27.2213
29.3142
29.3586
29.3797
29.3642
21.9621
20.175
20.7642
23.1324
25.9197
29.3277
24.4297
15.6693
14.532
24.3
31.2858
31.3754
31.3868
31.3881
22.9833
20.6564
20.6573
26.9899
39.6532
49.8184
49.8201
49.8215
10.1252
4.15991
4.1605
5.26127
10.0757
14.6846
16.4756
18.3255
20.5687
23.6666
23.6673
23.668
20.4448
15.4205
17.4921
23.8804
24.4485
24.4493
18.9343
17.8838
28.5095
28.5115
28.5111
28.5133
22.5131
19.7022
19.7021
19.7034
31.0222
31.6474
31.6461
31.6491
23.0153
15.0435
15.0434
15.0442
16.0416
18.1032
18.1486
18.1491
19.071
20.0887
20.0892
20.0898
20.0904
35.8111
110.608
110.604
110.675
110.594
76.3416
74.2031
110.578
110.561
39.3345
18.5064
17.5029
22.6771
28.0464
28.047
28.0474
26.8039
24.4565
20.9704
20.9708
23.7221
25.998
22.6565
18.1346
15.1473
15.1477
17.5163
30.8057
40.9402
40.9491
37.3994
13.1902
13.1896
13.1903
14.0569
17.8002
22.8554
22.1783
19.473
19.3724
21.3235
23.6368
34.4041
34.4084
34.4049
34.4132
34.4057
34.4131
32.7055
26.1782
26.179
34.1211
37.3744
26.1211
15.4193
15.4213
15.4204
15.4213
16.944
18.7366
20.5361
22.6896
21.9133
21.4697
22.0222
24.573
25.6225
25.6229
25.6233
25.6237
21.3092
21.2531
22.736
18.5649
16.6693
27.1208
30.0947
36.2908
37.8155
37.8191
37.8158
36.4983
25.1528
17.2625
17.2618
17.2627
20.8633
22.2056
21.81
21.81
26.8083
26.8095
26.809
26.8103
26.8666
24.791
21.7372
18.7525
17.7983
17.7986
20.0447
24.1103
20.94
16.8366
13.1231
8.92905
4.80244
4.80244
20.0353
24.4851
23.5693
20.4343
19.8307
19.8506
18.479
18.4796
17.9184
17.9191
18.543
18.3081
18.3091
18.7328
20.5381
18.1438
18.1441
19.0509
19.8122
20.4056
20.4069
18.9165
18.0108
18.012
20.2603
18.4627
18.427
20.8899
16.3128
15.072
15.0733
17.8998
15.4212
18.2673
18.3922
19.0636
21.747
21.9171
25.2344
25.2352
20.2079
20.2091
20.2984
19.2633
18.4343
19.9763
18.3022
19.0921
19.3301
19.3316
18.7615
18.9553
18.9568
18.356
19.1099
20.057
19.031
19.4831
19.6154
19.6172
17.9928
16.0093
15.1464
15.1482
15.9774
14.7222
18.546
20.2031
21.0302
27.3596
27.362
25.0761
25.4137
23.7111
19.9343
19.3902
16.6322
15.7006
15.7019
16.3395
19.8295
19.8299
21.5248
21.9489
22.0338
22.1462
22.1483
21.0183
20.0876
19.848
19.8496
18.9785
19.5099
19.9423
18.4822
14.9683
12.7357
12.909
13.4213
11.5672
13.2802
18.1471
21.542
27.2892
30.1037
30.1275
30.131
27.4903
22.6692
20.7305
18.8081
17.7673
17.7684
17.7702
17.9466
21.328
20.2565
21.3454
21.5392
19.415
19.6302
18.5453
18.3806
18.3204
18.8181
19.6797
19.4357
19.0164
19.1391
18.7224
14.0177
11.7658
11.0179
12.4307
22.8636
31.9314
34.4721
32.2645
32.2188
30.486
24.0838
18.6539
18.656
18.7432
20.2243
21.6492
21.8574
21.4473
22.2121
22.2137
22.2152
21.6897
21.2448
21.5541
19.4262
18.4355
18.4371
18.764
19.4009
21.7578
22.3745
21.0715
13.5633
10.5861
10.3585
9.629
10.7874
24.4713
31.249
33.1109
32.9363
29.1362
25.386
25.0006
24.7934
22.0294
19.9322
20.085
21.8051
23.8908
23.3565
19.0491
17.6753
17.6772
24.5752
21.2697
14.3599
14.3702
18.2309
18.2426
9.21201
7.3224
14.2847
18.2347
17.985
18.0117
18.0296
20.8578
20.0419
20.6163
14.1853
15.4131
20.2389
25.8152
26.2885
26.2984
22.7941
19.3724
18.9431
20.0436
23.7975
25.0892
25.2876
25.2889
19.4105
18.2703
21.001
25.348
27.228
27.2431
27.2442
25.9673
22.7995
19.4145
19.4155
19.4176
20.1529
23.3227
24.3609
23.4824
18.0844
12.5579
12.5327
12.56
23.9107
31.2817
30.8059
30.8068
33.8515
43.5594
43.5609
41.9417
39.6974
49.8171
49.8188
49.8202
49.8222
8.91182
4.16007
4.55737
8.41556
13.7993
18.2877
21.1174
23.6654
23.666
23.6667
23.6674
22.6218
18.7014
17.1681
17.9857
21.0733
20.7573
11.2903
11.2907
11.2912
28.5104
28.5103
22.9183
19.7002
19.7016
19.7015
21.0606
31.6436
31.6466
31.6453
31.6485
26.4226
15.0434
15.0435
16.2675
18.4275
17.862
17.8625
20.1915
21.1427
21.1433
21.1438
20.0893
20.2366
31.177
109.504
110.582
110.646
39.3914
8.01084
8.01017
8.67759
17.7158
9.11445
17.6939
25.1495
25.152
25.1506
25.0198
24.0416
24.0425
24.4514
26.7132
28.6679
32.05
32.0549
32.0511
32.0567
32.0521
31.8483
29.2772
32.5517
33.7225
33.7302
13.1888
13.1903
13.1896
13.1905
13.4485
17.1595
23.634
23.7218
18.5486
11.2663
11.2669
11.2669
11.2672
20.645
32.5133
34.4056
34.4053
34.4119
31.1754
31.1791
34.0555
34.0568
34.0579
20.1373
15.4219
15.4226
17.7113
19.8417
20.0389
23.1093
27.5896
25.6061
20.5819
20.5821
20.5823
22.891
25.0772
25.6225
25.6229
25.6232
23.5464
18.5062
13.8658
8.7725
8.77259
8.7727
18.2007
30.3915
30.7306
34.285
37.8166
34.9898
25.134
25.1343
25.1353
31.3388
26.7787
24.5877
26.8062
26.8075
26.8075
26.809
26.8079
20.5702
21.8734
28.0922
28.0922
27.1445
23.1372
19.8688
17.7978
17.7982
17.7981
17.7982
20.7306
17.6586
11.0241
5.02076
4.80258
17.7068
24.4053
20.3571
19.1503
19.1512
21.1673
19.2974
19.4958
19.2596
20.3584
20.4246
20.4254
20.4267
20.1572
19.8688
20.5647
20.5656
19.6263
19.6175
20.194
18.9148
18.9151
18.9168
18.0119
18.0132
19.5968
18.289
18.2904
15.7316
15.7321
15.6462
15.8759
14.7924
18.7824
19.9581
20.5274
23.1175
22.881
25.2335
25.2361
25.077
23.587
20.7989
19.2632
19.4334
20.4611
20.0287
19.4924
18.7586
18.76
18.7615
18.6129
18.6143
19.013
19.826
20.0567
20.3227
20.3243
18.9103
19.0439
19.0456
15.4537
15.3313
15.1477
15.5453
14.7226
19.0712
18.7044
18.7044
25.3959
27.1798
25.1178
25.4136
24.6215
19.935
20.2692
20.2711
18.5221
17.3406
16.5594
17.812
20.8081
21.5271
21.2324
21.2346
21.814
20.4074
20.3192
20.3204
20.3215
18.756
18.2085
19.1887
19.6226
15.0917
13.7898
12.3933
11.2219
11.223
11.5674
14.531
20.9711
26.2393
30.1265
30.1258
30.1293
26.5947
23.4477
21.2438
19.6073
19.608
19.2636
18.0919
19.9663
20.1131
18.8487
18.851
19.8739
22.2796
24.4926
24.4943
24.5231
24.5251
23.5452
23.5476
20.904
19.7422
18.6421
15.3443
11.5388
11.0247
11.0262
11.0183
13.2603
24.3088
31.4846
34.4728
34.4743
34.1409
29.9848
23.8702
20.3888
20.0361
19.6747
20.4133
19.5692
20.3269
21.0216
20.6753
20.4225
20.423
21.1897
22.0927
22.0939
21.6097
18.6148
18.3171
20.4534
22.2528
22.1514
22.5557
21.7237
12.51
10.0386
10.04
9.62908
10.5076
19.0077
31.0376
32.8335
30.0943
29.5145
29.7119
30.481
30.4833
23.1183
21.6814
21.6694
23.4152
23.8901
22.3393
19.3309
20.6641
26.1742
12.1971
11.2648
16.3284
19.6592
19.6818
10.7726
7.42842
13.5744
21.5205
23.6132
20.016
18.0721
18.0293
18.0977
14.4808
12.9131
13.1236
14.9026
20.2912
25.0782
26.2943
26.3016
25.1821
23.9431
23.4648
23.7703
25.2644
25.2636
24.4531
19.0537
18.2433
18.2374
21.2405
25.1549
20.76
18.3851
18.3683
18.3688
18.8048
21.8591
24.3692
24.3702
24.2078
24.4121
24.3608
19.1281
12.57
12.5484
12.5316
12.5433
21.9848
30.0032
30.0378
34.5752
44.2997
47.0501
41.1807
41.1814
49.8145
49.8174
42.0813
9.58488
8.17582
7.87228
6.94144
8.27108
11.4364
16.1297
22.462
24.3832
24.3839
22.9511
18.9796
18.9756
18.9762
18.9769
23.3085
24.3899
24.3902
13.3659
11.2902
11.2907
11.2912
28.5097
28.5115
19.7051
19.701
19.7008
19.7022
26.2164
31.6448
31.6444
31.6479
30.6859
18.2622
15.8937
18.9858
24.4916
24.9178
24.9186
24.919
23.0152
19.5345
19.5352
22.5714
26.6223
32.6213
68.1958
109.484
20.469
8.00823
8.01052
8.00963
8.01093
8.0105
8.01151
8.01182
12.3901
24.6541
25.1436
24.0397
24.0405
24.0414
24.0421
29.4407
32.0484
32.0488
32.0505
29.1848
16.9828
16.9827
16.9835
16.9837
21.8182
30.7987
33.6483
25.7295
13.794
13.1898
13.1906
13.6977
18.3725
23.7195
23.721
23.7202
16.2648
11.2662
11.2666
11.267
11.2671
19.3049
31.4102
29.3056
29.3074
29.305
29.3079
32.9109
32.9117
32.6144
32.615
32.6151
25.964
16.016
16.0174
20.959
27.9783
27.9784
27.5901
25.7732
20.5819
20.5821
20.5823
20.6761
21.0961
20.9918
20.992
21.1161
21.197
13.7219
8.77161
8.77248
8.7726
8.77269
12.8085
24.9529
37.817
37.8164
37.8176
37.8167
37.8214
37.8169
37.82
36.6276
26.0232
19.4929
18.5451
18.5448
18.5455
18.5449
20.5092
20.509
20.509
26.4827
28.0937
28.0922
28.0932
28.0913
25.7382
24.6689
19.2966
20.9985
20.9986
20.9986
13.7244
5.92683
4.80272
20.94
20.3376
18.9817
19.0087
19.7082
21.1676
20.7058
20.8911
20.8918
21.1579
20.1442
19.3852
19.6124
19.9038
19.1124
19.159
20.0121
20.4894
19.6175
20.5071
20.7522
20.7542
18.9165
18.9757
20.7658
20.7685
19.9434
20.0213
18.0592
16.9207
15.6458
15.9405
14.7926
17.1987
17.2599
23.2238
25.2307
25.2316
25.2344
24.0209
24.1562
24.1582
22.9371
19.4208
20.5558
21.051
19.0801
19.0815
18.7586
18.7601
18.7615
18.8801
18.6143
20.0014
20.0034
19.3769
20.3227
19.8712
18.9106
18.9633
17.6308
15.4852
15.3311
16.694
18.4171
16.2251
19.0724
21.5341
24.3047
26.2497
24.2738
24.2747
24.2756
24.2763
23.9317
22.0553
18.0778
18.0791
18.0165
16.8627
17.0492
18.6295
18.1225
21.0319
21.8803
21.8822
20.5122
18.9983
18.1715
18.1729
18.2067
18.2082
19.2048
18.8343
17.0316
14.6458
14.924
17.678
16.3648
11.5672
15.3513
21.4632
24.9125
30.1236
30.128
30.128
29.4089
24.2977
21.424
20.7488
18.7786
18.6986
20.6362
21.7138
21.7156
20.67
19.6071
22.3347
22.8909
23.041
21.2308
21.1643
20.7152
21.0173
22.8253
21.8233
19.6421
19.4388
18.3321
15.6671
12.4803
11.4175
11.0179
12.3984
25.0987
27.9224
34.2007
34.4751
31.6016
25.0733
23.6128
23.3031
23.238
22.9332
21.0022
18.0761
18.0783
17.9497
17.9503
20.1741
22.0871
22.0883
21.8163
21.0376
18.615
18.5191
18.3174
21.6345
22.2919
22.1526
22.7447
22.7471
16.1633
10.8107
10.1041
9.62906
10.9628
22.3566
31.1169
33.3493
33.5365
33.5394
30.8876
29.8199
30.2234
26.1748
22.0586
20.3124
18.8546
18.2181
18.2195
20.9217
25.4538
10.3183
10.3089
11.2759
19.6655
19.6881
9.09175
6.88379
11.3849
17.3534
23.3204
23.6362
24.1377
24.1388
20.8256
17.6925
13.226
12.9131
13.1957
13.7057
16.5769
20.8059
25.6683
26.4219
26.4586
26.4598
25.8009
25.5043
25.3439
20.9704
17.6269
17.6273
18.075
18.2229
19.2799
23.63
23.6491
23.7141
21.9178
21.0735
20.0423
20.0806
23.3505
24.3678
24.4287
24.4311
24.4323
21.4044
13.3134
12.5485
12.5316
12.5508
25.2649
37.7491
38.3891
46.7666
46.9863
47.0597
47.0694
47.0712
48.067
28.2176
12.6309
8.3218
8.31056
8.3488
9.44507
11.3379
14.522
19.5634
24.265
24.3831
24.384
24.3847
24.3858
24.3864
24.3874
24.388
24.3894
24.3896
23.7057
13.2085
11.2902
11.2907
11.2912
21.1791
19.8182
19.225
19.962
22.7599
24.9225
30.1319
31.6432
31.647
31.6449
31.6466
27.3023
23.7845
19.6394
19.6401
19.7446
20.7671
18.8166
18.5031
18.5036
19.6723
23.0912
24.6053
31.5467
68.1905
49.6414
8.00833
8.01023
8.00935
8.01088
8.52766
8.52783
11.3528
9.75262
16.0172
22.5847
22.506
24.0395
25.3675
24.7383
27.4249
32.0481
32.0473
32.0501
18.2755
16.9823
16.9823
16.983
18.7974
23.6095
27.6757
28.2233
25.6585
25.6581
25.6587
22.3603
17.9486
16.4012
18.0897
22.6857
23.7199
23.7219
15.42
11.2658
11.2667
11.2668
11.2671
17.0855
31.5207
32.509
29.8371
29.3076
29.8155
32.9104
32.9112
32.871
30.4217
30.5791
24.2243
16.0172
16.0175
19.6393
27.9782
27.9791
26.7821
20.5824
20.5826
20.838
24.5041
24.5056
24.5046
22.4692
23.6867
24.4698
24.47
23.1559
17.0051
8.77249
8.77259
8.7727
18.4555
30.422
30.4196
30.4199
33.6899
37.8175
37.8169
35.0989
29.1611
29.1613
29.213
29.2123
22.139
18.5454
18.5448
23.4856
26.3041
24.2495
23.8434
28.0949
28.0928
20.0563
18.7172
18.7132
18.7173
18.7144
18.7173
18.7167
20.9986
20.427
13.935
5.94526
4.80295
18.5911
19.9856
18.9516
21.5263
21.5275
19.8917
19.8925
19.8937
20.8425
21.1579
21.159
19.093
19.0938
19.0947
19.0956
18.6482
19.3833
20.605
20.6062
20.4425
20.4442
20.4449
20.4659
20.1821
20.1318
19.9586
19.9597
20.1189
18.6006
18.6024
17.0946
15.9998
17.7643
21.0043
21.0043
24.4724
25.0974
23.4692
23.512
24.0205
23.3088
23.3078
23.3115
22.7326
22.7343
21.8586
20.4352
19.7428
20.0794
20.0814
19.0457
19.047
19.0483
18.2815
18.283
18.5417
19.96
19.9619
19.1363
20.137
20.1387
18.4615
17.669
17.2691
18.4173
20.4866
22.601
23.4172
26.2477
26.249
24.3685
26.816
26.1907
22.9259
20.4086
20.4101
20.7091
20.7918
20.6997
20.4782
19.6479
18.1209
18.1229
18.4079
18.6084
19.0961
18.9017
18.9033
19.3505
19.1513
18.5088
19.0655
19.9091
20.1313
20.133
20.1347
20.1363
17.6772
17.4611
18.2693
18.8776
19.6091
24.6244
27.1845
26.4773
26.4229
24.7122
20.8882
19.6093
18.9643
18.5604
17.9423
17.9431
19.9104
21.2067
20.5286
19.7633
21.5258
22.4827
20.782
20.7831
21.4857
19.6044
18.9815
18.9826
19.8234
18.1928
17.8348
18.7357
18.7386
16.3993
15.0999
22.4378
29.2994
32.066
33.7963
33.7987
33.8002
30.9667
24.7816
24.5813
24.5834
22.5563
19.4829
17.716
18.4967
18.4518
20.7539
21.4547
21.7734
21.4637
21.065
21.0664
21.7093
21.7798
18.784
19.5266
21.5818
22.47
22.8387
22.8413
22.5304
18.353
20.1402
21.264
21.2665
20.607
28.6891
30.3283
30.861
30.8669
32.4656
31.3508
26.3132
23.2134
21.783
20.6835
18.2234
18.2249
18.6445
25.9858
28.6197
10.3187
10.3081
10.3215
14.5783
19.6872
8.81265
7.06802
12.7268
18.9231
20.7844
21.048
22.6842
23.6132
24.1389
24.14
21.8191
18.539
16.3594
14.8651
16.5835
17.7929
21.606
25.8706
26.2296
26.3262
26.4598
26.3817
18.4014
17.6634
17.5928
17.5515
19.2283
21.6216
22.8929
23.6902
23.7152
23.7169
23.7179
23.2857
21.8253
22.368
23.9923
24.0348
24.1273
22.7609
23.6245
25.3603
25.3356
21.4568
20.0099
26.849
30.0911
30.1013
30.2029
32.8831
46.7571
42.2504
21.4165
20.0366
21.555
23.1298
23.6448
21.2182
17.5551
14.6035
13.546
14.1408
14.9541
16.1673
17.9226
19.4833
22.1286
24.3839
24.3852
24.3856
24.387
24.3872
24.3886
24.3889
23.1798
16.783
16.4107
16.4112
16.4118
16.4123
15.858
15.8583
19.2252
23.536
23.5157
23.5164
24.001
29.1436
31.644
30.6877
26.9988
26.001
26.0016
24.2294
21.9892
21.582
20.812
19.1068
20.7112
25.2492
25.2501
25.2511
25.2519
34.1208
68.1849
35.6816
8.00988
8.00918
8.01036
8.01044
8.5016
11.053
17.9388
23.5119
23.5125
23.513
22.5006
22.5011
26.791
32.0456
32.048
32.0467
32.0498
29.0722
16.9823
16.9823
19.1765
21.229
18.7972
18.7977
18.7982
21.7617
25.6587
25.6594
25.6589
25.6606
22.1937
19.4368
21.6087
23.7193
23.7211
21.7715
12.2079
11.2666
14.28
19.4759
22.79
32.5049
32.5093
32.5062
32.5109
32.5074
32.5096
32.5087
22.3114
20.1619
20.1622
20.1624
17.6612
16.0182
17.1887
23.8929
27.9785
27.9787
27.6982
22.3366
21.25
24.5038
24.506
24.5044
24.5063
18.5265
18.2778
19.5216
24.4709
24.4856
23.3589
16.6921
13.707
13.9625
27.5346
37.8161
37.8176
34.5295
37.8173
37.8169
37.8227
37.8171
34.7871
29.1613
29.2138
25.4624
18.546
18.5454
25.2136
26.304
26.307
28.0925
28.0942
28.0932
28.0945
23.9417
27.082
27.0811
27.0807
22.6278
22.6284
22.6281
20.383
12.8319
7.99804
4.80339
4.80322
17.432
19.0384
18.4746
19.3414
21.0723
21.0737
20.7512
19.99
18.9469
18.8396
20.527
19.9153
19.4391
19.44
18.4283
18.5419
20.1525
20.1538
20.1304
22.4155
22.4167
21.6316
21.8858
21.8868
20.0996
20.3864
20.3878
20.1189
17.4214
16.8614
16.8628
17.5317
17.5316
18.7488
20.0467
20.2317
24.6689
22.2295
22.23
24.0209
23.35
20.3846
19.1543
18.8996
18.8584
18.7499
18.9431
18.595
18.5966
19.8782
20.9442
18.7547
18.7568
18.7789
19.1706
19.1716
19.9603
19.9183
19.3434
20.1371
18.7055
15.4512
13.7534
13.527
13.5289
14.0687
18.7131
18.5864
22.0528
27.6108
27.6128
27.615
26.0449
21.7977
20.735
20.7959
20.7978
20.7925
20.4772
20.4784
21.0369
21.0391
19.2688
19.1351
20.7732
20.7564
21.4489
20.7975
19.3938
20.1475
20.1482
19.0664
19.7584
19.7168
18.8557
18.3154
15.2627
14.4455
14.4473
14.4482
16.439
21.8568
24.6278
28.7107
28.7126
28.7149
24.6337
20.216
19.1835
18.9629
19.0329
21.0275
22.0088
22.0108
21.7789
18.8504
18.8521
19.6531
19.6964
21.8376
21.84
21.8411
21.843
21.0454
20.0572
19.9863
18.7398
17.8357
17.7752
15.9294
13.9527
13.9542
13.9635
17.1516
26.0901
30.0865
33.7985
32.575
26.4035
22.9866
22.2302
23.4658
20.9233
18.6149
17.7164
19.5412
22.9887
23.5981
22.9145
21.9614
22.3334
22.3348
22.3364
22.0699
21.7792
21.6416
19.7612
18.6998
18.8691
21.0573
22.601
20.1049
14.2771
12.3691
12.3715
11.873
11.8742
21.6459
31.2792
33.2444
34.4308
34.4327
33.5604
27.461
23.6224
22.7078
18.9684
18.5633
19.16
26.9856
26.3364
10.3252
10.3147
10.3252
15.1888
15.2252
8.40372
6.15552
9.0984
14.7701
20.3967
21.66
21.8779
22.7271
24.1076
24.1124
24.1356
21.1427
14.9092
14.3828
14.3839
16.116
18.7682
21.0414
24.8575
26.2525
26.2215
26.4553
26.4586
26.4598
25.2256
17.8788
17.5514
17.5776
17.6142
17.6147
19.2646
23.5129
23.6702
23.7179
23.4596
22.7593
22.691
21.8555
21.8076
21.8082
22.7213
25.3508
25.3646
25.3658
22.3739
13.8646
11.6557
11.5033
21.4737
34.2893
44.1335
44.9502
20.0651
20.0189
20.0079
20.0052
20.0039
20.0047
22.5858
23.4559
23.4612
22.8022
18.6494
16.5458
16.1675
18.1742
22.4933
24.383
24.3842
24.3847
21.7032
21.3598
24.3874
24.3881
24.3893
14.4245
11.3266
11.3269
11.3275
11.328
11.3285
19.0603
23.5345
23.5353
23.536
23.5367
25.8645
30.0492
30.0495
25.8052
21.7047
21.705
21.8664
23.5723
21.9017
17.3584
17.0004
18.4752
22.9506
25.2476
25.2485
18.1889
18.1895
25.58
61.2816
68.1796
19.9466
8.00905
8.01028
8.01019
9.31607
12.0331
11.6708
11.7241
11.7247
22.3839
30.9736
30.5909
22.5011
22.502
24.4406
32.0461
32.0492
32.0473
32.0505
25.7193
18.6689
19.0972
24.4371
25.206
25.2064
25.2068
24.0766
24.0317
24.3916
24.1007
21.8315
19.437
19.4372
19.8054
22.0659
23.7197
23.7203
17.4316
11.5038
11.5048
11.5052
11.5056
26.8015
32.5053
32.51
24.6992
22.4006
22.4009
23.9011
24.7351
22.6318
23.8685
27.9795
27.9782
27.9821
25.1412
24.7319
27.7079
27.9814
27.979
26.8228
17.0717
17.073
17.4876
17.6496
18.277
18.2774
18.2777
18.2779
21.4897
24.4851
24.485
13.7073
13.7073
13.7075
23.8294
37.8166
37.8166
37.8278
37.817
37.828
29.0579
29.0678
33.0178
34.6388
32.7276
27.7579
25.4743
25.4743
24.2458
20.637
18.6596
18.6616
25.7595
28.094
28.0931
28.093
27.9825
20.6161
20.2516
20.2516
20.2517
22.6278
22.5586
14.9412
13.5701
9.58987
4.84713
23.3933
18.8868
18.4746
18.5444
21.8069
21.0342
19.5859
18.7417
18.8402
18.3869
18.1104
18.1114
18.5002
18.4271
18.4285
18.8203
19.0656
19.9916
18.5248
20.682
20.8444
21.632
20.7298
18.1115
19.0768
20.3865
19.3282
19.3294
19.3761
18.8549
17.0096
19.5228
21.2304
21.2317
20.4113
24.8295
24.8478
24.8495
21.8719
21.8732
21.8749
20.1138
18.9412
18.9428
19.7037
18.7498
19.8856
20.1586
20.9412
20.9428
20.9445
19.642
19.8872
19.8891
18.6741
18.6753
18.9983
19.9184
18.8609
18.8621
18.8635
18.275
17.0401
15.9292
15.2799
17.5907
18.6919
19.2047
25.7227
26.5598
25.1671
23.7774
23.7791
22.5586
19.6433
19.452
19.4536
20.0048
21.9553
22.8534
22.8554
20.8412
19.2681
20.7375
22.0873
22.089
21.5902
20.798
21.7734
21.4728
19.0681
19.0685
19.7586
19.6876
18.7317
18.7029
18.6849
18.6204
20.8196
23.2887
23.4199
24.1814
28.7082
28.7104
26.8863
22.963
20.3711
18.6729
18.6733
19.5745
20.1477
20.1482
20.0442
22.0106
22.0125
19.3799
17.4428
17.773
19.2109
19.3005