/*--------------------------------*- C++ -*----------------------------------*\
  =========                 |
  \\      /  F ield         | OpenFOAM: The Open Source CFD Toolbox
   \\    /   O peration     | Website:  https://openfoam.org
    \\  /    A nd           | Version:  7
     \\/     M anipulation  |
\*---------------------------------------------------------------------------*/
FoamFile
{
    version     2.0;
    format      ascii;
    class       volScalarField;
    location    "3000";
    object      rho1;
}
// * * * * * * * * * * * * * * * * * * * * * * * * * * * * * * * * * * * * * //

dimensions      [1 -3 0 0 0 0 0];

internalField   nonuniform List<scalar> 
160000
(
979.842
979.878
979.915
979.954
979.994
980.034
980.076
980.117
980.158
980.201
980.247
980.292
980.337
980.385
980.432
980.479
980.527
980.576
980.626
980.677
980.728
980.779
980.83
980.883
980.935
980.988
981.043
981.099
981.154
981.208
981.262
981.318
981.378
981.437
981.494
981.551
981.61
981.67
981.727
981.785
981.845
981.906
981.968
982.029
982.091
982.154
982.216
982.276
982.339
982.403
982.466
982.532
982.598
982.661
982.725
982.788
982.854
982.919
982.981
983.045
983.112
983.181
983.246
983.31
983.374
983.441
983.509
983.578
983.644
983.705
983.771
983.838
983.903
983.969
984.034
984.101
984.168
984.234
984.3
984.367
984.435
984.504
984.572
984.638
984.705
984.772
984.839
984.904
984.969
985.036
985.102
985.168
985.237
985.305
985.372
985.435
985.499
985.565
985.63
985.694
985.759
985.822
985.886
985.951
986.014
986.078
986.141
986.204
986.269
986.334
986.399
986.461
986.523
986.585
986.646
986.707
986.768
986.829
986.892
986.956
987.019
987.079
987.139
987.2
987.261
987.323
987.386
987.445
987.504
987.565
987.624
987.68
987.738
987.799
987.859
987.916
987.973
988.029
988.085
988.138
988.193
988.251
988.307
988.361
988.419
988.476
988.531
988.585
988.639
988.692
988.744
988.797
988.849
988.902
988.954
989.006
989.059
989.112
989.165
989.217
989.268
989.319
989.37
989.422
989.473
989.521
989.572
989.62
989.668
989.715
989.762
989.812
989.859
989.905
989.953
989.997
990.042
990.086
990.132
990.179
990.223
990.267
990.311
990.354
990.397
990.44
990.485
990.53
990.576
990.622
990.671
990.721
990.769
990.817
990.864
990.904
990.939
990.977
991.022
991.072
991.119
991.161
991.2
991.235
991.268
991.302
991.339
991.377
991.415
991.451
991.486
991.521
991.556
991.589
991.622
991.656
991.688
991.72
991.753
991.788
991.822
991.855
991.885
991.915
991.944
991.974
992.005
992.036
992.066
992.097
992.127
992.156
992.185
992.215
992.245
992.274
992.302
992.33
992.357
992.384
992.411
992.437
992.462
992.487
992.512
992.536
992.56
992.587
992.617
992.656
992.7
992.738
992.767
992.791
992.813
992.835
992.857
992.878
992.898
992.92
992.947
992.974
992.997
993.018
993.038
993.059
993.081
993.102
993.122
993.144
993.167
993.188
993.209
993.231
993.25
993.269
993.287
993.306
993.326
993.346
993.365
993.384
993.402
993.421
993.44
993.459
993.477
993.495
993.511
993.528
993.544
993.56
993.575
993.591
993.607
993.622
993.638
993.653
993.667
993.68
993.693
993.712
993.739
993.763
993.782
993.798
993.812
993.825
993.838
993.85
993.863
993.875
993.886
993.898
993.91
993.923
993.937
993.95
993.961
993.972
993.982
993.993
994.003
994.014
994.025
994.038
994.051
994.063
994.074
994.085
994.095
994.105
994.114
994.124
994.133
994.142
994.151
994.16
994.168
994.178
994.186
994.194
994.202
994.21
994.218
994.225
994.232
994.24
994.248
994.255
994.263
994.269
994.276
994.282
994.288
994.295
994.301
994.307
994.313
994.318
994.324
994.329
994.334
994.339
994.344
994.349
994.354
994.359
994.363
994.368
994.371
994.375
994.379
994.383
994.386
994.389
994.393
994.396
994.398
994.401
994.404
994.406
994.409
994.411
994.413
994.415
994.417
994.418
994.42
994.421
994.423
994.424
994.425
994.426
994.426
994.427
994.427
994.428
994.428
994.428
979.843
979.879
979.916
979.954
979.994
980.034
980.075
980.117
980.159
980.202
980.247
980.292
980.337
980.384
980.432
980.479
980.526
980.575
980.627
980.678
980.729
980.779
980.831
980.884
980.935
980.987
981.042
981.098
981.153
981.208
981.264
981.319
981.378
981.437
981.494
981.551
981.611
981.668
981.724
981.785
981.846
981.906
981.968
982.029
982.09
982.154
982.216
982.276
982.338
982.403
982.468
982.533
982.596
982.661
982.725
982.787
982.853
982.918
982.982
983.047
983.113
983.18
983.246
983.31
983.375
983.442
983.509
983.575
983.642
983.707
983.773
983.839
983.904
983.969
984.034
984.101
984.168
984.234
984.301
984.368
984.436
984.504
984.571
984.637
984.703
984.773
984.839
984.904
984.97
985.036
985.103
985.17
985.237
985.305
985.371
985.434
985.499
985.564
985.63
985.694
985.758
985.824
985.886
985.95
986.015
986.078
986.141
986.205
986.27
986.334
986.399
986.461
986.523
986.584
986.645
986.707
986.768
986.829
986.892
986.955
987.019
987.08
987.14
987.201
987.262
987.323
987.385
987.445
987.504
987.564
987.623
987.68
987.738
987.8
987.86
987.916
987.972
988.029
988.084
988.138
988.193
988.25
988.307
988.362
988.42
988.475
988.53
988.585
988.639
988.691
988.744
988.798
988.849
988.901
988.954
989.007
989.06
989.112
989.165
989.216
989.268
989.319
989.371
989.422
989.472
989.522
989.572
989.62
989.668
989.716
989.764
989.812
989.859
989.905
989.952
989.997
990.042
990.087
990.132
990.178
990.222
990.266
990.31
990.353
990.396
990.44
990.485
990.529
990.575
990.622
990.673
990.724
990.774
990.822
990.865
990.902
990.939
990.982
991.028
991.074
991.118
991.159
991.197
991.233
991.267
991.302
991.34
991.378
991.415
991.451
991.486
991.521
991.555
991.588
991.622
991.655
991.688
991.72
991.754
991.788
991.822
991.853
991.884
991.914
991.944
991.974
992.006
992.036
992.067
992.097
992.127
992.156
992.185
992.216
992.246
992.274
992.302
992.33
992.357
992.384
992.411
992.437
992.462
992.488
992.512
992.536
992.559
992.585
992.621
992.667
992.707
992.739
992.765
992.789
992.811
992.834
992.856
992.877
992.898
992.922
992.949
992.973
992.995
993.016
993.037
993.06
993.081
993.102
993.122
993.145
993.167
993.188
993.21
993.23
993.25
993.268
993.287
993.306
993.326
993.346
993.365
993.384
993.402
993.422
993.441
993.46
993.477
993.494
993.511
993.528
993.544
993.56
993.575
993.591
993.607
993.622
993.638
993.654
993.668
993.681
993.695
993.718
993.744
993.765
993.782
993.797
993.81
993.824
993.837
993.849
993.862
993.874
993.886
993.898
993.911
993.924
993.937
993.949
993.96
993.971
993.982
993.992
994.003
994.014
994.026
994.039
994.052
994.063
994.074
994.084
994.095
994.104
994.114
994.124
994.133
994.142
994.151
994.16
994.169
994.177
994.186
994.194
994.202
994.21
994.217
994.225
994.232
994.24
994.248
994.255
994.262
994.269
994.276
994.282
994.288
994.295
994.301
994.307
994.312
994.318
994.323
994.329
994.334
994.339
994.344
994.349
994.354
994.359
994.363
994.368
994.371
994.375
994.379
994.383
994.386
994.389
994.393
994.396
994.398
994.401
994.404
994.406
994.409
994.411
994.413
994.415
994.417
994.418
994.42
994.421
994.423
994.424
994.425
994.426
994.426
994.427
994.427
994.428
994.428
994.428
979.842
979.879
979.916
979.954
979.994
980.034
980.074
980.117
980.159
980.202
980.247
980.292
980.337
980.382
980.431
980.479
980.527
980.577
980.627
980.678
980.729
980.781
980.832
980.884
980.936
980.988
981.042
981.096
981.153
981.209
981.263
981.32
981.377
981.437
981.495
981.552
981.61
981.668
981.725
981.785
981.846
981.907
981.967
982.028
982.091
982.154
982.215
982.276
982.338
982.404
982.47
982.534
982.596
982.66
982.724
982.787
982.852
982.917
982.983
983.048
983.112
983.178
983.245
983.311
983.375
983.443
983.511
983.577
983.642
983.707
983.772
983.837
983.904
983.969
984.034
984.101
984.168
984.234
984.302
984.369
984.435
984.503
984.571
984.637
984.703
984.771
984.837
984.905
984.972
985.037
985.104
985.171
985.237
985.304
985.37
985.433
985.498
985.563
985.629
985.694
985.759
985.824
985.887
985.95
986.014
986.078
986.142
986.206
986.269
986.334
986.398
986.46
986.523
986.584
986.645
986.707
986.768
986.83
986.893
986.956
987.019
987.079
987.14
987.202
987.262
987.323
987.384
987.444
987.504
987.563
987.621
987.68
987.741
987.801
987.86
987.916
987.972
988.028
988.083
988.137
988.193
988.25
988.307
988.363
988.419
988.475
988.53
988.584
988.638
988.691
988.744
988.797
988.848
988.901
988.956
989.008
989.06
989.113
989.165
989.216
989.267
989.319
989.371
989.422
989.473
989.522
989.572
989.621
989.668
989.716
989.765
989.813
989.859
989.906
989.951
989.995
990.041
990.087
990.132
990.177
990.221
990.265
990.308
990.352
990.395
990.439
990.483
990.528
990.574
990.626
990.681
990.734
990.782
990.825
990.865
990.904
990.944
990.987
991.03
991.073
991.116
991.156
991.194
991.23
991.266
991.303
991.341
991.378
991.414
991.45
991.485
991.52
991.554
991.588
991.622
991.655
991.688
991.721
991.755
991.788
991.82
991.852
991.882
991.913
991.944
991.975
992.006
992.036
992.067
992.097
992.127
992.156
992.186
992.216
992.246
992.274
992.303
992.33
992.357
992.384
992.411
992.437
992.463
992.488
992.512
992.536
992.56
992.589
992.632
992.676
992.71
992.738
992.763
992.786
992.81
992.832
992.855
992.876
992.899
992.923
992.948
992.972
992.994
993.015
993.037
993.059
993.081
993.102
993.123
993.146
993.167
993.189
993.21
993.23
993.25
993.268
993.287
993.307
993.326
993.345
993.365
993.384
993.403
993.423
993.441
993.459
993.477
993.494
993.511
993.527
993.544
993.56
993.575
993.591
993.606
993.623
993.64
993.655
993.67
993.685
993.702
993.723
993.745
993.764
993.78
993.795
993.809
993.822
993.835
993.848
993.861
993.873
993.886
993.898
993.911
993.924
993.937
993.948
993.96
993.971
993.982
993.992
994.003
994.015
994.028
994.04
994.052
994.063
994.073
994.084
994.094
994.104
994.114
994.124
994.133
994.142
994.151
994.16
994.169
994.177
994.186
994.194
994.202
994.21
994.217
994.225
994.233
994.24
994.248
994.255
994.262
994.269
994.275
994.282
994.288
994.295
994.301
994.307
994.312
994.318
994.323
994.329
994.334
994.339
994.344
994.349
994.354
994.359
994.363
994.367
994.371
994.375
994.379
994.383
994.386
994.389
994.393
994.396
994.398
994.401
994.404
994.406
994.409
994.411
994.413
994.415
994.417
994.418
994.42
994.421
994.423
994.424
994.425
994.426
994.426
994.427
994.427
994.428
994.428
994.428
979.842
979.879
979.916
979.954
979.994
980.035
980.075
980.117
980.16
980.203
980.247
980.291
980.336
980.382
980.43
980.479
980.527
980.577
980.627
980.679
980.729
980.781
980.833
980.883
980.936
980.989
981.041
981.097
981.153
981.208
981.264
981.32
981.377
981.436
981.495
981.553
981.611
981.668
981.724
981.784
981.846
981.907
981.968
982.028
982.09
982.153
982.215
982.276
982.339
982.403
982.468
982.534
982.597
982.659
982.724
982.788
982.852
982.917
982.982
983.047
983.112
983.178
983.245
983.311
983.376
983.443
983.511
983.577
983.643
983.709
983.774
983.837
983.901
983.967
984.034
984.103
984.169
984.235
984.304
984.369
984.436
984.504
984.57
984.635
984.702
984.77
984.837
984.905
984.971
985.038
985.105
985.17
985.237
985.303
985.368
985.433
985.499
985.563
985.628
985.694
985.76
985.825
985.888
985.951
986.015
986.079
986.143
986.206
986.269
986.333
986.396
986.459
986.522
986.584
986.646
986.707
986.768
986.83
986.894
986.957
987.018
987.079
987.141
987.201
987.262
987.323
987.384
987.444
987.503
987.562
987.621
987.681
987.742
987.802
987.861
987.917
987.972
988.027
988.083
988.138
988.194
988.251
988.306
988.362
988.419
988.475
988.53
988.584
988.637
988.69
988.744
988.797
988.849
988.902
988.955
989.008
989.06
989.113
989.165
989.215
989.267
989.319
989.371
989.423
989.473
989.523
989.573
989.622
989.67
989.718
989.766
989.812
989.858
989.904
989.95
989.995
990.041
990.087
990.131
990.175
990.22
990.264
990.307
990.35
990.394
990.438
990.482
990.529
990.582
990.639
990.693
990.741
990.785
990.826
990.866
990.906
990.947
990.988
991.03
991.072
991.114
991.154
991.192
991.229
991.265
991.302
991.34
991.377
991.413
991.448
991.484
991.519
991.553
991.587
991.621
991.655
991.688
991.721
991.754
991.787
991.819
991.851
991.882
991.913
991.944
991.976
992.006
992.037
992.067
992.097
992.127
992.156
992.187
992.217
992.246
992.275
992.303
992.33
992.357
992.384
992.411
992.437
992.463
992.488
992.513
992.538
992.565
992.598
992.642
992.679
992.709
992.735
992.76
992.784
992.807
992.83
992.853
992.876
992.9
992.924
992.947
992.97
992.992
993.014
993.036
993.059
993.081
993.102
993.124
993.146
993.168
993.189
993.21
993.23
993.249
993.268
993.287
993.307
993.326
993.346
993.365
993.385
993.404
993.422
993.441
993.459
993.476
993.493
993.51
993.527
993.543
993.559
993.574
993.59
993.606
993.624
993.641
993.658
993.674
993.69
993.707
993.726
993.745
993.762
993.778
993.793
993.807
993.821
993.834
993.847
993.86
993.873
993.886
993.898
993.911
993.924
993.936
993.948
993.959
993.971
993.981
993.993
994.004
994.017
994.029
994.04
994.051
994.062
994.073
994.083
994.094
994.104
994.114
994.124
994.133
994.142
994.151
994.16
994.169
994.177
994.186
994.194
994.202
994.21
994.217
994.225
994.233
994.241
994.248
994.255
994.262
994.269
994.275
994.282
994.288
994.295
994.301
994.307
994.312
994.318
994.323
994.329
994.334
994.339
994.344
994.349
994.354
994.359
994.363
994.368
994.371
994.375
994.379
994.383
994.386
994.389
994.392
994.395
994.398
994.401
994.404
994.406
994.409
994.411
994.413
994.415
994.417
994.418
994.42
994.421
994.423
994.424
994.425
994.426
994.426
994.427
994.427
994.428
994.428
994.428
979.842
979.878
979.916
979.955
979.995
980.035
980.076
980.117
980.16
980.203
980.247
980.29
980.335
980.384
980.432
980.479
980.527
980.576
980.626
980.678
980.73
980.781
980.833
980.884
980.936
980.988
981.041
981.096
981.152
981.208
981.265
981.321
981.377
981.436
981.496
981.553
981.609
981.667
981.725
981.786
981.846
981.907
981.968
982.029
982.089
982.152
982.213
982.275
982.339
982.404
982.469
982.534
982.597
982.66
982.724
982.788
982.852
982.917
982.982
983.047
983.111
983.177
983.244
983.311
983.375
983.443
983.511
983.578
983.644
983.71
983.774
983.837
983.902
983.968
984.034
984.102
984.17
984.236
984.302
984.37
984.438
984.503
984.57
984.635
984.702
984.77
984.837
984.904
984.971
985.038
985.104
985.17
985.236
985.302
985.367
985.432
985.498
985.563
985.628
985.694
985.761
985.827
985.89
985.952
986.016
986.079
986.143
986.205
986.268
986.332
986.396
986.458
986.52
986.583
986.647
986.708
986.768
986.83
986.893
986.956
987.018
987.079
987.14
987.201
987.262
987.324
987.385
987.443
987.502
987.562
987.621
987.681
987.743
987.804
987.862
987.918
987.973
988.027
988.082
988.138
988.193
988.249
988.306
988.363
988.418
988.475
988.53
988.583
988.637
988.691
988.743
988.796
988.849
988.902
988.955
989.008
989.061
989.113
989.164
989.214
989.266
989.318
989.371
989.423
989.474
989.523
989.575
989.625
989.673
989.72
989.766
989.812
989.857
989.903
989.949
989.994
990.04
990.085
990.13
990.174
990.218
990.262
990.305
990.348
990.391
990.436
990.485
990.54
990.598
990.652
990.7
990.745
990.787
990.826
990.866
990.907
990.947
990.987
991.028
991.07
991.112
991.153
991.191
991.228
991.265
991.302
991.339
991.375
991.411
991.447
991.482
991.517
991.552
991.587
991.621
991.655
991.688
991.721
991.754
991.786
991.819
991.85
991.882
991.913
991.945
991.976
992.006
992.036
992.067
992.096
992.126
992.157
992.187
992.217
992.247
992.276
992.304
992.331
992.358
992.384
992.411
992.438
992.464
992.489
992.515
992.543
992.573
992.608
992.646
992.679
992.707
992.733
992.757
992.782
992.805
992.829
992.852
992.876
992.899
992.923
992.946
992.969
992.991
993.013
993.036
993.058
993.081
993.102
993.125
993.147
993.169
993.19
993.21
993.23
993.249
993.268
993.287
993.307
993.327
993.346
993.366
993.385
993.403
993.422
993.44
993.458
993.475
993.493
993.51
993.527
993.543
993.558
993.573
993.589
993.606
993.625
993.643
993.661
993.677
993.694
993.71
993.728
993.745
993.761
993.777
993.792
993.806
993.82
993.833
993.846
993.859
993.872
993.885
993.898
993.911
993.924
993.936
993.948
993.959
993.97
993.981
993.993
994.005
994.017
994.029
994.04
994.051
994.062
994.072
994.083
994.093
994.104
994.114
994.124
994.133
994.142
994.151
994.16
994.169
994.177
994.186
994.194
994.202
994.21
994.217
994.225
994.233
994.24
994.248
994.255
994.262
994.269
994.275
994.282
994.288
994.295
994.301
994.307
994.312
994.318
994.323
994.329
994.334
994.339
994.344
994.349
994.354
994.359
994.363
994.368
994.372
994.375
994.379
994.383
994.386
994.389
994.392
994.395
994.398
994.401
994.404
994.406
994.409
994.411
994.413
994.415
994.417
994.418
994.42
994.421
994.423
994.424
994.425
994.426
994.426
994.427
994.427
994.428
994.428
994.428
979.842
979.877
979.915
979.955
979.994
980.035
980.077
980.118
980.16
980.203
980.247
980.29
980.335
980.384
980.431
980.48
980.528
980.576
980.626
980.677
980.729
980.781
980.833
980.884
980.936
980.989
981.042
981.096
981.15
981.207
981.265
981.322
981.379
981.437
981.495
981.553
981.609
981.667
981.726
981.786
981.846
981.907
981.968
982.028
982.089
982.152
982.213
982.275
982.338
982.403
982.47
982.533
982.596
982.66
982.724
982.788
982.852
982.917
982.982
983.046
983.111
983.176
983.243
983.31
983.376
983.444
983.513
983.579
983.644
983.71
983.774
983.838
983.904
983.97
984.034
984.102
984.17
984.237
984.303
984.369
984.436
984.503
984.57
984.635
984.702
984.769
984.836
984.904
984.972
985.039
985.104
985.168
985.235
985.302
985.367
985.432
985.498
985.562
985.629
985.695
985.761
985.826
985.89
985.954
986.017
986.08
986.142
986.203
986.267
986.332
986.396
986.458
986.52
986.583
986.646
986.708
986.768
986.829
986.892
986.956
987.018
987.079
987.14
987.201
987.263
987.324
987.383
987.443
987.502
987.562
987.622
987.683
987.744
987.804
987.861
987.918
987.974
988.029
988.083
988.138
988.193
988.249
988.305
988.362
988.418
988.474
988.529
988.583
988.637
988.69
988.743
988.796
988.849
988.903
988.956
989.009
989.06
989.112
989.163
989.214
989.267
989.319
989.371
989.423
989.475
989.526
989.577
989.627
989.674
989.72
989.766
989.811
989.856
989.902
989.948
989.994
990.039
990.084
990.128
990.173
990.217
990.26
990.303
990.345
990.39
990.442
990.5
990.558
990.611
990.659
990.704
990.746
990.786
990.826
990.866
990.906
990.947
990.986
991.027
991.069
991.111
991.152
991.19
991.228
991.264
991.301
991.338
991.374
991.41
991.445
991.481
991.516
991.551
991.586
991.62
991.654
991.688
991.72
991.753
991.786
991.819
991.85
991.882
991.913
991.944
991.975
992.006
992.036
992.066
992.096
992.127
992.157
992.187
992.217
992.247
992.277
992.304
992.331
992.358
992.385
992.413
992.439
992.465
992.491
992.518
992.549
992.582
992.615
992.647
992.677
992.704
992.73
992.755
992.779
992.803
992.827
992.851
992.875
992.899
992.922
992.945
992.967
992.99
993.012
993.035
993.058
993.081
993.104
993.126
993.148
993.17
993.19
993.21
993.229
993.248
993.268
993.288
993.308
993.327
993.346
993.365
993.384
993.403
993.422
993.44
993.457
993.475
993.493
993.51
993.526
993.542
993.557
993.572
993.588
993.609
993.629
993.647
993.663
993.679
993.696
993.712
993.729
993.745
993.761
993.776
993.791
993.805
993.819
993.833
993.846
993.859
993.872
993.885
993.898
993.911
993.924
993.936
993.947
993.959
993.97
993.982
993.994
994.006
994.018
994.029
994.04
994.051
994.062
994.072
994.083
994.093
994.104
994.114
994.124
994.133
994.142
994.151
994.16
994.169
994.177
994.186
994.194
994.202
994.21
994.217
994.225
994.233
994.24
994.248
994.255
994.262
994.268
994.275
994.282
994.288
994.294
994.301
994.306
994.312
994.318
994.323
994.329
994.334
994.339
994.344
994.349
994.355
994.359
994.364
994.368
994.372
994.375
994.379
994.383
994.386
994.389
994.392
994.395
994.398
994.401
994.404
994.406
994.409
994.411
994.413
994.415
994.417
994.418
994.42
994.421
994.423
994.424
994.425
994.426
994.426
994.427
994.427
994.428
994.428
994.428
979.842
979.878
979.915
979.954
979.994
980.035
980.077
980.119
980.161
980.203
980.247
980.29
980.337
980.385
980.432
980.48
980.528
980.576
980.626
980.675
980.729
980.781
980.832
980.883
980.935
980.989
981.043
981.097
981.151
981.207
981.265
981.323
981.379
981.437
981.494
981.552
981.61
981.668
981.726
981.785
981.845
981.907
981.968
982.028
982.09
982.152
982.213
982.276
982.339
982.403
982.469
982.533
982.596
982.66
982.724
982.787
982.852
982.917
982.981
983.046
983.11
983.175
983.242
983.312
983.378
983.444
983.512
983.58
983.646
983.71
983.773
983.838
983.905
983.971
984.036
984.103
984.17
984.237
984.303
984.369
984.436
984.503
984.569
984.635
984.703
984.77
984.836
984.904
984.971
985.038
985.104
985.168
985.235
985.302
985.367
985.431
985.496
985.563
985.63
985.696
985.761
985.827
985.891
985.955
986.017
986.08
986.142
986.203
986.266
986.332
986.396
986.457
986.519
986.582
986.645
986.707
986.768
986.829
986.893
986.956
987.018
987.08
987.14
987.201
987.263
987.324
987.383
987.442
987.503
987.563
987.623
987.683
987.743
987.803
987.861
987.918
987.974
988.03
988.084
988.138
988.193
988.249
988.305
988.361
988.417
988.473
988.529
988.583
988.636
988.689
988.743
988.797
988.849
988.903
988.957
989.009
989.06
989.111
989.162
989.214
989.268
989.321
989.372
989.423
989.475
989.527
989.578
989.627
989.674
989.72
989.766
989.811
989.856
989.902
989.948
989.993
990.038
990.083
990.128
990.172
990.215
990.258
990.3
990.343
990.395
990.458
990.518
990.57
990.618
990.663
990.705
990.746
990.786
990.825
990.865
990.905
990.946
990.986
991.026
991.068
991.11
991.15
991.189
991.227
991.263
991.3
991.336
991.373
991.409
991.444
991.48
991.515
991.55
991.585
991.619
991.653
991.687
991.72
991.753
991.785
991.818
991.85
991.881
991.913
991.944
991.975
992.006
992.037
992.067
992.096
992.126
992.156
992.187
992.218
992.248
992.277
992.305
992.331
992.358
992.386
992.414
992.441
992.468
992.495
992.524
992.555
992.586
992.617
992.647
992.675
992.702
992.728
992.753
992.778
992.802
992.826
992.85
992.874
992.898
992.921
992.944
992.967
992.989
993.012
993.035
993.058
993.081
993.105
993.127
993.149
993.169
993.19
993.21
993.229
993.248
993.268
993.288
993.308
993.327
993.346
993.365
993.384
993.403
993.421
993.439
993.457
993.475
993.492
993.509
993.526
993.542
993.557
993.572
993.59
993.612
993.631
993.648
993.665
993.681
993.697
993.713
993.729
993.745
993.761
993.776
993.79
993.805
993.818
993.832
993.845
993.858
993.871
993.885
993.898
993.911
993.923
993.935
993.947
993.959
993.971
993.982
993.994
994.006
994.017
994.029
994.04
994.051
994.062
994.072
994.082
994.093
994.104
994.114
994.124
994.133
994.142
994.151
994.16
994.169
994.177
994.186
994.194
994.202
994.21
994.217
994.225
994.233
994.24
994.248
994.255
994.262
994.268
994.275
994.282
994.288
994.294
994.301
994.306
994.312
994.318
994.323
994.329
994.334
994.339
994.344
994.349
994.355
994.359
994.364
994.368
994.372
994.375
994.379
994.383
994.386
994.389
994.392
994.395
994.398
994.401
994.404
994.406
994.409
994.411
994.413
994.415
994.417
994.418
994.42
994.421
994.423
994.424
994.425
994.426
994.426
994.427
994.427
994.428
994.428
994.428
979.842
979.878
979.915
979.953
979.994
980.035
980.076
980.118
980.161
980.204
980.248
980.291
980.337
980.385
980.432
980.479
980.527
980.577
980.627
980.676
980.727
980.779
980.831
980.883
980.935
980.988
981.043
981.098
981.152
981.208
981.266
981.322
981.379
981.437
981.495
981.553
981.61
981.667
981.725
981.785
981.845
981.906
981.967
982.028
982.089
982.152
982.214
982.276
982.34
982.405
982.468
982.532
982.596
982.66
982.724
982.787
982.851
982.916
982.98
983.045
983.111
983.176
983.243
983.312
983.379
983.445
983.513
983.58
983.647
983.71
983.774
983.84
983.906
983.971
984.036
984.103
984.17
984.237
984.302
984.368
984.435
984.502
984.569
984.636
984.703
984.77
984.835
984.903
984.972
985.038
985.103
985.168
985.234
985.3
985.366
985.431
985.497
985.562
985.629
985.697
985.763
985.828
985.892
985.955
986.017
986.079
986.141
986.203
986.267
986.332
986.395
986.458
986.52
986.582
986.644
986.706
986.768
986.831
986.894
986.956
987.018
987.08
987.14
987.201
987.264
987.325
987.383
987.441
987.502
987.563
987.624
987.683
987.742
987.802
987.862
987.919
987.975
988.03
988.084
988.138
988.193
988.249
988.305
988.361
988.417
988.474
988.528
988.582
988.636
988.689
988.743
988.796
988.849
988.903
988.957
989.009
989.06
989.111
989.163
989.215
989.268
989.321
989.373
989.424
989.477
989.528
989.578
989.626
989.674
989.721
989.766
989.811
989.856
989.902
989.948
989.992
990.037
990.082
990.127
990.171
990.213
990.255
990.299
990.351
990.413
990.476
990.529
990.576
990.622
990.664
990.705
990.745
990.785
990.825
990.864
990.904
990.945
990.985
991.026
991.067
991.108
991.149
991.188
991.225
991.262
991.299
991.335
991.372
991.408
991.444
991.479
991.515
991.55
991.584
991.618
991.652
991.686
991.719
991.752
991.785
991.817
991.849
991.881
991.913
991.944
991.975
992.006
992.036
992.066
992.096
992.126
992.156
992.187
992.218
992.249
992.278
992.305
992.332
992.359
992.388
992.417
992.444
992.471
992.499
992.528
992.558
992.588
992.617
992.646
992.674
992.701
992.727
992.752
992.776
992.801
992.825
992.849
992.873
992.897
992.92
992.943
992.966
992.989
993.012
993.035
993.058
993.082
993.105
993.127
993.149
993.169
993.189
993.209
993.229
993.248
993.268
993.288
993.308
993.327
993.346
993.365
993.384
993.403
993.421
993.439
993.457
993.474
993.492
993.509
993.526
993.542
993.557
993.573
993.593
993.614
993.633
993.65
993.666
993.682
993.698
993.714
993.73
993.745
993.76
993.775
993.79
993.804
993.818
993.831
993.845
993.858
993.871
993.885
993.898
993.91
993.923
993.935
993.947
993.959
993.971
993.982
993.994
994.006
994.018
994.029
994.04
994.051
994.061
994.072
994.082
994.093
994.103
994.113
994.123
994.133
994.142
994.151
994.16
994.169
994.177
994.185
994.194
994.202
994.21
994.217
994.225
994.233
994.24
994.247
994.255
994.261
994.268
994.275
994.282
994.288
994.294
994.301
994.307
994.312
994.318
994.323
994.329
994.334
994.339
994.344
994.35
994.355
994.359
994.363
994.368
994.372
994.375
994.379
994.383
994.386
994.389
994.392
994.395
994.398
994.401
994.404
994.406
994.409
994.411
994.413
994.415
994.417
994.418
994.42
994.421
994.423
994.424
994.425
994.426
994.426
994.427
994.427
994.428
994.428
994.428
979.842
979.878
979.915
979.954
979.993
980.034
980.076
980.118
980.161
980.203
980.247
980.292
980.338
980.386
980.432
980.479
980.528
980.578
980.626
980.676
980.727
980.779
980.831
980.883
980.936
980.989
981.044
981.098
981.153
981.209
981.266
981.322
981.379
981.437
981.495
981.553
981.609
981.666
981.724
981.785
981.846
981.906
981.966
982.028
982.09
982.152
982.215
982.277
982.34
982.405
982.469
982.531
982.595
982.66
982.724
982.787
982.851
982.915
982.979
983.045
983.111
983.176
983.243
983.311
983.379
983.447
983.514
983.581
983.647
983.711
983.774
983.84
983.906
983.971
984.037
984.104
984.171
984.236
984.301
984.367
984.435
984.503
984.569
984.636
984.703
984.769
984.835
984.903
984.971
985.038
985.104
985.168
985.234
985.3
985.365
985.431
985.497
985.562
985.629
985.697
985.763
985.828
985.892
985.955
986.017
986.079
986.141
986.203
986.267
986.33
986.393
986.456
986.519
986.582
986.644
986.706
986.769
986.832
986.894
986.956
987.019
987.08
987.14
987.201
987.263
987.324
987.383
987.443
987.502
987.562
987.621
987.682
987.743
987.804
987.862
987.919
987.975
988.029
988.083
988.137
988.193
988.25
988.306
988.361
988.417
988.472
988.526
988.581
988.635
988.689
988.743
988.796
988.849
988.903
988.956
989.008
989.06
989.112
989.164
989.216
989.268
989.321
989.374
989.427
989.479
989.53
989.579
989.627
989.674
989.72
989.766
989.811
989.856
989.902
989.947
989.992
990.037
990.082
990.126
990.169
990.211
990.256
990.309
990.37
990.431
990.484
990.533
990.579
990.622
990.663
990.704
990.744
990.784
990.824
990.864
990.904
990.944
990.984
991.025
991.066
991.107
991.148
991.187
991.224
991.261
991.297
991.334
991.37
991.407
991.443
991.478
991.514
991.549
991.583
991.618
991.652
991.685
991.718
991.751
991.784
991.817
991.849
991.881
991.912
991.944
991.975
992.006
992.036
992.066
992.096
992.126
992.155
992.187
992.22
992.251
992.28
992.306
992.333
992.361
992.39
992.419
992.447
992.474
992.502
992.53
992.559
992.588
992.617
992.645
992.673
992.7
992.725
992.75
992.775
992.8
992.824
992.848
992.873
992.896
992.92
992.943
992.966
992.989
993.012
993.035
993.059
993.083
993.105
993.127
993.148
993.169
993.189
993.209
993.229
993.248
993.268
993.288
993.308
993.327
993.346
993.365
993.384
993.402
993.421
993.439
993.457
993.474
993.492
993.509
993.526
993.542
993.558
993.575
993.595
993.615
993.633
993.65
993.666
993.682
993.698
993.714
993.73
993.745
993.76
993.775
993.789
993.804
993.817
993.831
993.844
993.858
993.871
993.884
993.897
993.91
993.923
993.935
993.947
993.959
993.971
993.983
993.994
994.006
994.018
994.029
994.04
994.051
994.061
994.072
994.082
994.093
994.103
994.113
994.123
994.133
994.142
994.151
994.16
994.169
994.177
994.185
994.194
994.202
994.21
994.217
994.225
994.233
994.24
994.247
994.254
994.261
994.268
994.275
994.282
994.288
994.294
994.301
994.307
994.312
994.318
994.323
994.329
994.334
994.339
994.344
994.35
994.355
994.359
994.363
994.368
994.372
994.375
994.379
994.383
994.386
994.389
994.392
994.395
994.398
994.401
994.404
994.406
994.409
994.411
994.413
994.415
994.417
994.418
994.42
994.421
994.423
994.424
994.425
994.426
994.426
994.427
994.427
994.428
994.428
994.428
979.843
979.879
979.916
979.953
979.994
980.035
980.076
980.118
980.16
980.203
980.247
980.292
980.338
980.385
980.432
980.48
980.528
980.577
980.626
980.675
980.726
980.779
980.832
980.883
980.936
980.99
981.044
981.098
981.153
981.209
981.265
981.322
981.38
981.437
981.494
981.551
981.609
981.667
981.724
981.784
981.846
981.906
981.966
982.028
982.09
982.152
982.215
982.278
982.341
982.406
982.469
982.531
982.595
982.66
982.723
982.787
982.851
982.915
982.979
983.044
983.11
983.176
983.243
983.311
983.38
983.449
983.516
983.582
983.647
983.711
983.774
983.839
983.905
983.971
984.037
984.105
984.171
984.236
984.302
984.368
984.435
984.502
984.569
984.637
984.704
984.77
984.835
984.902
984.971
985.038
985.103
985.169
985.235
985.3
985.364
985.429
985.496
985.562
985.63
985.698
985.763
985.828
985.893
985.955