/*--------------------------------*- C++ -*----------------------------------*\
  =========                 |
  \\      /  F ield         | OpenFOAM: The Open Source CFD Toolbox
   \\    /   O peration     | Website:  https://openfoam.org
    \\  /    A nd           | Version:  7
     \\/     M anipulation  |
\*---------------------------------------------------------------------------*/
FoamFile
{
    version     2.0;
    format      ascii;
    class       volScalarField;
    location    "3000";
    object      T;
}
// * * * * * * * * * * * * * * * * * * * * * * * * * * * * * * * * * * * * * //

dimensions      [0 0 0 1 0 0 0];

internalField   nonuniform List<scalar> 
160000
(
339.968
339.902
339.834
339.765
339.691
339.617
339.542
339.467
339.392
339.312
339.228
339.146
339.062
338.974
338.887
338.801
338.712
338.623
338.53
338.435
338.34
338.246
338.15
338.052
337.955
337.856
337.752
337.649
337.545
337.443
337.342
337.237
337.124
337.012
336.905
336.796
336.684
336.571
336.463
336.352
336.236
336.12
336.001
335.884
335.766
335.645
335.526
335.408
335.287
335.163
335.04
334.913
334.785
334.661
334.536
334.412
334.284
334.156
334.033
333.909
333.775
333.639
333.51
333.382
333.256
333.123
332.986
332.849
332.717
332.593
332.462
332.326
332.194
332.061
331.929
331.794
331.658
331.523
331.387
331.25
331.112
330.97
330.829
330.693
330.555
330.416
330.277
330.141
330.006
329.865
329.728
329.59
329.445
329.3
329.16
329.026
328.89
328.751
328.613
328.476
328.338
328.202
328.065
327.925
327.789
327.652
327.515
327.378
327.237
327.096
326.954
326.818
326.683
326.546
326.413
326.277
326.142
326.007
325.867
325.725
325.585
325.45
325.316
325.179
325.042
324.902
324.76
324.625
324.491
324.355
324.22
324.09
323.959
323.819
323.681
323.548
323.418
323.288
323.159
323.035
322.907
322.771
322.641
322.515
322.378
322.244
322.115
321.985
321.857
321.732
321.608
321.482
321.358
321.231
321.105
320.98
320.854
320.725
320.598
320.471
320.346
320.222
320.097
319.97
319.846
319.727
319.603
319.483
319.366
319.249
319.131
319.008
318.891
318.774
318.655
318.543
318.432
318.32
318.204
318.085
317.974
317.863
317.749
317.64
317.531
317.419
317.305
317.188
317.072
316.951
316.824
316.696
316.57
316.445
316.322
316.218
316.127
316.027
315.908
315.777
315.652
315.54
315.437
315.343
315.255
315.166
315.067
314.963
314.862
314.765
314.67
314.576
314.482
314.392
314.302
314.21
314.122
314.035
313.945
313.851
313.757
313.666
313.582
313.501
313.42
313.337
313.25
313.165
313.081
312.994
312.912
312.831
312.749
312.666
312.583
312.501
312.421
312.342
312.265
312.189
312.113
312.039
311.967
311.896
311.827
311.758
311.687
311.613
311.525
311.413
311.287
311.177
311.094
311.024
310.96
310.897
310.833
310.771
310.712
310.647
310.568
310.489
310.422
310.361
310.302
310.239
310.174
310.112
310.053
309.988
309.921
309.858
309.795
309.732
309.673
309.618
309.564
309.506
309.446
309.387
309.33
309.274
309.218
309.161
309.102
309.046
308.99
308.938
308.887
308.837
308.787
308.74
308.694
308.646
308.598
308.55
308.502
308.456
308.414
308.374
308.332
308.274
308.194
308.118
308.059
308.012
307.968
307.927
307.887
307.849
307.811
307.773
307.737
307.701
307.663
307.622
307.579
307.539
307.504
307.471
307.438
307.405
307.373
307.339
307.303
307.263
307.222
307.184
307.15
307.116
307.084
307.053
307.022
306.992
306.963
306.934
306.905
306.878
306.851
306.822
306.795
306.77
306.745
306.719
306.695
306.671
306.648
306.624
306.599
306.575
306.552
306.53
306.509
306.489
306.469
306.449
306.43
306.411
306.392
306.374
306.357
306.34
306.323
306.307
306.291
306.275
306.259
306.244
306.229
306.215
306.203
306.19
306.179
306.167
306.155
306.145
306.134
306.125
306.116
306.107
306.098
306.09
306.083
306.076
306.069
306.063
306.057
306.051
306.046
306.042
306.038
306.034
306.031
306.028
306.026
306.024
306.023
306.021
306.021
306.02
339.966
339.9
339.834
339.764
339.692
339.619
339.543
339.467
339.39
339.311
339.228
339.146
339.063
338.977
338.888
338.801
338.714
338.623
338.528
338.432
338.339
338.245
338.149
338.05
337.954
337.858
337.755
337.65
337.546
337.443
337.339
337.234
337.124
337.012
336.905
336.796
336.682
336.573
336.467
336.351
336.234
336.119
336.002
335.885
335.767
335.645
335.525
335.409
335.289
335.162
335.036
334.911
334.787
334.661
334.537
334.414
334.286
334.158
334.032
333.904
333.775
333.642
333.511
333.383
333.254
333.12
332.987
332.854
332.721
332.591
332.458
332.324
332.193
332.062
331.93
331.794
331.657
331.522
331.387
331.249
331.11
330.97
330.832
330.696
330.558
330.415
330.276
330.141
330.004
329.866
329.726
329.586
329.444
329.301
329.163
329.028
328.891
328.753
328.613
328.476
328.338
328.199
328.064
327.927
327.788
327.652
327.516
327.376
327.235
327.095
326.954
326.818
326.683
326.548
326.413
326.278
326.143
326.007
325.867
325.726
325.585
325.448
325.313
325.177
325.04
324.901
324.762
324.627
324.492
324.355
324.221
324.091
323.958
323.817
323.679
323.549
323.419
323.287
323.161
323.036
322.907
322.773
322.641
322.511
322.376
322.245
322.116
321.986
321.859
321.735
321.608
321.48
321.358
321.232
321.105
320.978
320.851
320.724
320.598
320.473
320.348
320.222
320.096
319.97
319.847
319.726
319.603
319.483
319.366
319.247
319.127
319.006
318.891
318.775
318.657
318.545
318.432
318.318
318.203
318.089
317.977
317.864
317.752
317.643
317.533
317.42
317.306
317.191
317.074
316.951
316.821
316.687
316.556
316.432
316.32
316.222
316.125
316.013
315.892
315.771
315.654
315.545
315.444
315.35
315.259
315.165
315.063
314.961
314.862
314.766
314.671
314.577
314.484
314.393
314.303
314.212
314.123
314.034
313.942
313.848
313.757
313.67
313.587
313.504
313.421
313.336
313.249
313.164
313.08
312.995
312.913
312.832
312.75
312.663
312.58
312.5
312.421
312.342
312.265
312.189
312.113
312.04
311.967
311.895
311.826
311.758
311.691
311.616
311.515
311.383
311.266
311.174
311.098
311.029
310.964
310.899
310.835
310.774
310.712
310.642
310.563
310.491
310.427
310.365
310.303
310.238
310.174
310.114
310.053
309.986
309.92
309.857
309.794
309.732
309.674
309.619
309.564
309.505
309.446
309.388
309.331
309.274
309.217
309.159
309.101
309.044
308.991
308.939
308.888
308.838
308.789
308.741
308.694
308.646
308.598
308.55
308.501
308.454
308.411
308.371
308.326
308.257
308.177
308.113
308.061
308.015
307.972
307.931
307.891
307.852
307.813
307.775
307.738
307.701
307.661
307.62
307.579
307.541
307.506
307.472
307.438
307.406
307.373
307.337
307.299
307.259
307.22
307.185
307.15
307.117
307.085
307.053
307.023
306.993
306.963
306.934
306.905
306.878
306.85
306.822
306.796
306.77
306.745
306.72
306.695
306.671
306.648
306.623
306.599
306.575
306.552
306.531
306.51
306.489
306.469
306.449
306.43
306.411
306.392
306.374
306.357
306.34
306.323
306.307
306.291
306.274
306.259
306.243
306.229
306.215
306.203
306.19
306.178
306.167
306.156
306.145
306.135
306.125
306.116
306.107
306.098
306.09
306.083
306.076
306.069
306.063
306.057
306.051
306.046
306.042
306.038
306.034
306.031
306.028
306.026
306.024
306.023
306.021
306.021
306.02
339.967
339.901
339.833
339.764
339.692
339.618
339.544
339.467
339.39
339.311
339.228
339.145
339.063
338.979
338.89
338.802
338.713
338.62
338.527
338.433
338.338
338.243
338.146
338.05
337.954
337.856
337.756
337.653
337.547
337.442
337.339
337.234
337.125
337.013
336.903
336.795
336.684
336.574
336.466
336.352
336.236
336.119
336.003
335.887
335.766
335.644
335.526
335.41
335.29
335.162
335.034
334.91
334.787
334.664
334.539
334.415
334.288
334.16
334.03
333.902
333.775
333.645
333.512
333.381
333.253
333.118
332.983
332.851
332.721
332.589
332.458
332.328
332.193
332.062
331.93
331.794
331.658
331.522
331.384
331.247
331.11
330.971
330.831
330.695
330.559
330.419
330.28
330.139
330
329.864
329.724
329.583
329.444
329.304
329.165
329.03
328.894
328.755
328.615
328.476
328.338
328.199
328.062
327.927
327.789
327.65
327.512
327.375
327.237
327.096
326.957
326.82
326.683
326.548
326.414
326.278
326.143
326.006
325.865
325.724
325.585
325.449
325.313
325.176
325.039
324.901
324.764
324.628
324.492
324.358
324.225
324.09
323.951
323.813
323.679
323.549
323.42
323.29
323.162
323.036
322.907
322.773
322.64
322.51
322.377
322.245
322.116
321.987
321.86
321.735
321.609
321.482
321.359
321.232
321.102
320.976
320.851
320.723
320.597
320.473
320.349
320.223
320.096
319.97
319.847
319.724
319.602
319.482
319.364
319.245
319.124
319.006
318.889
318.773
318.66
318.548
318.433
318.317
318.204
318.091
317.978
317.867
317.757
317.646
317.535
317.423
317.31
317.195
317.076
316.942
316.799
316.662
316.537
316.424
316.319
316.219
316.113
316.001
315.887
315.772
315.66
315.552
315.452
315.356
315.261
315.163
315.062
314.962
314.865
314.769
314.673
314.579
314.487
314.395
314.304
314.213
314.123
314.033
313.941
313.85
313.761
313.675
313.59
313.505
313.42
313.334
313.248
313.164
313.08
312.995
312.913
312.832
312.747
312.662
312.58
312.499
312.42
312.341
312.265
312.19
312.113
312.039
311.965
311.894
311.825
311.757
311.689
311.606
311.481
311.355
311.258
311.178
311.105
311.036
310.97
310.904
310.839
310.775
310.709
310.638
310.565
310.497
310.432
310.369
310.304
310.239
310.175
310.114
310.05
309.984
309.919
309.857
309.794
309.733
309.675
309.619
309.563
309.505
309.446
309.388
309.33
309.272
309.214
309.156
309.1
309.046
308.993
308.941
308.89
308.839
308.79
308.741
308.694
308.647
308.599
308.549
308.497
308.449
308.404
308.358
308.307
308.241
308.173
308.116
308.066
308.02
307.977
307.935
307.895
307.855
307.816
307.777
307.739
307.7
307.66
307.619
307.58
307.543
307.508
307.473
307.439
307.406
307.371
307.334
307.295
307.257
307.22
307.185
307.151
307.118
307.086
307.054
307.023
306.993
306.963
306.934
306.905
306.878
306.85
306.823
306.796
306.771
306.745
306.72
306.696
306.671
306.647
306.622
306.598
306.575
306.553
306.531
306.51
306.49
306.469
306.449
306.43
306.411
306.392
306.374
306.357
306.34
306.323
306.307
306.29
306.274
306.258
306.243
306.229
306.215
306.203
306.19
306.178
306.167
306.156
306.145
306.135
306.125
306.116
306.107
306.098
306.091
306.083
306.076
306.069
306.063
306.057
306.051
306.046
306.042
306.038
306.034
306.031
306.028
306.026
306.024
306.023
306.021
306.021
306.02
339.967
339.901
339.833
339.763
339.691
339.617
339.543
339.466
339.388
339.309
339.228
339.147
339.064
338.979
338.891
338.802
338.713
338.62
338.527
338.432
338.338
338.242
338.146
338.052
337.952
337.854
337.756
337.653
337.547
337.443
337.339
337.234
337.126
337.015
336.903
336.793
336.683
336.575
336.467
336.353
336.235
336.118
336.002
335.886
335.767
335.646
335.527
335.409
335.287
335.163
335.037
334.908
334.787
334.665
334.538
334.413
334.288
334.161
334.033
333.904
333.776
333.645
333.512
333.382
333.252
333.118
332.983
332.851
332.719
332.585
332.456
332.329
332.198
332.066
331.93
331.79
331.656
331.52
331.381
331.246
331.11
330.97
330.833
330.698
330.562
330.42
330.28
330.14
330.001
329.862
329.723
329.584
329.444
329.306
329.169
329.031
328.892
328.756
328.618
328.476
328.334
328.196
328.06
327.925
327.788
327.65
327.511
327.375
327.237
327.097
326.959
326.823
326.685
326.548
326.413
326.277
326.143
326.005
325.863
325.723
325.586
325.45
325.312
325.176
325.04
324.901
324.763
324.627
324.494
324.36
324.225
324.088
323.948
323.811
323.677
323.547
323.42
323.292
323.163
323.036
322.904
322.772
322.643
322.511
322.379
322.246
322.115
321.988
321.863
321.736
321.609
321.483
321.357
321.231
321.103
320.977
320.85
320.722
320.598
320.475
320.35
320.224
320.096
319.969
319.845
319.723
319.6
319.479
319.359
319.24
319.121
319.006
318.892
318.778
318.663
318.549
318.433
318.318
318.207
318.095
317.982
317.869
317.761
317.651
317.539
317.427
317.313
317.192
317.055
316.908
316.768
316.642
316.528
316.422
316.318
316.212
316.105
315.997
315.887
315.776
315.665
315.558
315.457
315.36
315.263
315.164
315.064
314.965
314.868
314.772
314.676
314.583
314.49
314.397
314.305
314.213
314.122
314.032
313.942
313.852
313.765
313.678
313.591
313.505
313.419
313.333
313.248
313.163
313.08
312.996
312.913
312.83
312.745
312.661
312.579
312.498
312.419
312.341
312.265
312.189
312.113
312.038
311.964
311.893
311.823
311.75
311.673
311.578
311.454
311.346
311.26
311.185
311.113
311.044
310.976
310.909
310.843
310.776
310.707
310.637
310.568
310.501
310.436
310.372
310.306
310.24
310.176
310.113
310.049
309.983
309.919
309.855
309.792
309.732
309.676
309.62
309.563
309.504
309.445
309.387
309.329
309.271
309.213
309.157
309.102
309.048
308.995
308.943
308.891
308.84
308.791
308.743
308.696
308.649
308.6
308.546
308.493
308.442
308.392
308.342
308.29
308.233
308.175
308.122
308.072
308.026
307.982
307.939
307.898
307.858
307.818
307.779
307.739
307.7
307.66
307.62
307.582
307.545
307.509
307.474
307.44
307.405
307.368
307.33
307.292
307.255
307.22
307.186
307.153
307.12
307.087
307.055
307.024
306.993
306.963
306.934
306.906
306.877
306.85
306.822
306.796
306.771
306.745
306.72
306.696
306.671
306.646
306.622
306.598
306.576
306.554
306.532
306.511
306.49
306.469
306.449
306.43
306.411
306.392
306.374
306.357
306.34
306.323
306.307
306.29
306.274
306.258
306.243
306.229
306.215
306.202
306.19
306.178
306.167
306.156
306.145
306.135
306.125
306.116
306.107
306.098
306.091
306.083
306.076
306.069
306.063
306.057
306.051
306.046
306.042
306.038
306.034
306.031
306.028
306.026
306.024
306.022
306.021
306.021
306.02
339.968
339.902
339.833
339.762
339.69
339.616
339.542
339.466
339.387
339.308
339.228
339.149
339.067
338.977
338.888
338.802
338.713
338.621
338.529
338.432
338.336
338.241
338.146
338.051
337.953
337.855
337.757
337.654
337.549
337.444
337.336
337.231
337.125
337.014
336.901
336.792
336.686
336.577
336.465
336.35
336.235
336.118
336.001
335.885
335.768
335.649
335.53
335.411
335.287
335.161
335.036
334.91
334.786
334.663
334.539
334.413
334.287
334.161
334.032
333.904
333.777
333.647
333.514
333.382
333.253
333.119
332.982
332.848
332.716
332.585
332.455
332.328
332.197
332.064
331.93
331.791
331.654
331.519
331.383
331.244
331.106
330.971
330.834
330.699
330.562
330.421
330.28
330.141
330.001
329.861
329.723
329.586
329.447
329.308
329.171
329.034
328.893
328.754
328.617
328.477
328.333
328.191
328.057
327.922
327.785
327.649
327.511
327.376
327.239
327.099
326.961
326.825
326.689
326.55
326.409
326.274
326.143
326.006
325.864
325.725
325.587
325.45
325.313
325.177
325.039
324.899
324.763
324.629
324.496
324.361
324.226
324.088
323.947
323.807
323.674
323.545
323.418
323.292
323.164
323.036
322.906
322.775
322.643
322.51
322.379
322.247
322.116
321.99
321.863
321.736
321.61
321.484
321.358
321.231
321.103
320.975
320.848
320.722
320.6
320.477
320.351
320.224
320.096
319.967
319.843
319.722
319.595
319.47
319.353
319.236
319.121
319.008
318.894
318.78
318.665
318.551
318.436
318.322
318.209
318.098
317.986
317.874
317.764
317.654
317.544
317.43
317.304
317.162
317.013
316.875
316.749
316.632
316.525
316.421
316.316
316.21
316.104
315.999
315.891
315.781
315.67
315.562
315.46
315.361
315.264
315.165
315.066
314.969
314.872
314.776
314.681
314.587
314.493
314.399
314.305
314.213
314.122
314.033
313.944
313.855
313.766
313.678
313.592
313.505
313.418
313.333
313.248
313.164
313.08
312.997
312.913
312.829
312.744
312.661
312.577
312.496
312.417
312.34
312.264
312.189
312.112
312.036
311.962
311.891
311.817
311.737
311.65
311.551
311.442
311.348
311.267
311.192
311.121
311.051
310.982
310.914
310.846
310.777
310.708
310.639
310.571
310.505
310.44
310.375
310.309
310.242
310.176
310.112
310.046
309.98
309.915
309.852
309.792
309.734
309.678
309.621
309.562
309.503
309.444
309.386
309.328
309.271
309.214
309.158
309.103
309.05
308.997
308.944
308.892
308.841
308.792
308.745
308.7
308.652
308.599
308.543
308.486
308.432
308.382
308.332
308.281
308.227
308.175
308.124
308.076
308.029
307.985
307.942
307.901
307.861
307.821
307.78
307.74
307.7
307.659
307.62
307.582
307.546
307.51
307.475
307.44
307.403
307.365
307.327
307.291
307.255
307.221
307.187
307.154
307.121
307.088
307.055
307.024
306.993
306.962
306.933
306.905
306.877
306.85
306.823
306.796
306.771
306.745
306.72
306.695
306.67
306.646
306.622
306.599
306.576
306.554
306.533
306.511
306.49
306.469
306.449
306.43
306.411
306.393
306.375
306.357
306.34
306.324
306.307
306.29
306.273
306.257
306.242
306.228
306.215
306.202
306.19
306.178
306.167
306.156
306.145
306.135
306.125
306.116
306.107
306.099
306.09
306.083
306.076
306.069
306.063
306.057
306.051
306.046
306.042
306.038
306.034
306.031
306.028
306.026
306.024
306.022
306.021
306.021
306.02
339.968
339.903
339.835
339.763
339.69
339.616
339.54
339.464
339.387
339.31
339.229
339.149
339.066
338.977
338.889
338.8
338.71
338.622
338.53
338.436
338.339
338.241
338.145
338.05
337.954
337.854
337.755
337.654
337.552
337.445
337.336
337.23
337.122
337.013
336.902
336.792
336.685
336.577
336.465
336.35
336.235
336.118
336.002
335.887
335.769
335.649
335.53
335.411
335.289
335.162
335.034
334.91
334.788
334.662
334.538
334.414
334.287
334.16
334.033
333.906
333.777
333.649
333.516
333.382
333.252
333.117
332.979
332.847
332.716
332.585
332.456
332.326
332.193
332.06
331.929
331.791
331.653
331.517
331.381
331.246
331.108
330.971
330.835
330.699
330.562
330.422
330.283
330.142
330
329.86
329.724
329.589
329.448
329.308
329.171
329.033
328.894
328.756
328.615
328.473
328.332
328.193
328.056
327.919
327.782
327.647
327.513
327.38
327.242
327.099
326.959
326.824
326.69
326.551
326.411
326.275
326.142
326.006
325.867
325.725
325.587
325.449
325.313
325.177
325.038
324.901
324.765
324.631
324.496
324.361
324.224
324.085
323.944
323.806
323.675
323.545
323.416
323.289
323.162
323.035
322.906
322.776
322.645
322.512
322.379
322.249
322.119
321.99
321.862
321.736
321.61
321.484
321.357
321.229
321.102
320.974
320.85
320.726
320.602
320.478
320.35
320.222
320.095
319.968
319.842
319.716
319.589
319.466
319.35
319.236
319.122
319.009
318.896
318.781
318.666
318.553
318.439
318.325
318.213
318.101
317.989
317.879
317.771
317.663
317.549
317.416
317.266
317.118
316.981
316.856
316.739
316.629
316.525
316.422
316.317
316.211
316.106
316.002
315.895
315.785
315.673
315.565
315.462
315.363
315.265
315.167
315.069
314.972
314.876
314.78
314.685
314.59
314.495
314.401
314.307
314.215
314.124
314.035
313.945
313.855
313.766
313.678
313.592
313.505
313.419
313.333
313.248
313.164
313.081
312.998
312.913
312.828
312.745
312.66
312.575
312.493
312.415
312.339
312.263
312.187
312.109
312.032
311.959
311.886
311.809
311.721
311.625
311.531
311.439
311.353
311.273
311.199
311.127
311.057
310.987
310.918
310.848
310.779
310.71
310.641
310.574
310.509
310.444
310.377
310.31
310.244
310.176
310.108
310.042
309.976
309.913
309.852
309.793
309.736
309.679
309.621
309.561
309.501
309.443
309.385
309.328
309.271
309.215
309.159
309.105
309.051
308.998
308.945
308.893
308.843
308.794
308.748
308.704
308.654
308.592
308.53
308.475
308.425
308.375
308.326
308.275
308.224
308.174
308.126
308.078
308.032
307.988
307.945
307.904
307.863
307.823
307.782
307.741
307.7
307.659
307.62
307.583
307.546
307.51
307.475
307.439
307.401
307.364
307.327
307.291
307.256
307.222
307.188
307.155
307.122
307.089
307.056
307.024
306.993
306.963
306.933
306.905
306.877
306.85
306.823
306.797
306.771
306.745
306.72
306.695
306.671
306.646
306.622
306.599
306.577
306.555
306.533
306.512
306.49
306.469
306.449
306.43
306.411
306.393
306.375
306.357
306.34
306.324
306.307
306.29
306.273
306.257
306.242
306.228
306.215
306.202
306.19
306.178
306.167
306.156
306.145
306.135
306.126
306.116
306.107
306.099
306.09
306.083
306.076
306.069
306.063
306.057
306.051
306.046
306.042
306.038
306.034
306.031
306.028
306.026
306.024
306.022
306.021
306.02
306.02
339.968
339.903
339.835
339.764
339.692
339.616
339.54
339.463
339.386
339.308
339.229
339.149
339.064
338.975
338.888
338.8
338.711
338.621
338.53
338.438
338.339
338.241
338.147
338.052
337.955
337.854
337.754
337.653
337.55
337.445
337.336
337.228
337.121
337.013
336.904
336.794
336.685
336.575
336.463
336.352
336.237
336.119
336.002
335.887
335.768
335.648
335.53
335.41
335.288
335.163
335.035
334.911
334.789
334.663
334.537
334.414
334.288
334.16
334.034
333.906
333.779
333.651
333.518
333.38
333.247
333.116
332.981
332.845
332.713
332.585
332.457
332.326
332.191
332.058
331.926
331.79
331.654
331.517
331.381
331.246
331.109
330.971
330.836
330.7
330.56
330.421
330.283
330.143
330.002
329.861
329.725
329.59
329.45
329.309
329.17
329.035
328.898
328.756
328.612
328.473
328.332
328.192
328.054
327.916
327.782
327.648
327.513
327.38
327.242
327.099
326.96
326.826
326.69
326.552
326.413
326.277
326.143
326.006
325.866
325.725
325.585
325.448
325.313
325.177
325.038
324.9
324.767
324.632
324.495
324.358
324.222
324.085
323.946
323.809
323.675
323.544
323.414
323.286
323.16
323.034
322.906
322.777
322.646
322.514
322.382
322.249
322.119
321.991
321.864
321.739
321.611
321.483
321.357
321.229
321.1
320.974
320.851
320.728
320.603
320.477
320.348
320.218
320.092
319.968
319.841
319.713
319.587
319.465
319.349
319.235
319.122
319.009
318.896
318.782
318.668
318.554
318.442
318.328
318.215
318.103
317.993
317.885
317.779
317.667
317.534
317.373
317.22
317.087
316.963
316.845
316.736
316.63
316.527
316.424
316.319
316.214
316.109
316.003
315.896
315.786
315.676
315.568
315.465
315.366
315.268
315.17
315.073
314.975
314.879
314.783
314.688
314.592
314.497
314.402
314.309
314.217
314.126
314.036
313.946
313.856
313.767
313.68
313.593
313.506
313.419
313.334
313.248
313.164
313.08
312.998
312.914
312.83
312.745
312.659
312.572
312.491
312.413
312.338
312.262
312.183
312.103
312.027
311.952
311.875
311.793
311.703
311.613
311.525
311.439
311.357
311.279
311.205
311.133
311.062
310.992
310.922
310.852
310.782
310.712
310.644
310.577
310.511
310.445
310.379
310.312
310.244
310.174
310.104
310.038
309.974
309.913
309.853
309.794
309.736
309.679
309.62
309.56
309.501
309.443
309.386
309.329
309.272
309.216
309.161
309.106
309.052
308.999
308.946
308.894
308.844
308.796
308.75
308.705
308.649
308.581
308.522
308.47
308.421
308.371
308.322
308.272
308.222
308.173
308.126
308.079
308.034
307.99
307.947
307.906
307.865
307.824
307.783
307.741
307.7
307.661
307.622
307.584
307.547
307.51
307.474
307.437
307.4
307.364
307.327
307.291
307.256
307.222
307.189
307.156
307.123
307.089
307.056
307.024
306.993
306.963
306.934
306.906
306.877
306.85
306.823
306.797
306.771
306.745
306.72
306.695
306.671
306.646
306.622
306.599
306.577
306.555
306.533
306.512
306.49
306.47
306.45
306.43
306.411
306.393
306.375
306.357
306.34
306.323
306.307
306.29
306.273
306.257
306.242
306.228
306.215
306.202
306.19
306.178
306.167
306.156
306.145
306.135
306.126
306.116
306.107
306.099
306.09
306.083
306.076
306.069
306.063
306.057
306.051
306.046
306.042
306.038
306.034
306.031
306.028
306.026
306.024
306.022
306.021
306.02
306.02
339.968
339.902
339.835
339.765
339.692
339.617
339.541
339.464
339.385
339.307
339.227
339.147
339.063
338.975
338.888
338.801
338.712
338.619
338.528
338.437
338.342
338.245
338.149
338.052
337.955
337.856
337.753
337.65
337.549
337.443
337.335
337.228
337.122
337.013
336.902
336.793
336.685
336.576
336.465
336.351
336.237
336.121
336.004
335.887
335.768
335.648
335.529
335.408
335.285
335.16
335.036
334.913
334.788
334.663
334.539
334.414
334.289
334.163
334.037
333.908
333.778
333.65
333.516
333.38
333.246
333.114
332.98
332.844
332.711
332.584
332.456
332.323
332.188
332.057
331.925
331.79
331.653
331.517
331.384
331.248
331.11
330.973
330.835
330.697
330.558
330.421
330.284
330.143
330
329.861
329.726
329.59
329.451
329.312
329.173
329.035
328.896
328.757
328.614
328.47
328.328
328.19
328.052
327.916
327.783
327.649
327.515
327.381
327.242
327.101
326.962
326.825
326.689
326.553
326.416
326.28
326.143
326.002
325.862
325.724
325.586
325.448
325.314
325.177
325.036
324.898
324.767
324.634
324.497
324.357
324.22
324.085
323.948
323.811
323.674
323.543
323.414
323.286
323.161
323.036
322.907
322.775
322.645
322.515
322.382
322.249
322.121
321.994
321.866
321.738
321.611
321.484
321.358
321.228
321.099
320.974
320.85
320.726
320.602
320.476
320.346
320.217
320.091
319.965
319.836
319.709
319.586
319.467
319.35
319.234
319.121
319.01
318.897
318.782
318.667
318.556
318.444
318.33
318.216
318.106
317.999
317.893
317.78
317.648
317.488
317.328
317.193
317.07
316.953
316.843
316.737
316.632
316.528
316.425
316.322
316.217
316.111
316.005
315.897
315.789
315.679
315.572
315.469
315.369
315.271
315.174
315.076
314.979
314.882
314.785
314.689
314.593
314.499
314.405
314.312
314.22
314.128
314.038
313.948
313.858
313.769
313.681
313.594
313.507
313.42
313.333
313.248
313.164
313.081
312.998
312.914
312.83
312.745
312.657
312.57
312.488
312.411
312.336
312.259
312.178
312.097
312.019
311.941
311.862
311.78
311.695
311.609
311.524
311.442
311.362
311.284
311.21
311.137
311.066
310.995
310.925
310.854
310.784
310.715
310.647
310.579
310.513
310.446
310.379
310.311
310.242
310.172
310.103
310.038
309.975
309.914
309.854
309.795
309.736
309.679
309.62
309.56
309.501
309.443
309.386
309.33
309.273
309.217
309.161
309.107
309.053
309
308.947
308.895
308.844
308.796
308.749
308.7
308.64
308.575
308.519
308.467
308.418
308.369
308.32
308.27
308.221
308.173
308.126
308.08
308.036
307.992
307.949
307.907
307.866
307.825
307.783
307.742
307.701
307.662
307.623
307.584
307.547
307.51
307.473
307.437
307.4
307.363
307.327
307.291
307.256
307.222
307.189
307.156
307.123
307.089
307.057
307.025
306.993
306.963
306.934
306.906
306.878
306.85
306.823
306.797
306.771
306.745
306.72
306.695
306.671
306.646
306.623
306.6
306.577
306.555
306.533
306.512
306.491
306.47
306.45
306.43
306.411
306.392
306.374
306.357
306.34
306.323
306.306
306.29
306.273
306.257
306.242
306.228
306.215
306.202
306.19
306.178
306.167
306.156
306.145
306.135
306.126
306.116
306.107
306.099
306.091
306.083
306.076
306.069
306.063
306.057
306.051
306.046
306.042
306.038
306.034
306.031
306.028
306.026
306.024
306.022
306.021
306.02
306.02
339.968
339.902
339.835
339.764
339.692
339.617
339.541
339.464
339.387
339.308
339.227
339.145
339.061
338.973
338.887
338.801
338.711
338.619
338.529
338.437
338.342
338.246
338.149
338.051
337.954
337.855
337.752
337.65
337.548
337.442
337.335
337.229
337.122
337.013
336.902
336.793
336.686
336.578
336.468
336.351
336.235
336.12
336.005
335.887
335.768
335.648
335.528
335.407
335.285
335.159
335.036
334.915
334.791
334.663
334.539
334.416
334.29
334.164
334.038
333.908
333.779
333.649
333.517
333.381
333.245
333.11
332.976
332.843
332.71
332.582
332.454
332.323
332.19
332.058
331.924
331.787
331.651
331.518
331.386
331.25
331.111
330.972
330.835
330.696
330.558
330.422
330.284
330.144
330.002
329.861
329.725
329.589
329.451
329.313
329.175
329.035
328.896
328.757
328.614
328.47
328.328
328.189
328.051
327.916
327.783
327.649
327.515
327.38
327.241
327.104
326.968
326.829
326.69
326.553
326.416
326.28
326.141
326.001
325.863
325.724
325.585
325.448
325.312
325.176
325.038
324.9
324.765
324.631
324.496
324.361
324.225
324.087
323.947
323.807
323.673
323.542
323.413
323.287
323.162
323.036
322.906
322.773
322.643
322.513
322.383
322.253
322.124
321.995
321.867
321.74
321.611
321.484
321.357
321.229
321.102
320.975
320.85
320.724
320.599
320.474
320.346
320.218
320.089
319.959
319.831
319.706
319.585
319.466
319.351
319.236
319.122
319.009
318.896
318.783
318.67
318.558
318.444
318.33
318.218
318.111
318.004
317.889
317.755
317.599
317.445
317.307
317.181
317.063
316.952
316.845
316.74
316.635
316.53
316.426
316.322
316.218
316.113
316.007
315.899
315.791
315.682
315.575
315.472
315.372
315.274
315.177
315.079
314.982
314.884
314.788
314.692
314.596
314.501
314.407
314.314
314.221
314.13
314.04
313.95
313.86
313.77
313.682
313.595
313.507
313.42
313.333
313.249
313.165
313.081
312.998
312.916
312.832
312.744
312.651
312.563
312.484
312.409
312.333
312.254
312.171
312.091
312.012
311.933
311.854
311.773
311.691
311.608
311.525
311.444
311.365
311.288
311.213
311.141
311.069
310.998
310.927
310.856
310.786
310.717
310.649
310.582
310.514
310.446
310.378
310.309
310.24
310.171
310.104
310.04
309.977
309.915
309.854
309.796
309.737
309.679
309.62
309.56
309.501
309.443
309.387
309.33
309.273
309.217
309.162
309.108
309.054
309
308.947
308.895
308.844
308.796
308.748
308.693
308.632
308.572
308.517
308.466
308.417
308.368
308.318
308.268
308.22
308.173
308.127
308.082
308.037
307.993
307.951
307.909
307.867
307.825
307.784
307.743
307.702
307.663
307.624
307.585
307.547
307.51
307.473
307.436
307.399
307.363
307.327
307.291
307.256
307.222
307.189
307.156
307.123
307.09
307.057
307.025
306.994
306.963
306.934
306.906
306.878
306.85
306.823
306.797
306.771
306.745
306.72
306.695
306.671
306.646
306.623
306.6
306.577
306.555
306.534
306.512
306.491
306.47
306.45
306.43
306.411
306.393
306.374
306.357
306.34
306.323
306.306
306.289
306.273
306.257
306.242
306.228
306.215
306.202
306.19
306.178
306.166
306.156
306.145
306.135
306.126
306.116
306.107
306.099
306.091
306.083
306.076
306.069
306.063
306.057
306.051
306.046
306.042
306.038
306.034
306.031
306.028
306.025
306.023
306.022
306.021
306.02
306.02
339.967
339.9
339.834
339.765
339.692
339.617
339.542
339.465
339.387
339.309
339.228
339.145
339.06
338.975
338.887
338.8
338.711
338.62
338.529
338.438
338.344
338.245
338.147
338.051
337.952
337.852
337.752
337.651
337.546
337.441
337.337
337.229
337.12
337.012
336.904
336.796
336.686
336.577
336.468
336.353
336.235
336.12
336.005
335.887
335.767
335.649
335.527
335.406
335.283
335.158
335.035
334.915
334.791
334.664
334.54
334.416
334.29
334.165
334.039
333.909
333.779
333.649
333.516
333.381
333.244
333.107
332.973
332.842
332.71
332.582
332.455
332.325
332.191
332.057
331.923
331.786
331.651
331.518
331.384
331.248
331.111
330.974
330.836
330.696
330.557
330.421
330.285
330.145
330.002
329.863
329.726
329.588
329.449
329.312
329.176
329.038
328.898
328.757
328.612
328.468
328.328
328.189
328.051
327.917
327.784
327.649
327.513
327.377
327.241
327.105
326.969
326.831
326.693
326.553
326.414
326.278
326.141
326.002