/*--------------------------------*- C++ -*----------------------------------*\
  =========                 |
  \\      /  F ield         | OpenFOAM: The Open Source CFD Toolbox
   \\    /   O peration     | Website:  https://openfoam.org
    \\  /    A nd           | Version:  7
     \\/     M anipulation  |
\*---------------------------------------------------------------------------*/
FoamFile
{
    version     2.0;
    format      ascii;
    class       volVectorField;
    location    "0.0005";
    object      Ur;
}
// * * * * * * * * * * * * * * * * * * * * * * * * * * * * * * * * * * * * * //

dimensions      [0 1 -1 0 0 0 0];

internalField   uniform (0 0 0);

boundaryField
{
    innerWall
    {
        type            calculated;
        value           nonuniform List<vector> 
800
(
(0.00393485 1.002 0)
(0.0118043 1.00193 0)
(0.019673 1.00181 0)
(0.0275405 1.00162 0)
(0.0354063 1.00138 0)
(0.04327 1.00107 0)
(0.0511309 1.0007 0)
(0.0589887 1.00027 0)
(0.0668429 0.999771 0)
(0.0746929 0.999215 0)
(0.0825384 0.998598 0)
(0.0903787 0.997919 0)
(0.0982135 0.997178 0)
(0.106042 0.996376 0)
(0.113864 0.995512 0)
(0.12168 0.994587 0)
(0.129487 0.993601 0)
(0.137287 0.992553 0)
(0.145078 0.991445 0)
(0.15286 0.990275 0)
(0.160633 0.989044 0)
(0.168396 0.987751 0)
(0.176148 0.986398 0)
(0.18389 0.984984 0)
(0.19162 0.98351 0)
(0.199339 0.981975 0)
(0.207045 0.980379 0)
(0.214738 0.978722 0)
(0.222419 0.977006 0)
(0.230085 0.975229 0)
(0.237737 0.973391 0)
(0.245375 0.971494 0)
(0.252997 0.969537 0)
(0.260604 0.96752 0)
(0.268195 0.965444 0)
(0.275769 0.963308 0)
(0.283326 0.961112 0)
(0.290866 0.958857 0)
(0.298388 0.956543 0)
(0.305891 0.95417 0)
(0.313376 0.951738 0)
(0.320841 0.949248 0)
(0.328286 0.946698 0)
(0.335712 0.944091 0)
(0.343116 0.941425 0)
(0.350499 0.938701 0)
(0.357861 0.93592 0)
(0.365201 0.93308 0)
(0.372518 0.930183 0)
(0.379812 0.927229 0)
(0.387082 0.924217 0)
(0.394329 0.921149 0)
(0.401552 0.918023 0)
(0.408749 0.914841 0)
(0.415922 0.911603 0)
(0.423069 0.908308 0)
(0.430189 0.904957 0)
(0.437283 0.90155 0)
(0.444351 0.898088 0)
(0.45139 0.894571 0)
(0.458402 0.890998 0)
(0.465386 0.88737 0)
(0.472341 0.883688 0)
(0.479267 0.879951 0)
(0.486163 0.87616 0)
(0.493029 0.872314 0)
(0.499865 0.868415 0)
(0.50667 0.864462 0)
(0.513444 0.860456 0)
(0.520186 0.856397 0)
(0.526896 0.852285 0)
(0.533574 0.848121 0)
(0.540218 0.843904 0)
(0.54683 0.839635 0)
(0.553407 0.835315 0)
(0.55995 0.830943 0)
(0.566459 0.826519 0)
(0.572933 0.822045 0)
(0.579372 0.81752 0)
(0.585775 0.812944 0)
(0.592141 0.808318 0)
(0.598472 0.803643 0)
(0.604765 0.798918 0)
(0.611021 0.794143 0)
(0.617239 0.78932 0)
(0.623419 0.784448 0)
(0.629561 0.779527 0)
(0.635664 0.774559 0)
(0.641728 0.769542 0)
(0.647752 0.764479 0)
(0.653736 0.759368 0)
(0.65968 0.75421 0)
(0.665583 0.749006 0)
(0.671445 0.743755 0)
(0.677266 0.738459 0)
(0.683045 0.733117 0)
(0.688781 0.72773 0)
(0.694476 0.722297 0)
(0.700127 0.716821 0)
(0.705735 0.7113 0)
(0.7113 0.705735 0)
(0.716821 0.700127 0)
(0.722297 0.694476 0)
(0.72773 0.688781 0)
(0.733117 0.683045 0)
(0.738459 0.677266 0)
(0.743755 0.671445 0)
(0.749006 0.665583 0)
(0.75421 0.65968 0)
(0.759368 0.653736 0)
(0.764479 0.647752 0)
(0.769542 0.641728 0)
(0.774559 0.635664 0)
(0.779527 0.629561 0)
(0.784448 0.623419 0)
(0.78932 0.617239 0)
(0.794143 0.611021 0)
(0.798918 0.604765 0)
(0.803643 0.598472 0)
(0.808318 0.592141 0)
(0.812944 0.585775 0)
(0.81752 0.579372 0)
(0.822045 0.572933 0)
(0.826519 0.566459 0)
(0.830943 0.55995 0)
(0.835315 0.553407 0)
(0.839635 0.54683 0)
(0.843904 0.540218 0)
(0.848121 0.533574 0)
(0.852285 0.526896 0)
(0.856397 0.520186 0)
(0.860456 0.513444 0)
(0.864462 0.50667 0)
(0.868415 0.499865 0)
(0.872314 0.493029 0)
(0.87616 0.486163 0)
(0.879951 0.479267 0)
(0.883688 0.472341 0)
(0.88737 0.465386 0)
(0.890998 0.458402 0)
(0.894571 0.45139 0)
(0.898088 0.444351 0)
(0.90155 0.437283 0)
(0.904957 0.430189 0)
(0.908308 0.423069 0)
(0.911603 0.415922 0)
(0.914841 0.408749 0)
(0.918023 0.401552 0)
(0.921149 0.394329 0)
(0.924217 0.387082 0)
(0.927229 0.379812 0)
(0.930183 0.372518 0)
(0.93308 0.365201 0)
(0.93592 0.357861 0)
(0.938701 0.350499 0)
(0.941425 0.343116 0)
(0.944091 0.335712 0)
(0.946698 0.328286 0)
(0.949248 0.320841 0)
(0.951738 0.313376 0)
(0.95417 0.305891 0)
(0.956543 0.298388 0)
(0.958857 0.290866 0)
(0.961112 0.283326 0)
(0.963308 0.275769 0)
(0.965444 0.268195 0)
(0.96752 0.260604 0)
(0.969537 0.252997 0)
(0.971494 0.245375 0)
(0.973391 0.237737 0)
(0.975229 0.230085 0)
(0.977006 0.222419 0)
(0.978722 0.214738 0)
(0.980379 0.207045 0)
(0.981975 0.199339 0)
(0.98351 0.19162 0)
(0.984984 0.18389 0)
(0.986398 0.176148 0)
(0.987751 0.168396 0)
(0.989044 0.160633 0)
(0.990275 0.15286 0)
(0.991445 0.145078 0)
(0.992553 0.137287 0)
(0.993601 0.129487 0)
(0.994587 0.12168 0)
(0.995512 0.113864 0)
(0.996376 0.106042 0)
(0.997178 0.0982135 0)
(0.997919 0.0903787 0)
(0.998598 0.0825384 0)
(0.999215 0.0746929 0)
(0.999771 0.0668429 0)
(1.00027 0.0589887 0)
(1.0007 0.0511309 0)
(1.00107 0.04327 0)
(1.00138 0.0354063 0)
(1.00162 0.0275405 0)
(1.00181 0.019673 0)
(1.00193 0.0118043 0)
(1.002 0.00393485 0)
(-1.002 0.00393485 0)
(-1.00193 0.0118043 0)
(-1.00181 0.019673 0)
(-1.00162 0.0275405 0)
(-1.00138 0.0354063 0)
(-1.00107 0.04327 0)
(-1.0007 0.0511309 0)
(-1.00027 0.0589887 0)
(-0.999771 0.0668429 0)
(-0.999215 0.0746929 0)
(-0.998598 0.0825384 0)
(-0.997919 0.0903787 0)
(-0.997178 0.0982135 0)
(-0.996376 0.106042 0)
(-0.995512 0.113864 0)
(-0.994587 0.12168 0)
(-0.993601 0.129487 0)
(-0.992553 0.137287 0)
(-0.991445 0.145078 0)
(-0.990275 0.15286 0)
(-0.989044 0.160633 0)
(-0.987751 0.168396 0)
(-0.986398 0.176148 0)
(-0.984984 0.18389 0)
(-0.98351 0.19162 0)
(-0.981975 0.199339 0)
(-0.980379 0.207045 0)
(-0.978722 0.214738 0)
(-0.977006 0.222419 0)
(-0.975229 0.230085 0)
(-0.973391 0.237737 0)
(-0.971494 0.245375 0)
(-0.969537 0.252997 0)
(-0.96752 0.260604 0)
(-0.965444 0.268195 0)
(-0.963308 0.275769 0)
(-0.961112 0.283326 0)
(-0.958857 0.290866 0)
(-0.956543 0.298388 0)
(-0.95417 0.305891 0)
(-0.951738 0.313376 0)
(-0.949248 0.320841 0)
(-0.946698 0.328286 0)
(-0.944091 0.335712 0)
(-0.941425 0.343116 0)
(-0.938701 0.350499 0)
(-0.93592 0.357861 0)
(-0.93308 0.365201 0)
(-0.930183 0.372518 0)
(-0.927229 0.379812 0)
(-0.924217 0.387082 0)
(-0.921149 0.394329 0)
(-0.918023 0.401552 0)
(-0.914841 0.408749 0)
(-0.911603 0.415922 0)
(-0.908308 0.423069 0)
(-0.904957 0.430189 0)
(-0.90155 0.437283 0)
(-0.898088 0.444351 0)
(-0.894571 0.45139 0)
(-0.890998 0.458402 0)
(-0.88737 0.465386 0)
(-0.883688 0.472341 0)
(-0.879951 0.479267 0)
(-0.87616 0.486163 0)
(-0.872314 0.493029 0)
(-0.868415 0.499865 0)
(-0.864462 0.50667 0)
(-0.860456 0.513444 0)
(-0.856397 0.520186 0)
(-0.852285 0.526896 0)
(-0.848121 0.533574 0)
(-0.843904 0.540218 0)
(-0.839635 0.54683 0)
(-0.835315 0.553407 0)
(-0.830943 0.55995 0)
(-0.826519 0.566459 0)
(-0.822045 0.572933 0)
(-0.81752 0.579372 0)
(-0.812944 0.585775 0)
(-0.808318 0.592141 0)
(-0.803643 0.598472 0)
(-0.798918 0.604765 0)
(-0.794143 0.611021 0)
(-0.78932 0.617239 0)
(-0.784448 0.623419 0)
(-0.779527 0.629561 0)
(-0.774559 0.635664 0)
(-0.769542 0.641728 0)
(-0.764479 0.647752 0)
(-0.759368 0.653736 0)
(-0.75421 0.65968 0)
(-0.749006 0.665583 0)
(-0.743755 0.671445 0)
(-0.738459 0.677266 0)
(-0.733117 0.683045 0)
(-0.72773 0.688781 0)
(-0.722297 0.694476 0)
(-0.716821 0.700127 0)
(-0.7113 0.705735 0)
(-0.705735 0.7113 0)
(-0.700127 0.716821 0)
(-0.694476 0.722297 0)
(-0.688781 0.72773 0)
(-0.683045 0.733117 0)
(-0.677266 0.738459 0)
(-0.671445 0.743755 0)
(-0.665583 0.749006 0)
(-0.65968 0.75421 0)
(-0.653736 0.759368 0)
(-0.647752 0.764479 0)
(-0.641728 0.769542 0)
(-0.635664 0.774559 0)
(-0.629561 0.779527 0)
(-0.623419 0.784448 0)
(-0.617239 0.78932 0)
(-0.611021 0.794143 0)
(-0.604765 0.798918 0)
(-0.598472 0.803643 0)
(-0.592141 0.808318 0)
(-0.585775 0.812944 0)
(-0.579372 0.81752 0)
(-0.572933 0.822045 0)
(-0.566459 0.826519 0)
(-0.55995 0.830943 0)
(-0.553407 0.835315 0)
(-0.54683 0.839635 0)
(-0.540218 0.843904 0)
(-0.533574 0.848121 0)
(-0.526896 0.852285 0)
(-0.520186 0.856397 0)
(-0.513444 0.860456 0)
(-0.50667 0.864462 0)
(-0.499865 0.868415 0)
(-0.493029 0.872314 0)
(-0.486163 0.87616 0)
(-0.479267 0.879951 0)
(-0.472341 0.883688 0)
(-0.465386 0.88737 0)
(-0.458402 0.890998 0)
(-0.45139 0.894571 0)
(-0.444351 0.898088 0)
(-0.437283 0.90155 0)
(-0.430189 0.904957 0)
(-0.423069 0.908308 0)
(-0.415922 0.911603 0)
(-0.408749 0.914841 0)
(-0.401552 0.918023 0)
(-0.394329 0.921149 0)
(-0.387082 0.924217 0)
(-0.379812 0.927229 0)
(-0.372518 0.930183 0)
(-0.365201 0.93308 0)
(-0.357861 0.93592 0)
(-0.350499 0.938701 0)
(-0.343116 0.941425 0)
(-0.335712 0.944091 0)
(-0.328286 0.946698 0)
(-0.320841 0.949248 0)
(-0.313376 0.951738 0)
(-0.305891 0.95417 0)
(-0.298388 0.956543 0)
(-0.290866 0.958857 0)
(-0.283326 0.961112 0)
(-0.275769 0.963308 0)
(-0.268195 0.965444 0)
(-0.260604 0.96752 0)
(-0.252997 0.969537 0)
(-0.245375 0.971494 0)
(-0.237737 0.973391 0)
(-0.230085 0.975229 0)
(-0.222419 0.977006 0)
(-0.214738 0.978722 0)
(-0.207045 0.980379 0)
(-0.199339 0.981975 0)
(-0.19162 0.98351 0)
(-0.18389 0.984984 0)
(-0.176148 0.986398 0)
(-0.168396 0.987751 0)
(-0.160633 0.989044 0)
(-0.15286 0.990275 0)
(-0.145078 0.991445 0)
(-0.137287 0.992553 0)
(-0.129487 0.993601 0)
(-0.12168 0.994587 0)
(-0.113864 0.995512 0)
(-0.106042 0.996376 0)
(-0.0982135 0.997178 0)
(-0.0903787 0.997919 0)
(-0.0825384 0.998598 0)
(-0.0746929 0.999215 0)
(-0.0668429 0.999771 0)
(-0.0589887 1.00027 0)
(-0.0511309 1.0007 0)
(-0.04327 1.00107 0)
(-0.0354063 1.00138 0)
(-0.0275405 1.00162 0)
(-0.019673 1.00181 0)
(-0.0118043 1.00193 0)
(-0.00393485 1.002 0)
(-0.00393485 -1.002 0)
(-0.0118043 -1.00193 0)
(-0.019673 -1.00181 0)
(-0.0275405 -1.00162 0)
(-0.0354063 -1.00138 0)
(-0.04327 -1.00107 0)
(-0.0511309 -1.0007 0)
(-0.0589887 -1.00027 0)
(-0.0668429 -0.999771 0)
(-0.0746929 -0.999215 0)
(-0.0825384 -0.998598 0)
(-0.0903787 -0.997919 0)
(-0.0982135 -0.997178 0)
(-0.106042 -0.996376 0)
(-0.113864 -0.995512 0)
(-0.12168 -0.994587 0)
(-0.129487 -0.993601 0)
(-0.137287 -0.992553 0)
(-0.145078 -0.991445 0)
(-0.15286 -0.990275 0)
(-0.160633 -0.989044 0)
(-0.168396 -0.987751 0)
(-0.176148 -0.986398 0)
(-0.18389 -0.984984 0)
(-0.19162 -0.98351 0)
(-0.199339 -0.981975 0)
(-0.207045 -0.980379 0)
(-0.214738 -0.978722 0)
(-0.222419 -0.977006 0)
(-0.230085 -0.975229 0)
(-0.237737 -0.973391 0)
(-0.245375 -0.971494 0)
(-0.252997 -0.969537 0)
(-0.260604 -0.96752 0)
(-0.268195 -0.965444 0)
(-0.275769 -0.963308 0)
(-0.283326 -0.961112 0)
(-0.290866 -0.958857 0)
(-0.298388 -0.956543 0)
(-0.305891 -0.95417 0)
(-0.313376 -0.951738 0)
(-0.320841 -0.949248 0)
(-0.328286 -0.946698 0)
(-0.335712 -0.944091 0)
(-0.343116 -0.941425 0)
(-0.350499 -0.938701 0)
(-0.357861 -0.93592 0)
(-0.365201 -0.93308 0)
(-0.372518 -0.930183 0)
(-0.379812 -0.927229 0)
(-0.387082 -0.924217 0)
(-0.394329 -0.921149 0)
(-0.401552 -0.918023 0)
(-0.408749 -0.914841 0)
(-0.415922 -0.911603 0)
(-0.423069 -0.908308 0)
(-0.430189 -0.904957 0)
(-0.437283 -0.90155 0)
(-0.444351 -0.898088 0)
(-0.45139 -0.894571 0)
(-0.458402 -0.890998 0)
(-0.465386 -0.88737 0)
(-0.472341 -0.883688 0)
(-0.479267 -0.879951 0)
(-0.486163 -0.87616 0)
(-0.493029 -0.872314 0)
(-0.499865 -0.868415 0)
(-0.50667 -0.864462 0)
(-0.513444 -0.860456 0)
(-0.520186 -0.856397 0)
(-0.526896 -0.852285 0)
(-0.533574 -0.848121 0)
(-0.540218 -0.843904 0)
(-0.54683 -0.839635 0)
(-0.553407 -0.835315 0)
(-0.55995 -0.830943 0)
(-0.566459 -0.826519 0)
(-0.572933 -0.822045 0)
(-0.579372 -0.81752 0)
(-0.585775 -0.812944 0)
(-0.592141 -0.808318 0)
(-0.598472 -0.803643 0)
(-0.604765 -0.798918 0)
(-0.611021 -0.794143 0)
(-0.617239 -0.78932 0)
(-0.623419 -0.784448 0)
(-0.629561 -0.779527 0)
(-0.635664 -0.774559 0)
(-0.641728 -0.769542 0)
(-0.647752 -0.764479 0)
(-0.653736 -0.759368 0)
(-0.65968 -0.75421 0)
(-0.665583 -0.749006 0)
(-0.671445 -0.743755 0)
(-0.677266 -0.738459 0)
(-0.683045 -0.733117 0)
(-0.688781 -0.72773 0)
(-0.694476 -0.722297 0)
(-0.700127 -0.716821 0)
(-0.705735 -0.7113 0)
(-0.7113 -0.705735 0)
(-0.716821 -0.700127 0)
(-0.722297 -0.694476 0)
(-0.72773 -0.688781 0)
(-0.733117 -0.683045 0)
(-0.738459 -0.677266 0)
(-0.743755 -0.671445 0)
(-0.749006 -0.665583 0)
(-0.75421 -0.65968 0)
(-0.759368 -0.653736 0)
(-0.764479 -0.647752 0)
(-0.769542 -0.641728 0)
(-0.774559 -0.635664 0)
(-0.779527 -0.629561 0)
(-0.784448 -0.623419 0)
(-0.78932 -0.617239 0)
(-0.794143 -0.611021 0)
(-0.798918 -0.604765 0)
(-0.803643 -0.598472 0)
(-0.808318 -0.592141 0)
(-0.812944 -0.585775 0)
(-0.81752 -0.579372 0)
(-0.822045 -0.572933 0)
(-0.826519 -0.566459 0)
(-0.830943 -0.55995 0)
(-0.835315 -0.553407 0)
(-0.839635 -0.54683 0)
(-0.843904 -0.540218 0)
(-0.848121 -0.533574 0)
(-0.852285 -0.526896 0)
(-0.856397 -0.520186 0)
(-0.860456 -0.513444 0)
(-0.864462 -0.50667 0)
(-0.868415 -0.499865 0)
(-0.872314 -0.493029 0)
(-0.87616 -0.486163 0)
(-0.879951 -0.479267 0)
(-0.883688 -0.472341 0)
(-0.88737 -0.465386 0)
(-0.890998 -0.458402 0)
(-0.894571 -0.45139 0)
(-0.898088 -0.444351 0)
(-0.90155 -0.437283 0)
(-0.904957 -0.430189 0)
(-0.908308 -0.423069 0)
(-0.911603 -0.415922 0)
(-0.914841 -0.408749 0)
(-0.918023 -0.401552 0)
(-0.921149 -0.394329 0)
(-0.924217 -0.387082 0)
(-0.927229 -0.379812 0)
(-0.930183 -0.372518 0)
(-0.93308 -0.365201 0)
(-0.93592 -0.357861 0)
(-0.938701 -0.350499 0)
(-0.941425 -0.343116 0)
(-0.944091 -0.335712 0)
(-0.946698 -0.328286 0)
(-0.949248 -0.320841 0)
(-0.951738 -0.313376 0)
(-0.95417 -0.305891 0)
(-0.956543 -0.298388 0)
(-0.958857 -0.290866 0)
(-0.961112 -0.283326 0)
(-0.963308 -0.275769 0)
(-0.965444 -0.268195 0)
(-0.96752 -0.260604 0)
(-0.969537 -0.252997 0)
(-0.971494 -0.245375 0)
(-0.973391 -0.237737 0)
(-0.975229 -0.230085 0)
(-0.977006 -0.222419 0)
(-0.978722 -0.214738 0)
(-0.980379 -0.207045 0)
(-0.981975 -0.199339 0)
(-0.98351 -0.19162 0)
(-0.984984 -0.18389 0)
(-0.986398 -0.176148 0)
(-0.987751 -0.168396 0)
(-0.989044 -0.160633 0)
(-0.990275 -0.15286 0)
(-0.991445 -0.145078 0)
(-0.992553 -0.137287 0)
(-0.993601 -0.129487 0)
(-0.994587 -0.12168 0)
(-0.995512 -0.113864 0)
(-0.996376 -0.106042 0)
(-0.997178 -0.0982135 0)
(-0.997919 -0.0903787 0)
(-0.998598 -0.0825384 0)
(-0.999215 -0.0746929 0)
(-0.999771 -0.0668429 0)
(-1.00027 -0.0589887 0)
(-1.0007 -0.0511309 0)
(-1.00107 -0.04327 0)
(-1.00138 -0.0354063 0)
(-1.00162 -0.0275405 0)
(-1.00181 -0.019673 0)
(-1.00193 -0.0118043 0)
(-1.002 -0.00393485 0)
(1.002 -0.00393485 0)
(1.00193 -0.0118043 0)
(1.00181 -0.019673 0)
(1.00162 -0.0275405 0)
(1.00138 -0.0354063 0)
(1.00107 -0.04327 0)
(1.0007 -0.0511309 0)
(1.00027 -0.0589887 0)
(0.999771 -0.0668429 0)
(0.999215 -0.0746929 0)
(0.998598 -0.0825384 0)
(0.997919 -0.0903787 0)
(0.997178 -0.0982135 0)
(0.996376 -0.106042 0)
(0.995512 -0.113864 0)
(0.994587 -0.12168 0)
(0.993601 -0.129487 0)
(0.992553 -0.137287 0)
(0.991445 -0.145078 0)
(0.990275 -0.15286 0)
(0.989044 -0.160633 0)
(0.987751 -0.168396 0)
(0.986398 -0.176148 0)
(0.984984 -0.18389 0)
(0.98351 -0.19162 0)
(0.981975 -0.199339 0)
(0.980379 -0.207045 0)
(0.978722 -0.214738 0)
(0.977006 -0.222419 0)
(0.975229 -0.230085 0)
(0.973391 -0.237737 0)
(0.971494 -0.245375 0)
(0.969537 -0.252997 0)
(0.96752 -0.260604 0)
(0.965444 -0.268195 0)
(0.963308 -0.275769 0)
(0.961112 -0.283326 0)
(0.958857 -0.290866 0)
(0.956543 -0.298388 0)
(0.95417 -0.305891 0)
(0.951738 -0.313376 0)
(0.949248 -0.320841 0)
(0.946698 -0.328286 0)
(0.944091 -0.335712 0)
(0.941425 -0.343116 0)
(0.938701 -0.350499 0)
(0.93592 -0.357861 0)
(0.93308 -0.365201 0)
(0.930183 -0.372518 0)
(0.927229 -0.379812 0)
(0.924217 -0.387082 0)
(0.921149 -0.394329 0)
(0.918023 -0.401552 0)
(0.914841 -0.408749 0)
(0.911603 -0.415922 0)
(0.908308 -0.423069 0)
(0.904957 -0.430189 0)
(0.90155 -0.437283 0)
(0.898088 -0.444351 0)
(0.894571 -0.45139 0)
(0.890998 -0.458402 0)
(0.88737 -0.465386 0)
(0.883688 -0.472341 0)
(0.879951 -0.479267 0)
(0.87616 -0.486163 0)
(0.872314 -0.493029 0)
(0.868415 -0.499865 0)
(0.864462 -0.50667 0)
(0.860456 -0.513444 0)
(0.856397 -0.520186 0)
(0.852285 -0.526896 0)
(0.848121 -0.533574 0)
(0.843904 -0.540218 0)
(0.839635 -0.54683 0)
(0.835315 -0.553407 0)
(0.830943 -0.55995 0)
(0.826519 -0.566459 0)
(0.822045 -0.572933 0)
(0.81752 -0.579372 0)
(0.812944 -0.585775 0)
(0.808318 -0.592141 0)
(0.803643 -0.598472 0)
(0.798918 -0.604765 0)
(0.794143 -0.611021 0)
(0.78932 -0.617239 0)
(0.784448 -0.623419 0)
(0.779527 -0.629561 0)
(0.774559 -0.635664 0)
(0.769542 -0.641728 0)
(0.764479 -0.647752 0)
(0.759368 -0.653736 0)
(0.75421 -0.65968 0)
(0.749006 -0.665583 0)
(0.743755 -0.671445 0)
(0.738459 -0.677266 0)
(0.733117 -0.683045 0)
(0.72773 -0.688781 0)
(0.722297 -0.694476 0)
(0.716821 -0.700127 0)
(0.7113 -0.705735 0)
(0.705735 -0.7113 0)
(0.700127 -0.716821 0)
(0.694476 -0.722297 0)
(0.688781 -0.72773 0)
(0.683045 -0.733117 0)
(0.677266 -0.738459 0)
(0.671445 -0.743755 0)
(0.665583 -0.749006 0)
(0.65968 -0.75421 0)
(0.653736 -0.759368 0)
(0.647752 -0.764479 0)
(0.641728 -0.769542 0)
(0.635664 -0.774559 0)
(0.629561 -0.779527 0)
(0.623419 -0.784448 0)
(0.617239 -0.78932 0)
(0.611021 -0.794143 0)
(0.604765 -0.798918 0)
(0.598472 -0.803643 0)
(0.592141 -0.808318 0)
(0.585775 -0.812944 0)
(0.579372 -0.81752 0)
(0.572933 -0.822045 0)
(0.566459 -0.826519 0)
(0.55995 -0.830943 0)
(0.553407 -0.835315 0)
(0.54683 -0.839635 0)
(0.540218 -0.843904 0)
(0.533574 -0.848121 0)
(0.526896 -0.852285 0)
(0.520186 -0.856397 0)
(0.513444 -0.860456 0)
(0.50667 -0.864462 0)
(0.499865 -0.868415 0)
(0.493029 -0.872314 0)
(0.486163 -0.87616 0)
(0.479267 -0.879951 0)
(0.472341 -0.883688 0)
(0.465386 -0.88737 0)
(0.458402 -0.890998 0)
(0.45139 -0.894571 0)
(0.444351 -0.898088 0)
(0.437283 -0.90155 0)
(0.430189 -0.904957 0)
(0.423069 -0.908308 0)
(0.415922 -0.911603 0)
(0.408749 -0.914841 0)
(0.401552 -0.918023 0)
(0.394329 -0.921149 0)
(0.387082 -0.924217 0)
(0.379812 -0.927229 0)
(0.372518 -0.930183 0)
(0.365201 -0.93308 0)
(0.357861 -0.93592 0)
(0.350499 -0.938701 0)
(0.343116 -0.941425 0)
(0.335712 -0.944091 0)
(0.328286 -0.946698 0)
(0.320841 -0.949248 0)
(0.313376 -0.951738 0)
(0.305891 -0.95417 0)
(0.298388 -0.956543 0)
(0.290866 -0.958857 0)
(0.283326 -0.961112 0)
(0.275769 -0.963308 0)
(0.268195 -0.965444 0)
(0.260604 -0.96752 0)
(0.252997 -0.969537 0)
(0.245375 -0.971494 0)
(0.237737 -0.973391 0)
(0.230085 -0.975229 0)
(0.222419 -0.977006 0)
(0.214738 -0.978722 0)
(0.207045 -0.980379 0)
(0.199339 -0.981975 0)
(0.19162 -0.98351 0)
(0.18389 -0.984984 0)
(0.176148 -0.986398 0)
(0.168396 -0.987751 0)
(0.160633 -0.989044 0)
(0.15286 -0.990275 0)
(0.145078 -0.991445 0)
(0.137287 -0.992553 0)
(0.129487 -0.993601 0)
(0.12168 -0.994587 0)
(0.113864 -0.995512 0)
(0.106042 -0.996376 0)
(0.0982135 -0.997178 0)
(0.0903787 -0.997919 0)
(0.0825384 -0.998598 0)
(0.0746929 -0.999215 0)
(0.0668429 -0.999771 0)
(0.0589887 -1.00027 0)
(0.0511309 -1.0007 0)
(0.04327 -1.00107 0)
(0.0354063 -1.00138 0)
(0.0275405 -1.00162 0)
(0.019673 -1.00181 0)
(0.0118043 -1.00193 0)
(0.00393485 -1.002 0)
)
;
    }
    outerWall
    {
        type            calculated;
        value           uniform (0 0 0);
    }
    frontAndBack
    {
        type            empty;
    }
}


// ************************************************************************* //
