/*--------------------------------*- C++ -*----------------------------------*\
  =========                 |
  \\      /  F ield         | OpenFOAM: The Open Source CFD Toolbox
   \\    /   O peration     | Website:  https://openfoam.org
    \\  /    A nd           | Version:  7
     \\/     M anipulation  |
\*---------------------------------------------------------------------------*/
FoamFile
{
    version     2.0;
    format      ascii;
    class       surfaceScalarField;
    location    "20";
    object      alphaPhi;
}
// * * * * * * * * * * * * * * * * * * * * * * * * * * * * * * * * * * * * * //

dimensions      [0 3 -1 0 0 0 0];

internalField   nonuniform List<scalar> 
99520
(
0
0
0
0
0
0
0
0
0
0
0
0
0
0
0
0
0
0
0
0
0
0
0
0
0
0
0
0
0
0
0
0
0
0
0
0
0
0
0
0
0
0
0
0
0
0
0
0
0
0
0
0
0
0
0
0
0
0
0
0
0
0
0
0
0
0
0
0
0
0
0
0
0
0
0
0
0
0
0
0
0
0
0
0
0
0
0
0
0
0
0
0
0
0
0
0
0
0
0
0
0
0
0
0
0
0
0
0
0
0
0
0
0
0
0
0
0
0
0
0
0
0
0
0
0
0
0
0
0
0
0
0
0
0
0
0
0
0
0
0
0
0
0
0
0
0
0
0
0
0
0
0
0
0
0
0
0
0
0
0
0
0
0
0
0
0
0
0
0
0
0
0
0
0
0
0
0
0
0
0
0
0
0
0
0
0
0
0
0
0
0
0
0
0
0
0
0
0
0
0
0
0
0
0
0
0
0
0
0
0
0
0
0
0
0
0
0
0
0
0
0
0
0
0
0
0
0
0
0
0
0
0
0
0
0
0
0
0
0
0
0
0
0
0
0
0
0
0
0
0
0
0
0
0
0
0
0
0
0
0
0
0
0
0
0
0
0
0
0
0
0
0
0
0
0
0
0
0
0
0
0
0
-9.38725e-323
1.58101e-322
-8.10762e-321
1.45996e-320
-6.84716e-319
1.35317e-318
-5.86631e-317
1.27114e-316
-4.96603e-315
1.2148e-314
-4.31734e-313
1.18678e-312
-3.67022e-311
1.19086e-310
-3.25541e-309
1.23619e-308
-2.72649e-307
1.33664e-306
-2.45373e-305
1.52372e-304
-1.82009e-303
1.85216e-302
-1.40661e-301
2.46157e-300
4.13096e-302
3.71952e-298
2.22264e-299
6.68943e-296
1.0076e-296
1.52512e-293
3.01438e-294
4.23791e-291
1.31997e-291
1.52918e-288
5.3049e-289
6.9533e-286
2.8903e-286
4.08242e-283
2.93225e-280
1.54179e-283
0
0
0
0
0
0
0
0
0
0
0
0
0
0
0
0
0
0
0
0
0
0
0
0
0
0
0
0
0
0
0
0
0
0
0
0
0
0
0
0
0
0
0
0
0
0
0
0
0
0
0
0
0
0
0
0
0
0
0
0
0
0
0
0
0
0
0
0
0
0
0
0
0
0
0
0
0
0
0
0
0
0
0
0
0
0
0
0
0
0
0
0
0
0
0
0
0
0
0
0
0
0
0
0
0
0
0
0
0
-5.92879e-323
6.42285e-323
-3.10767e-321
3.62644e-321
-1.67019e-319
2.03822e-319
-8.9363e-318
1.14301e-317
-4.77536e-316
6.41832e-316
-2.54672e-314
3.6193e-314
-1.35983e-312
2.05371e-312
-7.24875e-311
1.17416e-310
-3.87558e-309
6.77216e-309
-2.06966e-307
3.94733e-307
-1.11391e-305
2.33178e-305
-6.00745e-304
1.40132e-303
-3.29274e-302
8.61225e-302
-1.81187e-300
5.44563e-300
-1.02218e-298
3.57074e-298
-5.74464e-297
2.44502e-296
-3.30221e-295
1.76118e-294
-1.80828e-293
1.34274e-292
-9.69117e-292
1.09985e-290
-3.37442e-290
9.92083e-289
1.48181e-290
1.02111e-286
7.1614e-288
1.24002e-284
1.50554e-285
1.77754e-282
3.36598e-283
3.27743e-280
8.676e-281
7.95917e-278
2.63769e-275
2.97952e-278
0
0
0
0
0
0
0
0
0
0
0
0
0
0
0
0
0
0
0
0
0
0
0
0
0
0
0
0
0
0
0
0
0
0
0
0
0
0
0
0
0
0
0
0
0
0
0
0
0
0
0
0
0
0
0
0
0
0
0
0
0
0
0
0
0
0
0
0
0
0
0
0
0
0
0
0
0
0
0
0
0
0
0
0
0
0
0
0
0
0
0
0
0
0
0
0
0
0
0
-4.94066e-324
4.94066e-324
-2.32211e-322
2.02567e-322
-9.99989e-321
9.26373e-321
-4.23325e-319
4.08805e-319
-1.74903e-317
1.76498e-317
-7.0788e-316
7.4775e-316
-2.81205e-314
3.11791e-314
-1.10101e-312
1.28335e-312
-4.25603e-311
5.23101e-311
-1.63297e-309
2.11867e-309
-6.23001e-308
8.56055e-308
-2.38108e-306
3.46641e-306
-9.12925e-305
1.41415e-304
-3.54247e-303
5.84492e-303
-1.3885e-301
2.46116e-301
-5.55038e-300
1.06088e-299
-2.24583e-298
4.70017e-298
-9.31432e-297
2.14805e-296
-3.89441e-295
1.01584e-294
-1.67329e-293
4.98733e-293
-7.14397e-292
2.54724e-291
-3.14564e-290
1.35827e-289
-1.33486e-288
7.61556e-288
-5.76782e-287
4.54696e-286
-2.00801e-285
2.91471e-284
-4.27694e-284
2.05438e-282
8.22116e-284
1.6798e-280
1.52384e-281
1.59116e-278
2.52252e-279
1.82289e-276
4.34161e-277
2.68396e-274
5.47739e-272
1.00158e-274
0
0
0
0
0
0
0
0
0
0
0
0
0
0
0
0
0
0
0
0
0
0
0
0
0
0
0
0
0
0
0
0
0
0
0
0
0
0
0
0
0
0
0
0
0
0
0
0
0
0
0
0
0
0
0
0
0
0
0
0
0
0
0
0
0
0
0
0
0
0
0
0
0
0
0
0
0
0
0
0
0
0
0
0
0
0
0
0
0
0
0
0
0
-2.47033e-323
1.97626e-323
-1.0326e-321
7.70742e-322
-4.07752e-320
3.12299e-320
-1.535e-318
1.23241e-318
-5.59075e-317
4.66282e-317
-1.97657e-315
1.71511e-315
-6.80465e-314
6.15388e-314
-2.28802e-312
2.16064e-312
-7.53264e-311
7.44525e-311
-2.43519e-309
2.52498e-309
-7.74582e-308
8.4506e-308
-2.43122e-306
2.79835e-306
-7.54012e-305
9.19194e-305
-2.31806e-303
3.00266e-303
-7.0701e-302
9.77981e-302
-2.14865e-300
3.18493e-300
-6.51258e-299
1.04051e-298
-1.98357e-297
3.42433e-297
-6.08706e-296
1.14178e-295
-1.90806e-294
3.88811e-294
-6.12821e-293
1.3665e-292
-2.04984e-291
5.01838e-291
-7.0637e-290
1.94662e-289
-2.52404e-288
8.02324e-288
-9.00703e-287
3.50384e-286
-3.25868e-285
1.61457e-284
-1.12241e-283
7.88521e-283
-3.6078e-282
4.16524e-281
-5.20353e-281
2.43185e-279
9.65682e-281
1.60737e-277
1.74289e-278
1.22494e-275
2.21907e-276
1.09653e-273
2.9944e-274
1.1949e-271
1.74082e-269
4.98807e-272
0
0
0
0
0
0
0
0
0
0
0
0
0
0
0
0
0
0
0
0
0
0
0
0
0
0
0
0
0
0
0
0
0
0
0
0
0
0
0
0
0
0
0
0
0
0
0
0
0
0
0
0
0
0
0
0
0
0
0
0
0
0
0
0
0
0
0
0
0
0
0
0
0
0
0
0
0
0
0
0
0
0
0
0
0
0
0
-9.88131e-324
4.94066e-324
-3.31024e-322
2.12448e-322
-1.25789e-320
8.32501e-321
-4.56482e-319
3.11933e-319
-1.60486e-317
1.11805e-317
-5.33591e-316
3.90578e-316
-1.71094e-314
1.29826e-314
-5.30796e-313
4.18217e-313
-1.59945e-311
1.31037e-311
-4.69404e-310
4.00699e-310
-1.34634e-308
1.19953e-308
-3.78164e-307
3.5259e-307
-1.04372e-305
1.02045e-305
-2.83447e-304
2.9158e-304
-7.60032e-303
8.2464e-303
-2.01343e-301
2.31431e-301
-5.28919e-300
6.46046e-300
-1.37735e-298
1.7983e-298
-3.57065e-297
5.00288e-297
-9.20018e-296
1.39451e-295
-2.36923e-294
3.9041e-294
-6.0796e-293
1.10096e-292
-1.56949e-291
3.13811e-291
-4.06736e-290
9.08869e-290
-1.08203e-288
2.69813e-288
-2.96407e-287
8.33538e-287
-8.65958e-286
2.74178e-285
-2.61129e-284
9.8273e-284
-8.1884e-283
3.86884e-282
-2.40082e-281
1.65928e-280
-6.19167e-280
7.78797e-279
-3.04537e-280
4.00163e-277
2.81635e-278
2.3855e-275
3.78698e-276
1.6216e-273
3.89716e-274
1.2399e-271
4.30271e-272
1.11523e-269
1.29982e-267
5.76202e-270
0
0
0
0
0
0
0
0
0
0
0
0
0
0
0
0
0
0
0
0
0
0
0
0
0
0
0
0
0
0
0
0
0
0
0
0
0
0
0
0
0
0
0
0
0
0
0
0
0
0
0
0
0
0
0
0
0
0
0
0
0
0
0
0
0
0
0
0
0
0
0
0
0
0
0
0
0
0
0
0
0
0
0
-1.4822e-323
9.88131e-324
-6.71929e-322
3.85371e-322
-2.53357e-320
1.50394e-320
-8.94906e-319
5.47514e-319
-3.04755e-317
1.88488e-317
-9.66981e-316
6.30061e-316
-2.93366e-314
1.97566e-314
-8.55041e-313
5.95822e-313
-2.40381e-311
1.73582e-311
-6.54485e-310
4.90413e-310
-1.73105e-308
1.3486e-308
-4.46392e-307
3.62148e-307
-1.12485e-305
9.52688e-306
-2.77957e-304
2.46216e-304
-6.74511e-303
6.26935e-303
-1.61339e-301
1.57685e-301
-3.80586e-300
3.92797e-300
-8.89047e-299
9.71398e-299
-2.05521e-297
2.39097e-297
-4.72461e-296
5.8706e-296
-1.07755e-294
1.44146e-294
-2.45339e-293
3.54715e-293
-5.54796e-292
8.77015e-292
-1.25693e-290
2.18341e-290
-2.82588e-289
5.48825e-289
-6.39379e-288
1.39657e-287
-1.43317e-286
3.61143e-286
-3.2812e-285
9.55032e-285
-7.55722e-284
2.61584e-283
-1.88634e-282
7.62929e-282
-4.77397e-281
2.47833e-280
-1.24041e-279
9.28316e-279
-1.85221e-278
3.97621e-277
1.37828e-278
1.9352e-275
2.6656e-276
1.0857e-273
2.49434e-274
6.68466e-272
2.218e-272
4.55283e-270
2.07631e-270
3.5742e-268
3.5807e-266
2.37109e-268
0
0
0
0
0
0
0
0
0
0
0
0
0
0
0
0
0
0
0
0
0
0
0
0
0
0
0
0
0
-4.94066e-324
0
-2.96439e-323
-4.94066e-324
-1.97626e-323
-2.96439e-323
-4.94066e-324
-1.97626e-323
0
-4.94066e-324
0
-4.94066e-324
0
0
0
0
0
0
0
0
0
0
0
0
0
0
0
0
0
0
0
0
0
0
1.08467e-313
1.57906e-311
-2.09317e-306
1.20504e-306
-1.19186e-303
6.32185e-304
-2.11982e-301
9.87194e-302
-2.35653e-299
1.08101e-299
-1.92636e-297
9.02127e-298
-1.2604e-295
6.06478e-296
-6.95293e-294
3.43878e-294
-3.34691e-292
1.70066e-292
-1.43998e-290
7.51578e-291
-5.63577e-289
3.02176e-289
-2.03363e-287
1.12056e-287
-6.83746e-286
3.8742e-286
-2.21287e-284
1.25988e-284
-6.61633e-283
3.97533e-283
-1.8843e-281
1.16743e-281
-5.13747e-280
3.28608e-280
-1.34707e-278
8.90799e-279
-3.41098e-277
2.33531e-277
-8.37035e-276
5.94386e-276
-1.99773e-274
1.47384e-274
-4.65004e-273
3.5722e-273
-1.05908e-271
8.48832e-272
-2.36498e-270
1.9833e-270
-5.19476e-269
4.56865e-269
-1.12379e-267
1.04037e-267
-2.40259e-266
2.34769e-266
-5.07785e-265
5.26313e-265
-1.06502e-263
1.17485e-263
-2.21463e-262
2.61766e-262
-4.58688e-261
5.83403e-261
-9.43465e-260
1.30376e-259
-1.93877e-258
2.92747e-258
-3.95541e-257
6.62095e-257
-8.08027e-256
1.51138e-255
-1.63196e-254
3.49095e-254
-3.30253e-253
8.17757e-253
-6.53159e-252
1.94836e-251
-1.29723e-250
4.74174e-250
-2.49517e-249
1.19013e-248
-5.14111e-248
3.17822e-247
-9.19679e-247
9.84559e-246
-2.94343e-246
3.76772e-244
3.93121e-245
1.79742e-242
3.80088e-243
9.39509e-241
3.0261e-241
5.27745e-239
2.30066e-239
3.2203e-237
1.84476e-237
2.21547e-235
1.8987e-233
1.79259e-235
0
0
0
0
0
0
0
0
0
0
0
0
0
0
0
0
0
0
0
0
0
0
0
0
0
0
0
0
0
0
0
-4.94066e-323
-1.97626e-323
-5.43472e-323
-9.38725e-323
-2.47033e-323
-7.41098e-323
-9.88131e-324
-2.96439e-323
-4.94066e-324
-1.4822e-323
0
-4.94066e-324
0
0
0
0
0
0
0
0
0
0
0
0
0
0
0
0
0
0
0
0
-9.52435e-298
-2.52826e-295
1.01761e-292
-1.79372e-292
2.42599e-291
-1.44407e-290
-7.07708e-289
-1.47833e-289
-9.30345e-287
2.8845e-287
-7.4414e-285
2.94283e-285
-4.68561e-283
1.96902e-283
-2.50223e-281
1.08499e-281
-1.17454e-279
5.22587e-280
-4.95562e-278
2.26081e-278
-1.90979e-276
8.93701e-277
-6.80444e-275
3.26889e-275
-2.342e-273
1.11733e-273
-7.32606e-272
3.72236e-272
-2.17164e-270
1.13618e-270
-6.13396e-269
3.30877e-269
-1.65911e-267
9.2403e-268
-4.31583e-266
2.48558e-266
-1.08391e-264
6.46636e-265
-2.6376e-263
1.63287e-263
-6.23818e-262
4.01604e-262
-1.43844e-260
9.65007e-261
-3.24182e-259
2.27225e-259
-7.16141e-258
5.2572e-258
-1.55354e-256
1.19839e-256
-3.31895e-255
2.6981e-255
-6.99087e-254
6.01473e-254
-1.45618e-252
1.33067e-252
-3.00021e-251
2.92852e-251
-6.13462e-250
6.42523e-250
-1.24356e-248
1.40862e-248
-2.50901e-247
3.09219e-247
-5.02204e-246
6.81247e-246
-1.0024e-244
1.50937e-244
-1.98077e-243
3.37102e-243
-3.90308e-242
7.60523e-242
-7.54915e-241
1.73733e-240
-1.44868e-239
4.02852e-239
-2.66078e-238
9.50824e-238
-4.7551e-237
2.29552e-236
-7.55667e-236
5.73472e-235
-1.0438e-234
1.55123e-233
6.13174e-235
5.496e-232
9.85927e-233
2.69042e-230
8.63912e-231
1.43801e-228
6.56598e-229
8.16497e-227
4.85876e-227
5.00744e-225
3.89362e-225
3.4436e-223
2.96393e-221
3.7432e-223
-1.97626e-323
9.89912e-285
1.91572e-285
0
4.94066e-323
0
0
0
0
0
0
0
0
0
0
0
0
0
0
0
0
0
0
0
0
0
0
0
0
0
0
-6.42285e-323
-4.44659e-323
-1.03754e-322
-2.02567e-322
-4.94066e-323
-1.87745e-322
-1.4822e-323
-7.41098e-323
-4.94066e-324
-2.96439e-323
0
-9.88131e-324
0
0
0
0
0
0
0
0
0
0
0
0
0
0
0
0
0
0
-1.55617e-297
-1.28413e-295
9.91735e-291
-1.89816e-290
6.10732e-288
-1.16826e-287
2.53641e-286
-5.00335e-286
5.61064e-285
-1.14873e-284
7.27485e-284
-1.82629e-283
-3.16589e-283
-1.89891e-282
-7.11296e-281
7.03697e-282
-3.8016e-279
1.39858e-279
-1.60645e-277
6.78821e-278
-6.02739e-276
2.65588e-276
-2.07358e-274
9.36496e-275
-6.89731e-273
3.06456e-273
-2.07441e-271
9.79294e-272
-5.90562e-270
2.85428e-270
-1.60175e-268
7.93357e-269
-4.16064e-267
2.11511e-267
-1.03964e-265
5.43385e-266
-2.50903e-264
1.35075e-264
-5.86854e-263
3.26081e-263
-1.33458e-261
7.67016e-262
-2.95923e-260
1.7633e-260
-6.41471e-259
3.97302e-259
-1.3627e-257
8.79683e-258
-2.84307e-256
1.91878e-256
-5.83838e-255
4.13281e-255
-1.18217e-253
8.80987e-254
-2.365e-252
1.86274e-252
-4.68068e-251
3.91487e-251
-9.18218e-250
8.19547e-250
-1.78672e-248
1.71244e-248
-3.45491e-247
3.5787e-247
-6.6371e-246
7.49528e-246
-1.26893e-244
1.57647e-244
-2.40989e-243
3.33663e-243
-4.55318e-242
7.12142e-242
-8.51131e-241
1.53591e-240
-1.57487e-239
3.35506e-239
-2.84351e-238
7.43896e-238
-4.98184e-237
1.67902e-236
-8.10441e-236
3.8702e-235
-1.15987e-234
9.18396e-234
-9.75584e-234
2.30214e-232
1.45407e-233
7.2044e-231
1.74295e-231
3.41638e-229
1.42612e-229
1.80611e-227
1.03615e-227
1.01263e-225
7.62058e-226
6.12674e-224
5.92408e-224
4.14283e-222
3.51771e-220
5.63884e-222
-3.53103e-273
2.49958e-220
2.61359e-221
0
1.20796e-272
0
0
0
0
0
0
0
0
0
0
0
0
0
0
0
0
0
0
0
0
0
0
0
0
0
0
4.28503e-320
3.93375e-320
4.61803e-320
9.9075e-320
1.51431e-320
6.14618e-320
3.23613e-321
1.64227e-320
6.07701e-322
3.17684e-321
1.08694e-322
5.68175e-322
1.97626e-323
9.88131e-323
4.94066e-324
1.97626e-323
0
4.94066e-324
0
0
0
0
0
0
0
0
0
0
0
0
-1.05242e-290
-1.69054e-288
1.08319e-285
-2.03925e-285
7.82753e-284
-1.49263e-283
2.18528e-282
-4.10757e-282
3.99005e-281
-7.43555e-281
5.60732e-280
-1.03632e-279
6.70257e-279
-1.204e-278
7.89726e-278
-1.24755e-277
1.23723e-276
-1.31491e-276
3.08485e-275
-1.88464e-275
9.61849e-274
-4.37281e-274
3.15309e-272
-1.28586e-272
9.35082e-271
-4.0193e-271
2.60187e-269
-1.1472e-269
6.81589e-268
-3.09703e-268
1.6898e-266
-7.92769e-267
3.98445e-265
-1.93302e-265
8.97561e-264
-4.50982e-264
1.93912e-262
-1.01088e-262
4.03207e-261
-2.18495e-261
8.09352e-260
-4.56918e-260
1.57275e-258
-9.27201e-259
2.96539e-257
-1.83079e-257
5.43714e-256
-3.52587e-256
9.70909e-255
-6.6375e-255
1.69119e-253
-1.22359e-253
2.87501e-252
-2.2123e-252
4.77317e-251
-3.92724e-251
7.73098e-250
-6.84943e-250
1.22025e-248
-1.17348e-248
1.86891e-247
-1.97282e-247
2.762e-246
-3.24528e-246
3.88624e-245
-5.19499e-245
5.08899e-244
-8.00351e-244
5.84853e-243
-1.1603e-242
4.90028e-242
-1.49875e-241
-5.87281e-242
-1.43372e-240
-1.62684e-239
2.00823e-240
-5.2277e-238
6.66882e-238
-1.24828e-236
2.68045e-236
-2.47121e-235
8.43128e-235
-4.02746e-234
2.44249e-233
-3.4106e-233
7.01549e-232
5.76153e-233
2.36954e-230
7.73924e-231
1.26041e-228
6.80404e-229
7.31345e-227
5.40266e-227
4.3886e-225
4.13908e-225
2.79193e-223
3.37094e-223
1.95678e-221
1.70257e-219
3.26987e-221
3.66153e-227
-9.99361e-171
-3.74835e-172
-2.9579e-288
-1.67243e-226
0
1.08017e-287
0
0
0
0
0
0
0
0
0
0
0
0
0
0
0
0
0
0
0
0
0
0
1.94777e-318
1.79358e-318
1.66282e-305
1.91791e-305
2.18896e-305
5.14608e-305
7.58054e-306
3.36737e-305
1.53968e-306
9.00055e-306
2.64231e-307
1.61788e-306
4.29878e-308
2.61518e-307
6.74187e-309
4.15025e-308
1.00393e-309
6.49044e-309
1.37944e-310
9.78749e-310
1.68103e-311
1.3772e-310
1.72556e-312
1.7309e-311
1.39693e-313
1.8371e-312
8.17342e-315
1.53602e-313
3.00616e-316
9.24803e-315
-6.91273e-291
-4.82071e-289
2.82576e-284
-5.84969e-284
1.02508e-281
-1.8994e-281
3.69729e-280
-6.61423e-280
7.58728e-279
-1.33424e-278
1.1308e-277
-1.97194e-277
1.35451e-276
-2.35382e-276
1.38202e-275
-2.39417e-275
1.26451e-274
-2.15278e-274
1.14376e-273
-1.7811e-273
1.31574e-272
-1.48481e-272
2.42323e-271
-1.59759e-271
6.00331e-270
-2.78505e-270
1.57278e-268
-6.5961e-269
3.99225e-267
-1.66625e-267
9.64801e-266
-4.10874e-266
2.22015e-264
-9.7115e-265
4.88211e-263
-2.19922e-263
1.03e-261
-4.78684e-262
2.09272e-260
-1.0051e-260
4.10872e-259
-2.0432e-259
7.82031e-258
-4.03433e-258
1.44708e-256
-7.7617e-257
2.61061e-255
-1.45917e-255
4.6023e-254
-2.688e-254
7.94907e-253
-4.86441e-253
1.34755e-251
-8.66969e-252
2.24762e-250
-1.52525e-250
3.69296e-249
-2.65487e-249
5.9915e-248
-4.58159e-248
9.60291e-247
-7.8558e-247
1.52413e-245
-1.34087e-245
2.39397e-244
-2.2829e-244
3.73069e-243
-3.88355e-243
5.75418e-242
-6.61383e-242
8.80891e-241
-1.12934e-240
1.33073e-239
-1.93699e-239
1.99008e-238
-3.34153e-238
2.90792e-237
-5.80737e-237
4.16174e-236
-1.01792e-235
5.64561e-235
-1.80155e-234
7.17654e-234
-3.22174e-233
7.52061e-233
-5.82235e-232
4.64163e-232
-1.06302e-230
-4.75743e-232
-1.99632e-229
-2.79948e-230
-4.31427e-228
-1.03977e-228
-9.95079e-227
-1.56227e-228
-1.12958e-226
4.33798e-225
2.54422e-223
6.10268e-223
3.0849e-221
3.23828e-219
7.21747e-221
1.9829e-207
-4.31266e-151
5.52109e-151
-3.76458e-258
-1.68654e-206
-2.21448e-290
1.76198e-257
0
1.0531e-289
0
0
0
0
0
0
0
0
0
0
0
0
0
0
0
0
0
0
0
0
6.43426e-317
7.09042e-317
2.8216e-304
3.89732e-304
4.59287e-304
1.18117e-303
1.74305e-304
8.41849e-304
3.47818e-305
2.33511e-304
5.56546e-306
4.02561e-305
8.3715e-307
5.99851e-306
1.22305e-307
8.74908e-307
1.71598e-308
1.27083e-307
2.24512e-309
1.80341e-308
2.625e-310
2.41677e-309
2.58664e-311
2.91834e-310
1.98345e-312
2.98165e-311
1.05207e-313
2.37077e-312
3.09313e-315
1.30155e-313
-2.63705e-285
-4.92039e-283
6.19062e-280
-1.10961e-279
3.30123e-278
-5.58511e-278
7.8646e-277
-1.29555e-276
1.26998e-275
-2.06432e-275
1.59475e-274
-2.5765e-274
1.6667e-273
-2.68914e-273
1.50951e-272
-2.44026e-272
1.21818e-271
-1.97587e-271
8.86642e-271
-1.45602e-270
6.29249e-270
-9.83319e-270
4.93152e-269
-6.55892e-269
5.59578e-268
-4.88249e-268
9.9118e-267
-5.30971e-267
2.13706e-265
-9.08444e-266
4.70614e-264
-1.90518e-264
1.0053e-262
-4.10684e-263
2.06424e-261
-8.63837e-262
4.07804e-260
-1.75624e-260
7.77416e-259
-3.45367e-259
1.43464e-257
-6.58731e-258
2.57058e-256
-1.22242e-256
4.48509e-255
-2.21357e-255
7.63978e-254
-3.92269e-254
1.27378e-252
-6.82093e-253
2.08323e-251
-1.16685e-251
3.3502e-250
-1.96854e-250
5.30652e-249
-3.28308e-249
8.29803e-248
-5.42488e-248
1.28245e-246
-8.90133e-247
1.9634e-245
-1.45334e-245
2.97872e-244
-2.36629e-244
4.48877e-243
-3.8494e-243
6.71354e-242
-6.26977e-242
9.99073e-241
-1.02433e-240
1.47516e-239
-1.68214e-239
2.16719e-238
-2.78151e-238
3.1463e-237
-4.64093e-237
4.52707e-236
-7.82713e-236
6.35128e-235
-1.33715e-234
8.6857e-234
-2.31827e-233
1.10514e-232
-4.0877e-232
1.25624e-231
-7.34903e-231
9.27299e-231
-1.35238e-229
-4.15082e-231
-2.60445e-228
-4.38508e-229
-6.61169e-227
-2.64294e-227
-2.39335e-225
-1.37999e-225
-9.03175e-224
-6.43469e-224
-3.40401e-222
-2.77351e-222
-1.2434e-220
-7.07736e-219
-1.78028e-220
4.43099e-162
-3.27162e-148
4.08852e-148
3.91238e-188
-8.50329e-161
-2.18322e-234
-2.54192e-187
-5.26075e-255
1.21302e-233
-4.11668e-295
3.71636e-254
-1.55191e-306
5.34024e-294
1.4609e-305
2.07461e-304
1.14744e-305
7.806e-305
8.31066e-306
3.6991e-305
7.00675e-306
2.30411e-305
8.16291e-306
2.08848e-305
1.93355e-305
3.93334e-305
2.328e-302
3.81436e-302
2.26765e-292
3.09164e-292
3.42932e-284
4.39017e-284
7.91108e-281
1.27451e-280
1.41013e-280
3.98591e-280
5.42505e-281
2.85795e-280
9.99997e-282
7.74229e-281
1.37165e-282
1.18918e-281
1.73137e-283
1.49258e-282
2.11979e-284
1.80409e-283
2.50036e-285
2.17474e-284
2.75633e-286
2.57446e-285
2.70816e-287
2.88808e-286
2.21446e-288
2.91431e-287
1.36043e-289
2.45662e-288
5.27837e-291
1.55274e-289
-1.93262e-284
-1.42834e-282
1.38796e-278
-2.54169e-278
1.64338e-276
-2.62893e-276
4.7973e-275
-7.39048e-275
8.56818e-274
-1.29623e-273
1.14226e-272
-1.71232e-272
1.24022e-271
-1.85234e-271
1.1509e-270
-1.71929e-270
9.40973e-270
-1.41022e-269
6.83302e-269
-1.04329e-268
4.59585e-268
-6.97529e-268
2.86901e-267
-4.37912e-267
1.69923e-266
-2.58034e-266
1.01459e-265
-1.45612e-265
7.28763e-265
-8.35109e-265
8.113e-264
-5.80333e-264
1.3343e-262
-6.29102e-263
2.51697e-261
-1.01358e-261
4.78519e-260
-1.8835e-260
8.86167e-259
-3.54652e-259
1.58968e-257
-6.53805e-258
2.76561e-256
-1.17344e-256
4.67785e-255
-2.05254e-255
7.71315e-254
-3.50782e-254
1.24304e-252
-5.87277e-253
1.96257e-251
-9.65775e-252
3.04306e-250
-1.56392e-250
4.64287e-249
-2.49999e-249
6.98631e-248
-3.95407e-248
1.03835e-246
-6.20208e-247
1.52768e-245
-9.66813e-246
2.22699e-244
-1.50111e-244
3.22357e-243
-2.32603e-243
4.63398e-242
-3.6047e-242
6.63003e-241
-5.5976e-241
9.43031e-240
-8.72797e-240
1.33651e-238
-1.369e-238
1.88072e-237
-2.16463e-237
2.63393e-236
-3.45656e-236
3.63971e-235
-5.58614e-235
4.96947e-234
-9.15421e-234
6.55925e-233
-1.52451e-232
8.29802e-232
-2.58593e-231
9.30852e-231
-4.47955e-230
7.95342e-230
-7.95879e-229
-1.15128e-230
-1.47155e-227
-2.21911e-228
-3.49569e-226
-1.50284e-226
-1.28064e-224
-8.33367e-225
-5.06399e-223
-4.38394e-223
-2.09612e-221
-2.31949e-221
-9.36312e-220
-6.91789e-218
-1.95475e-219
-1.02682e-148
-3.49837e-146
4.18899e-146
2.08499e-181
-9.88621e-149
1.73768e-212
-2.17347e-180
-8.75023e-221
-1.21463e-211
-1.66189e-244
6.89883e-220
-5.3854e-256
2.21438e-243
3.6072e-255
5.38593e-254
2.84554e-255
1.97113e-254
2.06519e-255
9.29912e-255
1.71605e-255
5.69221e-255
1.88602e-255
4.88433e-255
3.57733e-255
7.45757e-255
4.73236e-254
8.14202e-254
2.08105e-247
3.10011e-247
5.66948e-241
8.29393e-241
3.09459e-238
5.7379e-238
5.83189e-238
1.82639e-237
2.28396e-238
1.32735e-237
3.87305e-239
3.49798e-238
4.599e-240
4.88734e-239
4.9126e-241
5.24559e-240
5.14013e-242
5.3695e-241
5.16801e-243
5.45104e-242
4.87239e-244
5.47551e-243
4.0749e-245
5.23247e-244
2.77796e-246
4.47727e-245
1.34366e-247
3.13386e-246
3.45394e-249
1.55037e-247
8.04859e-252
3.99091e-249
4.51685e-275
6.73346e-252
1.78885e-273
-2.58416e-273
3.65029e-272
-5.15163e-272
5.24957e-271
-7.31826e-271
5.98127e-270
-8.28841e-270
5.73344e-269
-7.93048e-269
4.7925e-268
-6.63773e-268
3.53786e-267
-4.9739e-267
2.39858e-266
-3.35466e-266
1.49674e-265
-2.10857e-265
8.68379e-265
-1.23431e-264
4.72718e-264
-6.78399e-264
2.44109e-263
-3.5278e-263
1.22549e-262
-1.75317e-262
6.4713e-262
-8.52626e-262
4.43036e-261
-4.38835e-261
4.83474e-260
-2.9448e-260
7.33973e-259
-3.16697e-259
1.22962e-257
-4.76233e-258
2.06401e-256
-7.94267e-257
3.3894e-255
-1.33373e-255
5.42642e-254
-2.20173e-254
8.48037e-253
-3.56059e-253
1.29655e-251
-5.64829e-252
1.94385e-250
-8.80889e-251
2.86403e-249
-1.35397e-249
4.15631e-248
-2.05588e-248
5.9517e-247
-3.0911e-247
8.42743e-246
-4.6122e-246
1.18158e-244
-6.84451e-245
1.64367e-243
-1.01231e-243
2.27038e-242
-1.49531e-242
3.11995e-241
-2.2103e-241
4.26523e-240
-3.27609e-240
5.81151e-239
-4.8783e-239
7.88011e-238
-7.31249e-238
1.06523e-236
-1.1055e-236
1.42924e-235
-1.68902e-235
1.90575e-234
-2.61292e-234
2.49753e-233
-4.10156e-233
3.20943e-232
-6.54654e-232
3.91841e-231
-1.06489e-230
4.40679e-230
-1.77024e-229
3.83078e-229
-3.01914e-228
3.89652e-229
-5.3437e-227
-7.3937e-228
-1.17212e-225
-5.16357e-226
-4.19868e-224
-2.97394e-224
-1.65368e-222
-1.58613e-222
-6.89045e-221
-8.80098e-221
-3.18811e-219
-2.54286e-217
-8.03675e-219
-6.25537e-146
-1.55402e-144
1.84811e-144
5.0386e-160
-5.03556e-146
1.02467e-195
-1.25069e-158
-1.51262e-207
-1.01685e-194
-2.70805e-221
1.44485e-206
-5.11797e-230
4.0328e-220
3.65392e-229
5.64821e-228
2.86606e-229
2.03115e-228
2.07625e-229
9.52064e-229
1.70387e-229
5.74892e-229
1.78938e-229
4.73342e-229
2.90675e-229
6.26277e-229
1.27139e-228
2.31114e-228
2.7518e-225
4.48061e-225
2.16997e-220
3.59847e-220
3.15364e-218
6.6939e-218
5.78817e-218
2.03013e-217
2.21284e-218
1.4431e-217
3.37656e-219
3.6339e-218
3.33425e-220
4.49574e-219
2.87766e-221
3.97165e-220
2.41302e-222
3.23312e-221
1.97472e-223
2.64005e-222
1.5283e-224
2.1655e-223
1.02715e-225
1.67644e-224
5.39886e-227
1.14566e-225
1.79626e-228
6.13547e-227
1.94533e-230
2.05998e-228
-5.09773e-254
2.08151e-230
4.1235e-272
4.54651e-252
1.01032e-270
-1.33632e-270
1.60413e-269
-2.08861e-269
1.94369e-268
-2.50921e-268
1.94191e-267
-2.49694e-267
1.67124e-266
-2.14749e-266
1.26203e-265
-1.64001e-265
8.68283e-265
-1.12244e-264
5.47073e-264
-7.11047e-264
3.19063e-263
-4.17699e-263
1.73739e-262
-2.2946e-262
8.89622e-262
-1.18714e-261
4.31059e-261
-5.81926e-261
1.9894e-260
-2.71762e-260
8.83944e-260
-1.21632e-259
3.8976e-259
-5.27108e-259
1.88661e-258
-2.27915e-258
1.26391e-257
-1.0874e-257
1.35069e-256
-7.21653e-257
1.89777e-255
-7.67675e-256
2.86637e-254
-1.07888e-254
4.32656e-253
-1.6377e-253
6.41612e-252
-2.49635e-252
9.3278e-251
-3.75653e-251
1.33115e-249
-5.56904e-250
1.86844e-248
-8.14498e-249
2.58473e-247
-1.17773e-247
3.5311e-246
-1.68739e-246
4.77226e-245
-2.40082e-245
6.39212e-244
-3.39942e-244
8.49721e-243
-4.80017e-243
1.12281e-241
-6.77327e-242
1.47614e-240
-9.56955e-241
1.9333e-239
-1.35639e-239
2.5228e-238
-1.93249e-238
3.28282e-237
-2.77284e-237
4.25449e-236
-4.01453e-236
5.49098e-235
-5.87624e-235
7.02742e-234
-8.71278e-234
8.89359e-233
-1.31132e-232
1.09919e-231
-2.00738e-231
1.30768e-230
-3.13299e-230
1.42694e-229
-4.99771e-229
1.2722e-228
-8.18177e-228
3.39412e-228
-1.38913e-226
-1.77118e-227
-2.83658e-225
-1.30972e-225
-9.87452e-224
-7.54055e-224
-3.82669e-222
-4.02905e-222
-1.57666e-220
-2.28829e-220
-7.41669e-219
-6.25261e-217
-2.21977e-218
-3.00487e-144
-4.05902e-143
4.82144e-143
-2.69494e-146
-2.48903e-144
-7.02491e-184
-2.01758e-146
8.66444e-186
1.28863e-182
2.88672e-196
-1.1482e-184
7.92901e-201
-5.45155e-195
-1.29971e-199
-2.0144e-198
-2.9997e-200
-2.17126e-199
-5.6888e-201
-2.66695e-200
-1.00879e-201
-3.48407e-201
-1.6877e-202
-4.59403e-202
-2.5568e-203
-5.73581e-203
-1.87492e-204
-3.62271e-204
2.11021e-203
3.76407e-203
7.83726e-200
1.46951e-199
4.04243e-198
9.82569e-198
6.68471e-198
2.66098e-197
2.37033e-198
1.77515e-197
3.09949e-199
4.11465e-198
2.38208e-200
4.31399e-199
1.53858e-201
2.94148e-200
9.67424e-203
1.78161e-201
5.98172e-204
1.08513e-202
3.45611e-205
6.63304e-204
1.69657e-206
3.83646e-205
5.97424e-208
1.89649e-206
9.97493e-210
6.74109e-208
-9.99061e-233
1.08376e-209
-6.79611e-254
2.14101e-230
1.84425e-269
2.65198e-252
3.33187e-268
-4.07351e-268
4.37023e-267
-5.28245e-267
4.60306e-266
-5.52823e-266
4.1121e-265
-4.92453e-265
3.19685e-264
-3.85733e-264
2.24478e-263
-2.69398e-263
1.43579e-262
-1.72919e-262
8.46399e-262
-1.02475e-261
4.64087e-261
-5.65739e-261
2.3847e-260
-2.93136e-260
1.1555e-259
-1.43447e-259
5.30839e-259
-6.66523e-259
2.323e-258
-2.95458e-258
9.72836e-258
-1.25484e-257
3.92085e-257
-5.12772e-257
1.53928e-256
-2.02706e-256
6.11905e-256
-7.84435e-256
2.79335e-255
-3.08884e-255
1.86547e-254
-1.40338e-254
1.95063e-253
-9.37227e-254
2.55134e-252
-9.84656e-253
3.52194e-251
-1.30019e-251
4.85532e-250
-1.82069e-250
6.60247e-249
-2.55869e-249
8.8454e-248
-3.56477e-248
1.16891e-246
-4.9182e-247
1.52653e-245
-6.72927e-246
1.97337e-244
-9.14962e-245
2.52975e-243
-1.23879e-243
3.22037e-242
-1.67363e-242
4.07732e-241
-2.26067e-241
5.13893e-240
-3.05916e-240
6.45583e-239
-4.15495e-239
8.08516e-238
-5.67519e-238
1.01025e-236
-7.80964e-237
1.25801e-235
-1.08486e-235
1.56087e-234
-1.52403e-234
1.92218e-233
-2.16957e-233
2.34237e-232
-3.13561e-232
2.79238e-231
-4.61101e-231
3.21004e-230
-6.91346e-230
3.40352e-229
-1.05974e-228
2.99526e-228
-1.66683e-227
1.03396e-227
-2.71827e-226
-3.41035e-227
-5.24633e-225
-2.58332e-225
-1.77754e-223
-1.47556e-223
-6.75134e-222
-7.83815e-222
-2.73702e-220
-4.54737e-220
-1.31195e-218
-1.16203e-216
-4.65827e-218
-7.61794e-143
-7.24233e-142
8.62633e-142
-3.28813e-144
-6.27454e-143
-5.14018e-175
-2.52898e-144
-4.94142e-175
8.96099e-173
-6.56247e-178
1.23747e-173
1.29746e-178
2.03036e-176
2.01221e-179
2.99629e-178
2.69892e-180
1.981e-179
3.69487e-181
1.77331e-180
5.32595e-182
1.89154e-181
9.6066e-183
2.70744e-182
4.34036e-183
1.02061e-182
6.1531e-183
1.27145e-182
1.33924e-182
2.62733e-182
3.07653e-183
6.53214e-183
-1.11543e-181
-3.11946e-181
-1.3412e-181
-6.16019e-181
-3.85355e-182
-3.41813e-181
-3.84453e-183
-6.66456e-182
-1.98554e-184
-5.37171e-183
-8.13399e-186
-2.46056e-184
-3.27384e-187
-9.43221e-186
-1.31415e-188
-3.66112e-187
-4.85901e-190
-1.44096e-188
-1.41796e-191
-5.26212e-190
-2.32465e-193
-1.51374e-191
-5.04296e-213
-2.39688e-193
-4.22498e-232
1.15575e-209
-5.47708e-254
2.07202e-230
4.77217e-267
1.33687e-252
6.91433e-266
-7.86926e-266
7.7867e-265
-8.78083e-265
7.29322e-264
-8.18026e-264
5.91661e-263
-6.62019e-263
4.24138e-262
-4.77483e-262
2.7689e-261
-3.10417e-261
1.65808e-260
-1.86506e-260
9.19894e-260
-1.0398e-259
4.76651e-259
-5.42175e-259
2.32169e-258
-2.66145e-258
1.06909e-257
-1.23683e-257
4.67609e-257
-5.46803e-257
1.95121e-256
-2.30969e-256
7.79629e-256
-9.35773e-256
2.99391e-255
-3.64936e-255
1.10903e-254
-1.37457e-254
3.98576e-254
-5.01876e-254
1.41e-253
-1.78621e-253
5.16158e-253
-6.2875e-253
2.27704e-252
-2.30089e-252
1.53585e-251
-1.01954e-251
1.57118e-250
-6.93995e-251
1.92658e-249
-7.19968e-250
2.46112e-248
-8.99664e-249
3.14085e-247
-1.17713e-247
3.96901e-246
-1.54665e-246
4.96248e-245
-2.02305e-245
6.14741e-244
-2.63307e-244
7.55484e-243
-3.41533e-243
9.22712e-242
-4.423e-242
1.12107e-240
-5.73033e-241
1.35715e-239
-7.44098e-240
1.63747e-238
-9.70318e-239
1.97188e-237
-1.27294e-237
2.36797e-236
-1.68324e-236
2.8386e-235
-2.24747e-235
3.38639e-234
-3.03596e-234
4.02017e-233
-4.15649e-233
4.71111e-232
-5.7793e-232
5.42577e-231
-8.17658e-231
5.9975e-230
-1.17978e-229
6.17645e-229
-1.74031e-228
5.23761e-228
-2.63439e-227
1.96296e-227
-4.13466e-226
-5.51858e-227
-7.66834e-225
-4.11242e-225
-2.53923e-223
-2.32964e-223
-9.44327e-222
-1.21702e-221
-3.76687e-220
-7.27709e-220
-1.85347e-218
-1.72039e-216
-7.81571e-218
-1.29049e-141
-9.60093e-141
1.14947e-140
-9.55754e-143
-1.05298e-141
-2.9168e-144
-7.41616e-143
-1.77871e-147
-2.02539e-144
8.22505e-173
-1.84059e-147
-3.43275e-172
-1.54558e-170
1.25214e-161
-5.21896e-162
4.2013e-162
3.77347e-162
1.28953e-162
1.18494e-162
5.99254e-163
2.85e-163
7.5566e-164
1.76315e-163
6.89237e-165
1.67348e-164
5.71074e-166
1.26696e-165
4.19868e-167
9.10048e-167
3.18327e-168
7.68639e-168
8.99364e-169
2.91906e-168
4.15429e-169
2.24811e-168
7.58764e-170
8.32109e-169
4.71959e-171
1.18438e-169
1.18945e-172
6.20844e-171
2.03337e-174
1.40047e-172
3.53886e-176
2.24176e-174
6.41133e-178
3.74531e-176
1.01778e-179
6.55797e-178
9.55411e-182
9.98956e-180
2.99014e-196
8.74014e-182
-2.06447e-211
-2.41171e-193
-6.77023e-232
1.17856e-209
-3.32644e-254
1.83735e-230
7.81555e-265
5.82188e-253
9.54488e-264
-1.01652e-263
9.47826e-263
-1.00131e-262
8.03042e-262
-8.44151e-262
5.96088e-261
-6.27979e-261
3.99388e-260
-4.18861e-260
2.44176e-259
-2.56391e-259
1.37722e-258
-1.45031e-258
7.22873e-258
-7.64502e-258
3.5553e-257
-3.7815e-257
1.64826e-256
-1.76543e-256
7.2384e-256
-7.81875e-256
3.02473e-255
-3.29955e-255
1.20727e-254
-1.33212e-254
4.61935e-254
-5.16381e-254
1.69967e-253
-1.92835e-253
6.03267e-253
-6.95867e-253
2.07129e-252
-2.43364e-252
6.90397e-252
-8.2724e-252
2.2477e-251
-2.74245e-251
7.27995e-251
-8.92236e-251
2.50025e-250
-2.90136e-250
1.08979e-249
-1.00526e-249
7.49348e-249
-4.44173e-249
7.50597e-248
-3.11153e-248
8.69448e-247
-3.19137e-247
1.0395e-245
-3.80513e-246
1.2429e-244
-4.70838e-245
1.47645e-243
-5.85935e-244
1.74226e-242
-7.28802e-243
2.04399e-241
-9.06144e-242
2.38758e-240
-1.12783e-240
2.77886e-239
-1.40781e-239
3.22686e-238
-1.76551e-238
3.73834e-237
-2.22857e-237
4.32489e-236
-2.83643e-236
4.9891e-235
-3.64679e-235
5.73964e-234
-4.74463e-234
6.55564e-233
-6.25846e-233
7.41668e-232
-8.38499e-232
8.20806e-231
-1.14336e-230