/*--------------------------------*- C++ -*----------------------------------*\
  =========                 |
  \\      /  F ield         | OpenFOAM: The Open Source CFD Toolbox
   \\    /   O peration     | Website:  https://openfoam.org
    \\  /    A nd           | Version:  7
     \\/     M anipulation  |
\*---------------------------------------------------------------------------*/
FoamFile
{
    version     2.0;
    format      ascii;
    class       volScalarField;
    location    "20";
    object      alpha.wetting;
}
// * * * * * * * * * * * * * * * * * * * * * * * * * * * * * * * * * * * * * //

dimensions      [0 0 0 0 0 0 0];

internalField   nonuniform List<scalar> 
49920
(
-6.60436e-317
9.34123e-317
1.74205e-316
1.52525e-316
1.56762e-316
1.31347e-316
1.47501e-316
2.0071e-316
1.77146e-316
1.45888e-316
1.54129e-316
1.76542e-316
1.55573e-316
9.26031e-317
1.28686e-316
-7.10322e-317
-6.22459e-317
-6.35881e-317
-6.51814e-317
-9.97873e-317
-1.01019e-316
-1.01594e-316
1.01846e-316
-1.01972e-316
3.06131e-316
3.06265e-316
3.06354e-316
3.06416e-316
3.06461e-316
3.06495e-316
3.06521e-316
3.06541e-316
3.06557e-316
3.06564e-316
3.06559e-316
3.06551e-316
3.06545e-316
3.06539e-316
3.06535e-316
3.06531e-316
3.06528e-316
3.06525e-316
3.06523e-316
-3.06522e-316
-3.06521e-316
-3.0652e-316
-3.06519e-316
-3.06519e-316
-3.06519e-316
-3.0652e-316
-3.06521e-316
-3.06522e-316
-3.06524e-316
-3.06526e-316
-3.06528e-316
-3.0653e-316
-3.06533e-316
-3.06535e-316
-3.06538e-316
-3.06541e-316
-3.06545e-316
-3.06548e-316
-3.06552e-316
-3.06555e-316
-3.06559e-316
-3.06562e-316
-3.06567e-316
-3.06569e-316
-3.06574e-316
-3.06573e-316
-3.06575e-316
-3.06571e-316
-3.06572e-316
-3.06569e-316
-3.06572e-316
-3.0657e-316
-3.06575e-316
-3.06575e-316
-3.06576e-316
-3.0657e-316
-4.35897e-316
1.03309e-316
1.20032e-316
1.33395e-316
1.3534e-316
1.02628e-316
1.55249e-316
1.12207e-316
1.45617e-316
1.34861e-316
1.27193e-316
1.40745e-316
1.5954e-316
1.10531e-316
1.11147e-316
1.02148e-316
6.14795e-317
5.9151e-317
5.9762e-317
6.14054e-317
6.29258e-317
9.58436e-317
9.66295e-317
9.70485e-317
-2.91858e-316
-2.92292e-316
-2.92573e-316
-2.92767e-316
2.92905e-316
3.25564e-316
3.25651e-316
3.25718e-316
3.25772e-316
3.25802e-316
3.25796e-316
3.25774e-316
3.25756e-316
3.2574e-316
3.25727e-316
3.25716e-316
3.25707e-316
3.25699e-316
3.25693e-316
3.25688e-316
3.25684e-316
3.25682e-316
3.2568e-316
3.25679e-316
3.2568e-316
3.25681e-316
3.25683e-316
3.25686e-316
3.2569e-316
3.25695e-316
3.25699e-316
3.25706e-316
3.25712e-316
3.2572e-316
3.25727e-316
3.25735e-316
2.15968e-314
1.9841e-312
1.83901e-310
1.72761e-308
1.65104e-306
1.61305e-304
1.61855e-302
1.68024e-300
1.8167e-298
2.07106e-296
2.5173e-294
3.34569e-292
5.05498e-290
9.09144e-288
2.07253e-285
5.75909e-283
2.07785e-280
9.4479e-278
5.5467e-275
3.9839e-272
-6.42765e-316
9.63761e-317
9.67789e-317
1.06306e-316
1.0672e-316
1.01847e-316
1.46873e-316
1.04099e-316
1.06565e-316
1.53935e-316
1.55907e-316
1.52467e-316
1.25146e-316
1.04654e-316
9.59728e-317
1.27372e-316
9.20373e-317
5.80398e-317
5.69361e-317
5.76488e-317
5.9028e-317
9.03617e-317
9.15629e-317
-9.22692e-317
-2.78043e-316
-2.78796e-316
-2.79282e-316
-3.1068e-316
3.1094e-316
3.11132e-316
3.11277e-316
3.11389e-316
3.11478e-316
3.11528e-316
3.11523e-316
3.11493e-316
3.11467e-316
3.11446e-316
3.11427e-316
3.11412e-316
3.11399e-316
3.11388e-316
3.1138e-316
3.11373e-316
3.11368e-316
3.11364e-316
3.11363e-316
3.11362e-316
3.11363e-316
3.11365e-316
3.11369e-316
3.11374e-316
3.11379e-316
3.11387e-316
8.81247e-315
4.92858e-313
2.77086e-311
1.55405e-309
8.72729e-308
4.92178e-306
2.79301e-304
1.59695e-302
9.2113e-301
5.36934e-299
3.17194e-297
1.9063e-295
1.1716e-293
7.40833e-292
4.85767e-290
3.32622e-288
2.39582e-286
1.82654e-284
1.49601e-282
1.34936e-280
1.38869e-278
1.68628e-276
2.41692e-274
4.45596e-272
1.08199e-269
3.58539e-267
-1.04789e-315
1.21991e-316
8.899e-317
1.24622e-316
9.29941e-317
9.18052e-317
1.25449e-316
9.21312e-317
9.01118e-317
1.30155e-316
1.33199e-316
1.33683e-316
1.29324e-316
1.25544e-316
9.06022e-317
1.52713e-316
9.00961e-317
5.72132e-317
5.52499e-317
5.4977e-317
5.5811e-317
5.69324e-317
8.67801e-317
1.75397e-316
-2.3537e-316
-2.6584e-316
-2.66516e-316
-2.96636e-316
-2.96995e-316
2.97258e-316
2.97456e-316
2.9761e-316
2.97731e-316
3.27574e-316
3.27566e-316
3.27529e-316
2.97724e-316
2.977e-316
2.97678e-316
2.97661e-316
2.97646e-316
2.97633e-316
2.97624e-316
2.97616e-316
2.97611e-316
2.97607e-316
2.97606e-316
2.97606e-316
2.97608e-316
3.57135e-316
2.76784e-314
1.25886e-312
5.55719e-311
2.39984e-309
1.01694e-307
4.24124e-306
1.74608e-304
7.11838e-303
2.88361e-301
1.1653e-299
4.71934e-298
1.9255e-296
7.95943e-295
3.35177e-293
1.44492e-291
6.40182e-290
2.92593e-288
1.38368e-286
6.79354e-285
3.46949e-283
1.85004e-281
1.03714e-279
6.19213e-278
3.96857e-276
2.79695e-274
2.28647e-272
2.16554e-270
2.48039e-268
3.65142e-266
7.45024e-264
-1.29602e-315
2.91295e-316
8.51957e-317
1.1648e-316
8.62843e-317
8.57901e-317
1.16153e-316
-3.14786e-316
-1.95509e-316
-8.28281e-316
-1.18748e-316
-1.48399e-316
-9.50547e-316
-7.34284e-316
-5.52368e-316
-8.19704e-316
-4.92335e-316
-1.95644e-316
-1.34602e-316
-1.05851e-316
-1.06333e-316
-1.35004e-316
-1.64677e-316
-1.9452e-316
-2.24127e-316
-2.53444e-316
-2.54287e-316
2.83171e-316
-2.83615e-316
2.83938e-316
3.126e-316
3.12808e-316
3.12972e-316
3.1305e-316
3.13035e-316
3.12997e-316
3.12965e-316
3.12937e-316
3.12912e-316
3.12892e-316
3.12875e-316
3.12861e-316
3.1285e-316
3.12842e-316
3.12837e-316
3.12834e-316
2.44579e-315
1.04658e-313
4.2407e-312
1.6742e-310
6.33709e-309
2.33192e-307
8.3703e-306
2.93993e-304
1.01341e-302
3.43801e-301
1.15098e-299
3.81248e-298
1.25264e-296
4.09286e-295
1.33335e-293
4.34304e-292
1.41909e-290
4.67088e-289
1.55758e-287
5.30449e-286
1.86439e-284
6.84695e-283
2.65589e-281
1.0946e-279
4.77989e-278
2.20228e-276
1.0754e-274
5.67944e-273
3.31525e-271
2.19067e-269
1.66905e-267
1.49362e-265
1.62717e-263
2.36987e-261
-1.5192e-315
6.12268e-316
1.09573e-316
1.10734e-316
8.20143e-317
8.15489e-317
1.09704e-316
-2.71059e-316
-1.86031e-316
6.68019e-316
4.42404e-316
4.70411e-316
9.53076e-316
1.26396e-315
1.20734e-315
1.20745e-315
6.39711e-316
2.70869e-316
1.57079e-316
1.27894e-316
1.01861e-316
1.28551e-316
1.56518e-316
1.84999e-316
2.13428e-316
2.41606e-316
2.42589e-316
2.70278e-316
2.70792e-316
2.98281e-316
-2.9859e-316
2.98828e-316
2.99017e-316
2.99093e-316
2.99068e-316
2.99033e-316
2.99003e-316
2.98976e-316
2.98953e-316
2.98933e-316
2.98917e-316
2.98904e-316
2.98894e-316
4.34745e-316
2.86112e-314
1.12762e-312
4.22931e-311
1.51701e-309
5.30324e-308
1.76395e-306
5.68595e-305
1.78263e-303
5.45421e-302
1.63366e-300
4.80441e-299
1.39114e-297
3.97673e-296
1.12516e-294
3.15885e-293
8.82112e-292
2.45609e-290
6.83482e-289
1.90553e-287
5.33591e-286
1.5049e-284
4.29012e-283
1.24253e-281
3.68894e-280
1.13952e-278
3.74829e-277
1.3432e-275
5.28759e-274
2.267e-272
1.06388e-270
5.46407e-269
3.2565e-267
2.21262e-265
1.69121e-263
1.52051e-261
1.77141e-259
1.42125e-315
7.18142e-316
5.01819e-316
6.09976e-316
3.93473e-316
3.12558e-316
3.39605e-316
-2.84665e-316
-2.03541e-316
3.93233e-316
3.93281e-316
5.01229e-316
-1.12412e-315
-2.20584e-315
-2.23283e-315
-1.82705e-315
-8.2594e-316
-3.65459e-316
-1.77505e-316
-1.23679e-316
-1.22371e-316
-1.22812e-316
-1.4906e-316
-1.76087e-316
-2.03281e-316
-2.30316e-316
-2.57122e-316
-2.57942e-316
-2.84364e-316
-2.84817e-316
-2.85156e-316
-3.11364e-316
-3.11581e-316
-3.11655e-316
-3.1162e-316
3.11588e-316
3.11559e-316
3.11533e-316
3.11511e-316
3.11491e-316
3.11476e-316
1.14203e-315
5.22464e-314
2.03074e-312
7.40237e-311
2.55132e-309
8.53761e-308
2.67987e-306
8.08989e-305
2.35903e-303
6.67073e-302
1.83593e-300
4.93406e-299
1.29894e-297
3.35942e-296
8.55953e-295
2.15421e-293
5.36909e-292
1.32849e-290
3.27134e-289
8.03566e-288
1.9737e-286
4.85854e-285
1.20149e-283
2.99195e-282
7.52116e-281
1.91415e-279
4.94954e-278
1.30896e-276
3.58448e-275
1.04539e-273
3.39466e-272
1.27136e-270
5.44276e-269
2.64821e-267
1.48482e-265
9.13798e-264
6.22031e-262
4.88044e-260
4.88639e-258
1.17429e-315
8.38965e-316
6.32611e-316
5.81414e-316
4.52019e-316
3.74852e-316
3.49275e-316
-2.97149e-316
-2.20488e-316
3.23162e-316
3.48939e-316
4.26159e-316
-7.10266e-316
-1.40644e-315
-3.4125e-315
-3.07248e-314
-1.98161e-314
-4.43602e-315
-7.58394e-316
-2.38869e-316
-1.17758e-316
-1.176e-316
-1.42223e-316
-1.67771e-316
-1.93686e-316
-2.19566e-316
-2.45258e-316
-2.46144e-316
-2.71435e-316
-2.7192e-316
-2.97034e-316
2.02035e-303
1.55801e-298
8.24041e-296
1.29514e-293
1.42567e-291
1.1949e-289
8.06219e-288
4.58547e-286
2.27385e-284
1.00727e-282
4.05835e-281
1.50785e-279
5.22239e-278
1.70109e-276
5.37565e-275
1.58094e-273
4.45606e-272
1.20952e-270
3.17478e-269
8.08988e-268
2.00819e-266
4.87242e-265
1.15894e-263
2.71037e-262
6.24896e-261
1.42413e-259
3.21609e-258
7.21465e-257
1.61147e-255
3.59232e-254
8.01015e-253
1.7907e-251
4.02228e-250
9.09881e-249
2.07746e-247
4.7986e-246
1.12418e-244
2.67802e-243
6.51727e-242
1.63522e-240
4.36608e-239
1.35184e-237
5.17151e-236
2.46547e-234
1.28801e-232
7.23016e-231
4.40863e-229
3.03085e-227
2.59515e-225
1.04589e-315
8.98398e-316
7.26027e-316
6.27572e-316
5.04676e-316
4.30754e-316
3.57546e-316
3.07934e-316
2.58869e-316
3.07851e-316
3.32861e-316
4.06601e-316
-6.2757e-316
-1.07037e-315
-1.80822e-315
-5.67875e-314
-6.37048e-314
-1.91296e-314
-3.85827e-315
-1.24302e-315
-4.30585e-316
-1.35304e-316
-1.35899e-316
-1.60004e-316
-1.84626e-316
-2.09344e-316
-2.33936e-316
-2.58352e-316
-2.59064e-316
-2.83171e-316
-2.83582e-316
-3.19359e-287
-2.29413e-284
-1.86496e-282
-1.92405e-281
3.77791e-279
3.87448e-277
2.60383e-275
1.44023e-273
6.95981e-272
3.01977e-270
1.19687e-268
4.38831e-267
1.50329e-265
5.0185e-264
1.53477e-262
4.47775e-261
1.25266e-259
3.37516e-258
8.79449e-257
2.2241e-255
5.47793e-254
1.31806e-252
3.1075e-251
7.19829e-250
1.64267e-248
3.70222e-247
8.26086e-246
1.82918e-244
4.02865e-243
8.84506e-242
1.94022e-240
4.26132e-239
9.39166e-238
2.08151e-236
4.64958e-235
1.04913e-233
2.39652e-232
5.55692e-231
1.31122e-229
3.16497e-228
7.90311e-227
2.13694e-225
7.56617e-224
3.70151e-222
1.97692e-220
1.12152e-218
6.87229e-217
4.7209e-215
4.05883e-213
4.85724e-276
2.74102e-314
7.85901e-316
6.45367e-316
5.2819e-316
4.57588e-316
3.87284e-316
3.17182e-316
2.70623e-316
2.9392e-316
3.40456e-316
4.10874e-316
5.74916e-316
-9.26219e-316
-1.44217e-315
-7.21549e-314
-1.31293e-313
-5.20448e-314
-1.13293e-314
-2.94406e-315
-7.62644e-316
-1.29789e-316
-1.29986e-316
-1.52728e-316
-1.76076e-316
-1.99633e-316
-2.23139e-316
-2.46497e-316
-2.69708e-316
-2.70281e-316
-1.5706e-287
-2.3661e-282
-1.47744e-279
-6.39918e-278
-1.4825e-276
-2.37437e-275
-2.48398e-274
9.25324e-274
1.84735e-271
9.00197e-270
3.53446e-268
1.25028e-266
4.1034e-265
1.31482e-263
3.84199e-262
1.07046e-260
2.86038e-259
7.36443e-258
1.83445e-256
4.43722e-255
1.0457e-253
2.40826e-252
5.4354e-251
1.2054e-249
2.63318e-248
5.67945e-247
1.21225e-245
2.56618e-244
5.39904e-243
1.13133e-241
2.36589e-240
4.94789e-239
1.03692e-237
2.18199e-236
4.61991e-235
9.86276e-234
2.12741e-232
4.64714e-231
1.03026e-229
2.3248e-228
5.35685e-227
1.27056e-225
3.18306e-224
9.95394e-223
4.71651e-221
2.491e-219
1.39526e-217
8.43112e-216
5.6938e-214
4.82733e-212
1.06185e-211
6.28219e-264
8.38301e-316
6.82097e-316
5.7029e-316
4.8103e-316
4.13761e-316
3.46715e-316
3.02259e-316
3.02481e-316
3.46754e-316
4.13807e-316
5.47876e-316
-8.15713e-316
-1.17343e-315
4.64201e-311
5.91642e-311
1.75673e-311
2.61396e-312
3.309e-313
4.50166e-314
6.97153e-315
1.28547e-315
4.5848e-316
1.67997e-316
1.90411e-316
2.12847e-316
2.35174e-316
2.57367e-316
2.79444e-316
-2.03449e-280
-2.5077e-277
-1.86586e-275
-5.20089e-274
-9.51185e-273
-1.33692e-271
-1.56423e-270
-1.6306e-269
-1.72767e-268
-2.48774e-267
-5.79625e-266
-1.71091e-264
-5.36668e-263
-1.53678e-261
-4.16154e-260
-1.06837e-258
-2.61225e-257
-6.11065e-256
-1.37318e-254
-2.97523e-253
-6.23622e-252
-1.26827e-250
-2.50948e-249
-4.84246e-248
-9.13284e-247
-1.68651e-245
-3.0541e-244
-5.42954e-243
-9.48198e-242
-1.62643e-240
-2.7371e-239
-4.50658e-238
-7.21924e-237
-1.11289e-235
-1.61407e-234
-2.08555e-233
-1.99526e-232
2.7949e-232
9.27914e-230
3.72877e-228
1.17225e-226
3.39424e-225
9.74117e-224
3.2876e-222
1.74684e-220
1.01252e-218
6.0673e-217
3.8545e-215
2.69684e-213
2.34236e-211
-3.74664e-162
-8.86433e-218
4.96822e-279
7.13956e-316
5.86392e-316
5.22194e-316
4.37079e-316
3.72998e-316
3.30515e-316
3.30457e-316
3.51879e-316
4.15647e-316
5.43125e-316
-7.34856e-316
1.54822e-309
1.70062e-296
2.76579e-296
9.61647e-297
1.49067e-297
1.77047e-298
2.16418e-299
2.95152e-300
4.42523e-301
6.94117e-302
1.06662e-302
1.48927e-303
1.74513e-304
1.58246e-305
1.01316e-306
-5.52381e-281
-6.92549e-276
-2.3037e-273
-8.17059e-272
-1.67196e-270
-2.49964e-269
-3.01207e-268
-3.08818e-267
-2.79588e-266
-2.32705e-265
-1.95032e-264
-2.10861e-263
-3.69223e-262
-8.78071e-261
-2.22669e-259
-5.5108e-258
-1.30708e-256
-2.96981e-255
-6.48475e-254
-1.36578e-252
-2.78455e-251
-5.51353e-250
-1.06359e-248
-2.00458e-247
-3.70158e-246
-6.71375e-245
-1.19907e-243
-2.11361e-242
-3.68548e-241
-6.37042e-240
-1.09384e-238
-1.86941e-237
-3.18609e-236
-5.425e-235
-9.24521e-234
-1.57954e-232
-2.70996e-231
-4.67602e-230
-8.12589e-229
-1.42414e-227
-2.51931e-226
-4.50329e-225
-8.13157e-224
-1.48347e-222
-2.78264e-221
-6.00679e-220
-1.38336e-218
-1.56797e-218
3.52491e-215
4.26571e-213
4.46772e-211
-1.44512e-142
-7.29507e-198
7.8602e-249
4.05272e-281
6.39646e-316
5.38528e-316
4.77229e-316
3.96173e-316
3.5558e-316
3.55363e-316
3.75654e-316
4.16506e-316
5.17823e-316
-6.80026e-316
4.93689e-308
2.76426e-295
5.69333e-295
2.35878e-295
3.959e-296
4.5747e-297
5.13942e-298
6.35573e-299
8.69397e-300
1.26161e-300
1.82371e-301
2.43234e-302
2.74365e-303
2.37408e-304
1.39222e-305
-5.52767e-275
-1.29222e-271
-6.68004e-270
-1.58119e-268
-2.55954e-267
-3.23536e-266
-3.41232e-265
-3.12404e-264
-2.54893e-263
-1.89102e-262
-1.28485e-261
-8.61758e-261
-6.44774e-260
-7.04544e-259
-1.21085e-257
-2.5503e-256
-5.52004e-255
-1.16567e-253
-2.37887e-252
-4.69514e-251
-8.98657e-250
-1.67325e-248
-3.03965e-247
-5.403e-246
-9.42201e-245
-1.61616e-243
-2.73344e-242
-4.56934e-241
-7.56644e-240
-1.2439e-238
-2.03447e-237
-3.31736e-236
-5.40361e-235
-8.81035e-234
-1.44066e-232
-2.3672e-231
-3.91606e-230
-6.53475e-229
-1.10215e-227
-1.88223e-226
-3.26208e-225
-5.74745e-224
-1.0325e-222
-1.89775e-221
-3.65041e-220
-9.25205e-219
-3.34371e-217
-1.25923e-215
-4.73608e-214
-1.72569e-212
-9.79729e-211
-9.88921e-140
-3.34742e-152
-1.08465e-178
4.71967e-225
1.21159e-245
1.44781e-285
4.82407e-296
1.63437e-296
7.41258e-297
4.7491e-297
4.76706e-297
1.07139e-296
1.33028e-293
1.4411e-283
2.5982e-275
7.5667e-272
1.72962e-271
7.75613e-272
1.32516e-272
1.38823e-273
1.3158e-274
1.33679e-275
1.49651e-276
1.78519e-277
2.13501e-278
2.36369e-279
2.19641e-280
1.5139e-281
-1.49287e-274
-2.80022e-270
-3.01168e-268
-8.71608e-267
-1.56279e-265
-2.10025e-264
-2.30361e-263
-2.16274e-262
-1.79126e-261
-1.33643e-260
-9.00251e-260
-5.69028e-259
-3.37386e-258
-1.91499e-257
-1.1043e-256
-7.71396e-256
-8.40387e-255
-1.36048e-253
-2.5398e-252
-4.80364e-251
-8.89364e-250
-1.60284e-248
-2.81476e-247
-4.82876e-246
-8.11351e-245
-1.33883e-243
-2.175e-242
-3.48724e-241
-5.53086e-240
-8.69721e-239
-1.35889e-237
-2.11413e-236
-3.28182e-235
-5.09354e-234
-7.9197e-233
-1.23606e-231
-1.94028e-230
-3.06922e-229
-4.90231e-228
-7.92176e-227
-1.29786e-225
-2.16003e-224
-3.66126e-223
-6.33501e-222
-1.12418e-220
-2.07512e-219
-4.92106e-218
-1.79893e-216
-7.09752e-215
-2.93001e-213
-1.30513e-211
-9.61283e-210
-9.60592e-138
-3.54551e-140
-8.78275e-172
-4.7149e-203
2.33615e-211
6.38488e-235
1.34878e-245
4.47234e-246
2.01975e-246
1.26115e-246
1.17913e-246
2.09359e-246
2.81341e-245
1.3537e-238
4.32714e-232
2.94958e-229
7.18522e-229
3.46018e-229
5.97515e-230
5.80338e-231
4.72725e-232
4.04794e-233
3.77673e-234
3.77642e-235
3.80637e-236
3.54859e-237
2.73096e-238
1.47454e-239
4.07984e-241
7.27831e-244
-2.91259e-265
-5.99081e-264
-8.71496e-263
-1.00549e-261
-9.76515e-261
-8.27502e-260
-6.26659e-259
-4.26574e-258
-2.70346e-257
-1.5945e-256
-8.82492e-256
-4.61922e-255
-2.30986e-254
-1.13005e-253
-5.84958e-253
-3.9471e-252
-4.26767e-251
-6.45083e-250
-1.08129e-248
-1.82451e-247
-3.02598e-246
-4.91545e-245
-7.83079e-244
-1.22619e-242
-1.89187e-241
-2.8828e-240
-4.34856e-239
-6.50788e-238
-9.6837e-237
-1.43568e-235
-2.12511e-234
-3.1469e-233
-4.67113e-232
-6.96384e-231
-1.04474e-229
-1.58033e-228
-2.41498e-227
-3.73589e-226
-5.86183e-225
-9.35037e-224
-1.51942e-222
-2.52281e-221
-4.29566e-220
-7.58948e-219
-1.66105e-217
-5.93583e-216
-2.33132e-214
-9.6846e-213
-4.46597e-211
-3.54921e-209
-3.89727e-136
-1.64832e-137
-4.75176e-150
-3.89071e-186
5.02959e-198
1.22895e-211
1.51877e-219
4.9866e-220
2.23927e-220
1.36981e-220
1.21101e-220
1.81945e-220
7.97604e-220
1.86205e-216
1.69935e-211
3.05617e-209
7.30053e-209
3.59577e-209
6.13892e-210
5.38289e-211
3.63561e-212
2.47185e-213
1.84143e-214
1.48886e-215
1.20433e-216
8.9063e-218
5.22713e-219
1.91518e-220
2.08377e-222
4.82455e-244
-1.48219e-262
-2.395e-261
-2.95113e-260
-2.99537e-259
-2.61754e-258
-2.02565e-257
-1.40223e-256
-8.97225e-256
-5.3184e-255
-2.94592e-254
-1.53594e-253
-7.58435e-253
-3.56679e-252
-1.60717e-251
-7.01051e-251
-3.05053e-250
-1.46443e-249
-9.7772e-249
-1.04615e-247
-1.47855e-246
-2.25662e-245
-3.45775e-244
-5.2292e-243
-7.78889e-242
-1.14423e-240
-1.66136e-239
-2.38943e-238
-3.41157e-237
-4.84585e-236
-6.86182e-235
-9.70608e-234
-1.37417e-232
-1.95112e-231
-2.78358e-230
-3.99799e-229
-5.79194e-228
-8.48019e-227
-1.25725e-225
-1.89139e-224
-2.89304e-223
-4.51012e-222
-7.18375e-221
-1.1739e-219
-1.98875e-218
-4.05071e-217
-1.40606e-215
-5.43131e-214
-2.2299e-212
-1.04485e-210
-8.77181e-209
-9.33928e-135
-7.45088e-136
-7.16883e-138
4.80724e-174
-4.06411e-176
-1.74199e-186
-5.7874e-190
-5.74997e-191
-6.77892e-192
-8.9213e-193
-1.24651e-193
-1.72904e-194
-1.25621e-195
1.5067e-194
6.40475e-191
4.06228e-189
8.81786e-189
4.21729e-189
6.82669e-190
5.16956e-191
2.71881e-192
1.37653e-193
7.61291e-195
4.55221e-196
2.72916e-197
1.45068e-198
5.63072e-200
9.86981e-202
2.10166e-222
2.76468e-244
-4.44764e-260
-5.97334e-259
-6.42086e-258
-5.84065e-257
-4.65284e-256
-3.2957e-255
-2.14126e-254
-1.28269e-253
-7.15097e-253
-3.73897e-252
-1.84534e-251
-8.64444e-251
-3.86206e-250
-1.65277e-249
-6.80402e-249
-2.70926e-248
-1.05587e-247
-4.18646e-247
-1.91489e-246
-1.28721e-245
-1.36089e-244
-1.80791e-243
-2.54634e-242
-3.59815e-241
-5.03887e-240
-6.98551e-239
-9.60047e-238
-1.31066e-236
-1.78106e-235
-2.41408e-234
-3.27013e-233
-4.43582e-232
-6.03682e-231
-8.25836e-230
-1.13775e-228
-1.58158e-227
-2.22255e-226
-3.16347e-225
-4.56981e-224
-6.7134e-223
-1.00526e-221
-1.53815e-220
-2.41424e-219
-3.9269e-218
-7.55709e-217
-2.55177e-215
-9.65624e-214
-3.89835e-212
-1.86028e-210
-1.63969e-208
-1.53459e-133
-1.72095e-134
-8.37026e-136
3.22697e-164
4.4032e-165
6.73894e-168
9.13649e-170
5.63233e-171
4.85521e-172
5.19491e-173
7.78666e-174
3.19625e-174
4.44803e-174
1.02191e-173
2.66545e-174
-1.18527e-172
-1.89491e-172
-7.73559e-173
-1.08026e-173
-6.40206e-175
-2.28403e-176
-7.33875e-178
-2.58001e-179
-9.8775e-181
-3.71428e-182
-1.14234e-183
-1.96785e-185
1.03312e-201
1.9971e-222
1.37023e-244
-8.46094e-258
-9.79232e-257
-9.38176e-256
-7.76112e-255
-5.69805e-254
-3.75994e-253
-2.28838e-252
-1.29057e-251
-6.80072e-251
-3.3714e-250
-1.58149e-249
-7.055e-249
-3.0062e-248
-1.2284e-247
-4.83084e-247
-1.83459e-246
-6.75262e-246
-2.42237e-245
-8.5929e-245
-3.16824e-244
-1.41412e-243
-9.69336e-243
-1.01236e-241
-1.27309e-240
-1.67569e-239
-2.21403e-238
-2.91091e-237
-3.80652e-236
-4.9583e-235
-6.44543e-234
-8.37778e-233
-1.09092e-231
-1.42581e-230
-1.87387e-229
-2.48103e-228
-3.31545e-227
-4.47989e-226
-6.13265e-225
-8.52114e-224
-1.20431e-222
-1.73483e-221
-2.55403e-220
-3.85622e-219
-6.03483e-218
-1.11536e-216
-3.67922e-215
-1.36231e-213
-5.40852e-212
-2.64751e-210
-2.44372e-208
-1.87954e-132
-2.65098e-133
-2.27914e-134
-6.9785e-136
-6.50723e-139
-5.27116e-162
-1.71409e-153
1.17282e-153
3.55933e-154
8.52961e-155
5.52024e-155
5.49072e-156
4.48623e-157
3.46088e-158
2.96732e-159
1.03083e-159
6.45984e-160
1.79385e-160
1.86822e-161
7.32075e-163
1.2993e-164
1.75044e-166
2.64684e-168
4.49062e-170
7.00657e-172
6.5212e-174
-1.95059e-185
1.03598e-201
1.74112e-222
5.87145e-245
-1.07668e-255
-1.10133e-254
-9.55861e-254
-7.27524e-253
-4.94349e-252
-3.07361e-251
-1.76246e-250
-9.405e-250
-4.70497e-249
-2.22014e-248
-9.93361e-248
-4.23386e-247
-1.72599e-246
-6.75486e-246
-2.54638e-245
-9.27477e-245
-3.27352e-244
-1.12281e-243
-3.75536e-243
-1.23236e-242
-4.04097e-242
-1.41143e-241
-6.2846e-241
-4.4348e-240
-4.58e-239
-5.49594e-238
-6.84094e-237
-8.55926e-236
-1.06982e-234
-1.33587e-233
-1.66894e-232
-2.08984e-231
-2.62768e-230
-3.32357e-229
-4.23638e-228
-5.4515e-227
-7.09525e-226
-9.35684e-225
-1.25271e-223
-1.7059e-222
-2.36818e-221
-3.35935e-220
-4.88877e-219
-7.37612e-218
-1.33288e-216
-4.31468e-215
-1.56336e-213
-6.12437e-212
-3.09851e-210
-2.99107e-208
-1.8086e-131
-3.02492e-132
-3.63218e-133
-2.43667e-134
-7.03076e-136
-1.0605e-137
-2.04563e-139
-6.49426e-141
-3.01659e-142
-1.83225e-143
-1.1328e-145
-1.19372e-146
-1.37185e-147
-5.28844e-148
-3.36185e-148
-1.5967e-148
-4.45545e-149
-6.15709e-150
-3.48293e-151
-5.84094e-153
-5.6717e-156
1.91941e-166
2.77929e-168
4.50079e-170
6.58473e-172
5.54864e-174
-1.85808e-185
9.75916e-202
1.37212e-222
2.08061e-245
-9.55455e-254
-8.78103e-253
-6.99258e-252
-4.92867e-251
-3.15019e-250
-1.84647e-249
-1.00267e-248
-5.08491e-248
-2.42427e-247
-1.09261e-246
-4.67759e-246
-1.91029e-245
-7.47059e-245
-2.80733e-244
-1.01694e-243
-3.5616e-243
-1.20928e-242
-3.99089e-242
-1.28337e-241
-4.0317e-241
-1.24153e-240
-3.77491e-240
-1.16009e-239
-3.90887e-239
-1.77365e-238
-1.2979e-237
-1.32859e-236
-1.53421e-235
-1.82633e-234
-2.18932e-233
-2.63169e-232
-3.17349e-231
-3.8446e-230
-4.68726e-229
-5.76082e-228
-7.15014e-227
-8.97757e-226
-1.14238e-224
-1.47586e-223
-1.93967e-222
-2.59857e-221
-3.55795e-220
-4.99769e-219
-7.28556e-218
-1.31256e-216
-4.18446e-215
-1.48485e-213
-5.77352e-212
-3.03772e-210
-3.0647e-208
-1.41635e-130
-2.71129e-131
-4.10432e-132
-4.21985e-133
-2.60448e-134
-1.04005e-135
-3.9346e-137
-1.95287e-138
-1.37187e-139
-1.33078e-140
-3.15225e-144
-2.51975e-146
-1.15376e-144
-1.57223e-144
-1.06879e-144
-4.23607e-145
-9.37528e-146
-9.65005e-147
-3.40924e-148
-7.09363e-151
-4.20745e-156
1.97939e-166
2.74371e-168
4.22289e-170
5.76201e-172
4.38272e-174
-1.6968e-185
8.61901e-202
9.67392e-223
6.67299e-246
-6.06744e-252
-5.10378e-251
-3.76199e-250
-2.4888e-249
-1.49985e-248
-8.33027e-248
-4.30272e-247
-2.08173e-246
-9.49056e-246
-4.09777e-245
-1.68316e-244
-6.60306e-244
-2.48296e-243
-8.97896e-243
-3.13211e-242
-1.05689e-241
-3.45906e-241
-1.10079e-240
-3.41427e-240
-1.03447e-239
-3.06854e-239
-8.93276e-239
-2.56122e-238
-7.29727e-238
-2.12957e-237
-7.05635e-237
-3.33279e-236
-2.54391e-235
-2.58987e-234
-2.90283e-233
-3.33995e-232
-3.87796e-231
-4.53133e-230
-5.33209e-229
-6.32784e-228
-7.58587e-227
-9.20196e-226
-1.13143e-224
-1.41261e-223
-1.79422e-222
-2.32318e-221
-3.07424e-220
-4.17398e-219
-5.88156e-218
-1.08006e-216
-3.39782e-215
-1.18262e-213
-4.59866e-212
-2.52728e-210
-2.66409e-208
-9.21747e-130
-1.97377e-130
-3.55858e-131
-4.87297e-132
-4.68215e-133
-3.24006e-134
-1.95756e-135
-1.31888e-136
-1.10947e-137
-1.14512e-138
-4.02684e-139
5.41459e-139
1.2978e-138
1.4204e-138
1.12515e-138
6.67599e-139
3.2639e-139
4.20209e-140
-4.28132e-148
-5.03899e-151
-2.99798e-156
1.89529e-166
2.51587e-168
3.67658e-170
4.67045e-172
3.19611e-174
-1.49416e-185
7.24987e-202
6.07589e-223
1.87553e-246
-2.84532e-250
-2.21244e-249
-1.52697e-248
-9.52544e-248
-5.43878e-247
-2.87524e-246
-1.41807e-245
-6.56735e-245
-2.87148e-244
-1.19091e-243
-4.7045e-243
-1.77675e-242
-6.43718e-242
-2.24435e-241
-7.55233e-241
-2.45957e-240
-7.77223e-240
-2.38892e-239
-7.15866e-239
-2.09602e-238
-6.00905e-238
-1.69023e-237
-4.67415e-237
-1.2738e-236
-3.43468e-236
-9.26646e-236
-2.60304e-235
-8.66811e-235
-4.35349e-234
-3.48181e-233
-3.53955e-232
-3.88349e-231
-4.36191e-230
-4.95506e-229
-5.68402e-228
-6.58984e-227
-7.73305e-226
-9.19972e-225
-1.11148e-223
-1.36617e-222
-1.71188e-221
-2.19203e-220
-2.87958e-219
-3.92569e-218
-7.50698e-217
-2.33229e-215
-7.98189e-214
-3.1296e-212
-1.80156e-210
-1.98416e-208
-3.32839e-129
-5.70581e-130
-1.14567e-130
-2.523e-131
-4.0459e-132
-4.78984e-135
8.05251e-132
-8.82384e-151
-1.22305e-148
-2.03797e-136
-2.75673e-136
-2.54465e-135
-4.57133e-135
-4.87928e-135
-3.34217e-135
-1.33148e-135
-2.57248e-136
-1.70898e-137
-2.20854e-140
-1.79979e-147
-1.96916e-156
1.69206e-166
2.14123e-168
2.97225e-170
3.51827e-172
2.14792e-174
-1.29512e-185
6.07311e-202
3.39749e-223
-1.53411e-233
-2.36437e-233
-2.85494e-233
-2.72676e-233
-2.12248e-233
-1.37869e-233
-7.41501e-234
-3.50117e-234
-1.42094e-234
-4.9406e-235
-1.45644e-235
-3.56874e-236
-7.02787e-237
-1.05017e-237
-1.10459e-238
-1.99078e-239
-4.54523e-239
-1.38863e-238
-4.12783e-238
-1.19661e-237
-3.39022e-237
-9.40705e-237
-2.56152e-236
-6.85783e-236
-1.80856e-235
-4.70716e-235
-1.21202e-234
-3.10186e-234
-8.00632e-234
-2.19801e-233
-7.54734e-233
-4.1152e-232
-3.45801e-231
-3.52495e-230
-3.81659e-229
-4.22351e-228
-4.738e-227
-5.38445e-226
-6.20561e-225
-7.26414e-224
-8.65148e-223
-1.05038e-221
-1.30321e-220
-1.65955e-219
-2.22072e-218
-4.44058e-217
-1.36355e-215
-4.6047e-214
-1.83542e-212
-1.10839e-210
-1.27564e-208
3.47262e-126
3.04227e-126
3.85555e-126
3.41994e-126
2.12779e-126
7.62161e-127
7.59373e-127
7.48872e-127
9.81832e-128
-1.21846e-135
-1.52304e-131
-5.67863e-131
-6.54933e-131
-5.05271e-131
-2.54361e-131
-7.30572e-132
-9.4963e-133
-4.6772e-136
-1.27843e-140
-2.92164e-144
-4.09532e-150
1.80002e-157
1.71569e-168
2.26098e-170
2.49964e-172
1.33063e-174
-1.14743e-185
7.10396e-193
1.7928e-192
3.36851e-192
4.66274e-192
5.10947e-192
4.46325e-192
3.1974e-192
1.92236e-192
9.86037e-193
4.35689e-193
1.62375e-193
5.34369e-194
1.50023e-194
3.52557e-195
6.71442e-196
9.80987e-197
9.92802e-198
5.51001e-199
5.70052e-201
9.59993e-208
4.75276e-215
2.82832e-223
-4.4132e-236
-1.18789e-235
-3.13469e-235
-8.13527e-235
-2.08016e-234
-5.24964e-234
-1.30981e-233
-3.23685e-233
-7.94254e-233
-1.94643e-232
-4.85858e-232
-1.32784e-231
-4.84854e-231
-2.92205e-230
-2.58102e-229
-2.64882e-228
-2.85182e-227
-3.13593e-226
-3.50401e-225
-3.97867e-224
-4.59708e-223
-5.41471e-222
-6.51842e-221
-8.0655e-220
-1.07779e-218
-2.24938e-217
-6.8311e-216
-2.28676e-214
-9.33588e-213
-5.91866e-211
-7.12012e-209
-1.09279e-122
-1.13363e-122
-9.87925e-123
-6.06975e-123
-2.4744e-123
-4.26353e-140
-2.23121e-121
-3.01157e-126
-2.76949e-125
-3.43716e-126
-4.77025e-127
-8.31456e-128
-2.14528e-128
-6.41295e-129
-1.54553e-129
-1.83107e-130
1.69419e-148
-5.34292e-131
1.66294e-140
2.49543e-144
1.895e-149
2.2274e-154
2.29451e-167
1.6699e-170
1.72962e-172
7.61573e-175
1.21605e-180
3.73649e-180
8.7718e-180
1.50775e-179
1.9734e-179
1.918e-179
1.36048e-179
6.52499e-180
1.37146e-180
-8.46993e-181
-1.08237e-180
-6.42022e-181
-2.47165e-181
-6.74185e-182
-1.2085e-182
-1.21022e-183
-3.99483e-185
2.1608e-188
1.06273e-188
2.53085e-189
3.64195e-190
2.74024e-191
4.76249e-193
3.0709e-196
8.48245e-203
5.20847e-210
3.35768e-224
-1.94937e-233
-4.77606e-233
-1.15721e-232
-2.77717e-232
-6.61182e-232
-1.56429e-231
-3.68812e-231
-8.73075e-231
-2.13344e-230
-5.94489e-230
-2.39218e-229
-1.61251e-228
-1.49428e-227
-1.54973e-226
-1.67085e-225
-1.84024e-224
-2.06481e-223
-2.36246e-222
-2.76321e-221
-3.32839e-220
-4.51944e-219
-9.80364e-218
-2.94671e-216
-9.83228e-215
-4.13817e-213
-2.75472e-211
-3.46543e-209
-1.48817e-115
-1.06035e-115
-7.12399e-116
-4.66015e-116
7.94779e-134
-2.56945e-114
-2.40754e-115
8.06275e-117
7.67031e-117
3.71828e-117
1.8432e-117
9.19193e-118
4.37884e-118
2.00734e-118
1.07134e-118
6.97424e-120
-2.69614e-128
-6.91154e-128
-3.20426e-132
3.54715e-140
-1.17541e-148
2.93349e-153
5.66084e-160
-2.3043e-168
-1.03275e-167
-4.23502e-167
-1.49748e-166
-4.35441e-166
-1.04952e-165
-2.29472e-165
-4.06678e-165
-6.47615e-165
-9.13532e-165
-1.06894e-164
-9.43348e-165
-5.51356e-165
-1.66868e-165
-1.10191e-166
-3.23819e-167
-1.09712e-167
-4.07758e-168
-1.67682e-168
-7.42949e-169
-3.3743e-169
-1.47503e-169
-5.73311e-170
-1.80613e-170
-4.16326e-171
-6.66151e-172
-9.34648e-173
-7.10984e-174
-2.3576e-177
1.04724e-181
1.6948e-197
2.55234e-223
-8.38731e-232
-1.9574e-231
-4.53328e-231
-1.04334e-230
-2.38962e-230
-5.45583e-230
-1.24582e-229
-2.87516e-229
-6.98255e-229
-2.04886e-228
-9.4257e-228
-7.11949e-227
-6.88456e-226
-7.2138e-225
-7.75224e-224
-8.51289e-223
-9.70851e-222
-1.1418e-220
-1.60652e-219
-3.60815e-218
-1.07442e-216
-3.59604e-215
-1.57074e-213
-1.09991e-211
-1.45001e-209
2.36777e-104
2.33048e-104
2.29906e-104
2.27118e-104
1.16774e-104
2.94866e-105
2.9631e-108
-7.80932e-110
-1.11536e-110
-1.85744e-111
-3.21285e-112
-5.49816e-113
-8.74542e-114
-1.12225e-114
-8.96331e-116
-2.78536e-117
-4.66038e-120
-1.80657e-128
3.17179e-138
3.54715e-140
1.48659e-147
6.04619e-147
3.26722e-151
5.69831e-156
-2.57259e-154
-5.98333e-153
-1.59096e-152
-4.52049e-150
-1.67264e-149
-1.09382e-151
-1.08673e-151
-3.94486e-152
-1.10213e-153
-1.87454e-153
4.44672e-157
-5.86241e-156
-8.6354e-155
-2.34897e-154
-1.53053e-154
1.44478e-155
-1.06108e-157
-9.74756e-159
-3.84777e-158
-7.57064e-158
-7.80364e-158
-4.00949e-158
6.1788e-158
3.8593e-159
-9.943e-161
4.92691e-161
5.36653e-163
5.87443e-164
4.7133e-168
1.67214e-170
1.75434e-178
5.07316e-194
7.48324e-204
5.87905e-217
5.51345e-221
6.11466e-221
6.67663e-221
7.18281e-221
7.61915e-221
7.97434e-221
8.24094e-221
8.4151e-221
8.39721e-221
8.3902e-221
8.30369e-221
8.1481e-221
7.9227e-221
7.4334e-221
4.15072e-221
-4.27832e-220
-1.14703e-218
-3.45785e-217
-1.1692e-215
-5.31644e-214
-3.39932e-212
1.2063e-193
-6.19852e-102
-1.69868e-102
-4.56757e-103
-1.11645e-103
-1.9793e-104
-1.84962e-105
-3.24678e-106
-5.19157e-107
-7.92155e-108
-1.15123e-108
-1.54425e-109
-1.84457e-110
-1.84613e-111
-1.3727e-112
-5.77647e-114
-5.08095e-116
3.66894e-119
2.11093e-122
-7.29282e-133
-1.76774e-135
1.98484e-140
-9.12477e-145