/*--------------------------------*- C++ -*----------------------------------*\
  =========                 |
  \\      /  F ield         | OpenFOAM: The Open Source CFD Toolbox
   \\    /   O peration     | Website:  https://openfoam.org
    \\  /    A nd           | Version:  7
     \\/     M anipulation  |
\*---------------------------------------------------------------------------*/
FoamFile
{
    version     2.0;
    format      ascii;
    class       volScalarField;
    location    "20";
    object      epss;
}
// * * * * * * * * * * * * * * * * * * * * * * * * * * * * * * * * * * * * * //

dimensions      [0 0 0 0 0 0 0];

internalField   nonuniform List<scalar> 
49920
(
0.0159427
0.317783
0.658754
0.592113
0.595645
0.52461
0.570914
0.697983
0.648327
0.565983
0.591132
0.64915
0.602795
0.685624
0.531266
0.0962753
0.00462915
3.6817e-05
0
0
0
0
0
0
0
0
0
0
0
0
0
0
0
0
0
0
0
0
0
0
0
0
0
0
0
0
0
0
0
0
0
0
0
0
0
0
0
0
0
0
0
0
0
0
0
0
0
0
0
0
0
0
0
0
0
0
0
0
0
0
0.0164888
0.060844
0.197656
0.545088
0.550552
0.408592
0.597804
0.438766
0.580039
0.544248
0.516143
0.566257
0.626867
0.437491
0.140459
0.0332614
0.00361632
4.60671e-06
0
0
0
0
0
0
0
0
0
0
0
0
0
0
0
0
0
0
0
0
0
0
0
0
0
0
0
0
0
0
0
0
0
0
0
0
0
0
0
0
0
0
0
0
0
0
0
0
0
0
0
0
0
0
0
0
0
0
0
0
0
0
0.0070651
0.0100353
0.0414074
0.131128
0.135759
0.096572
0.140653
0.103575
0.13693
0.406647
0.413846
0.402034
0.263319
0.108866
0.0356658
0.00990701
0.00216972
0.000222989
0
0
0
0
0
0
0
0
0
0
0
0
0
0
0
0
0
0
0
0
0
0
0
0
0
0
0
0
0
0
0
0
0
0
0
0
0
0
0
0
0
0
0
0
0
0
0
0
0
0
0
0
0
0
0
0
0
0
0
0
0
0
0.00246525
0.001195
0.0094567
0.029021
0.0328372
0.0233972
0.0341961
0.0253526
0.0349718
0.0779257
0.0969703
0.0979564
0.065469
0.0398383
0.0089932
0.00242883
0.000813486
0.000230188
3.54205e-05
0
0
0
0
0
0
0
0
0
0
0
0
0
0
0
0
0
0
0
0
0
0
0
0
0
0
0
0
0
0
0
0
0
0
0
0
0
0
0
0
0
0
0
0
0
0
0
0
0
0
0
0
0
0
0
0
1.06011e-88
3.20825e-89
0
0
0
0.00084563
9.5935e-06
0.00218836
0.00651368
0.008864
0.00609814
0.00827563
0.00626779
0.00876728
0.0115028
0.028152
0.0229065
0.0134215
0.0069423
0.00233519
0.000718424
0.000295713
0.000156056
6.83097e-05
2.01259e-05
2.39876e-06
0
0
0
0
0
0
0
0
0
0
0
0
0
0
0
0
0
0
0
0
0
0
0
0
0
0
0
0
0
0
0
0
0
0
0
0
0
0
0
0
0
0
0
0
0
0
0
0
0
0
0
0
3.58131e-94
2.96209e-89
0
0
0
3.50354e-85
5.05255e-83
0.000333143
0
0.000436797
0.0012903
0.00235996
0.00180604
0.00208631
0.00187363
0.00260483
0.00113134
0.00547612
0.00337675
0.00198551
0.000958185
0.000536693
0.000278365
0.000151528
0.000104179
7.27501e-05
4.13245e-05
1.71185e-05
4.75591e-06
2.29858e-07
0
0
0
0
0
0
0
0
0
0
0
0
0
0
0
0
0
0
0
0
0
0
0
0
0
0
0
0
0
0
0
0
0
0
0
0
0
0
0
0
0
0
0
0
0
0
0
0
0
0
0
2.10629e-90
0
3.37478e-79
2.00332e-76
0
0
0.000174397
1.19807e-05
7.83911e-05
0.000179737
0.000556245
0.000605813
0.000591949
0.000634574
0.000898828
0.000101445
0.000603886
0.000403776
0.000136445
0
3.62935e-05
8.01486e-05
8.4672e-05
7.6211e-05
6.5805e-05
5.0682e-05
3.22519e-05
1.62192e-05
5.89537e-06
1.28954e-06
0
0
0
0
0
0
0
0
0
0
0
0
0
0
0
0
0
0
0
0
0
0
0
0
0
0
0
0
0
0
0
0
0
0
0
0
0
0
0
0
0
0
0
0
0
0
0
0
0
0
0
0
0
0
0
1.3609e-61
0.000118984
1.6052e-05
2.44252e-05
5.26195e-06
8.77513e-05
0.000198366
0.000210085
0.000242547
0.000358817
0.000138227
0
0
0
0
0
9.82356e-06
3.05428e-05
4.37954e-05
4.8898e-05
4.69762e-05
3.86393e-05
2.66453e-05
1.5041e-05
6.64766e-06
2.08087e-06
2.89264e-07
0
0
0
0
0
0
0
0
0
0
0
0
0
0
0
0
0
0
0
0
0
0
0
0
0
0
0
0
0
0
0
0
0
0
0
0
0
0
0
0
0
0
0
0
9.50996e-84
4.09237e-83
8.94715e-83
1.37862e-82
1.80151e-82
2.12458e-82
0
0
0
0
9.13297e-05
1.85738e-05
2.2188e-05
8.66821e-06
0
4.91935e-05
8.50521e-05
0.00010991
0.000163792
0.000148966
1.80496e-05
0
0
6.24489e-08
0
0
5.14729e-06
1.58007e-05
2.60327e-05
3.25116e-05
3.3606e-05
2.93401e-05
2.16681e-05
1.33965e-05
6.77707e-06
2.61908e-06
6.76815e-07
7.29998e-09
0
0
0
0
0
0
0
0
0
0
0
0
0
0
0
0
0
0
0
0
0
0
0
0
0
0
0
0
0
0
0
0
0
0
0
0
0
0
0
0
0
1.21733e-83
2.13442e-84
0
0
0
0
0
0
0
0
0
7.11522e-05
1.86846e-05
2.32707e-05
2.6123e-05
1.52081e-06
5.86424e-06
3.24562e-05
5.66195e-05
8.59015e-05
0.000115184
7.04329e-05
2.5779e-05
3.89708e-06
0
0
0
0
2.33893e-06
8.1334e-06
1.52163e-05
2.09163e-05
2.32141e-05
2.15712e-05
1.70121e-05
1.13991e-05
6.39489e-06
2.89747e-06
9.44652e-07
1.62125e-07
0
0
0
0
0
0
0
0
0
0
0
0
0
0
0
0
0
0
0
0
0
0
0
0
0
0
0
0
0
0
0
0
0
0
0
0
0
0
0
0
2.43996e-84
0
3.60346e-68
7.04146e-68
1.74066e-68
0
1.0945e-61
0
0
0
1.89044e-56
5.43115e-05
1.57597e-05
2.13787e-05
3.32377e-05
1.75248e-05
3.06486e-06
1.10898e-05
2.99448e-05
5.04649e-05
7.90946e-05
8.14335e-05
5.25382e-05
2.06343e-05
3.76219e-06
0
1.59121e-07
6.11553e-07
2.55131e-07
9.07439e-07
3.76918e-06
8.28791e-06
1.27131e-05
1.52953e-05
1.52251e-05
1.28573e-05
9.28943e-06
5.70652e-06
2.9046e-06
1.14382e-06
3.00717e-07
8.19049e-09
0
0
0
0
0
0
0
0
0
0
0
0
0
0
0
0
0
0
0
0
0
0
0
0
0
0
0
0
0
0
0
0
0
0
1.45789e-85
2.50939e-85
1.52916e-88
9.11364e-85
0
2.4762e-67
4.24605e-67
1.78743e-67
1.84807e-68
0
1.02159e-60
2.71656e-60
0
8.30228e-57
5.12045e-57
4.03931e-05
1.14495e-05
1.75833e-05
3.25475e-05
2.68062e-05
9.72715e-06
4.9058e-06
1.53834e-05
3.1215e-05
5.28057e-05
6.95007e-05
6.26753e-05
3.80981e-05
1.44379e-05
2.73327e-06
1.10838e-06
3.50107e-06
4.72694e-06
3.74147e-06
2.39699e-06
2.55782e-06
4.56133e-06
7.38854e-06
9.62837e-06
1.03387e-05
9.39189e-06
7.31134e-06
4.87582e-06
2.73162e-06
1.22819e-06
3.85278e-07
5.33717e-08
0
0
0
0
0
0
0
0
0
0
0
0
0
0
0
0
0
0
0
0
0
0
0
0
0
0
0
0
0
0
0
0
0
0
0
0
6.8122e-83
0
4.03442e-67
5.08263e-67
0
0
0
0
2.59033e-59
1.6737e-57
1.99745e-57
0
2.91847e-05
7.59122e-06
1.37553e-05
2.8511e-05
2.86235e-05
1.47675e-05
4.64715e-06
7.78642e-06
1.9204e-05
3.5055e-05
5.21393e-05
5.80607e-05
4.64802e-05
2.58335e-05
9.68339e-06
4.43943e-06
7.27167e-06
1.14739e-05
1.2463e-05
9.95907e-06
6.29895e-06
3.81024e-06
3.37847e-06
4.48297e-06
5.97632e-06
6.86327e-06
6.70223e-06
5.6113e-06
4.03039e-06
2.4476e-06
1.20596e-06
4.33943e-07
8.71857e-08
0
0
0
0
0
0
0
0
0
0
0
0
0
0
0
0
0
0
0
0
0
0
0
0
0
0
0
0
5.03325e-92
0
4.90415e-75
4.08083e-73
0
0
0
0
0
0
0
6.23716e-61
2.96712e-60
0
2.5324e-59
0
0
0
4.10377e-46
2.0241e-05
4.93056e-06
1.097e-05
2.37993e-05
2.61991e-05
1.62484e-05
5.5807e-06
4.1583e-06
1.13698e-05
2.29049e-05
3.66201e-05
4.66148e-05
4.51625e-05
3.23595e-05
1.73052e-05
9.43592e-06
1.09457e-05
1.71473e-05
2.17635e-05
2.15323e-05
1.713e-05
1.12916e-05
6.53611e-06
3.99445e-06
3.44735e-06
3.97159e-06
4.60654e-06
4.74781e-06
4.23748e-06
3.25042e-06
2.11058e-06
1.11517e-06
4.38794e-07
1.01973e-07
0
0
0
0
0
0
0
0
0
0
0
0
0
0
0
0
0
0
0
0
0
0
0
0
0
0
0
1.95514e-91
0
6.3708e-73
0
5.66594e-72
4.72485e-72
0
0
0
1.28237e-61
4.07785e-61
0
0
2.21404e-60
0
1.1907e-42
1.43163e-42
0
0
1.31915e-05
3.34618e-06
9.30497e-06
1.95388e-05
2.20178e-05
1.49934e-05
5.85812e-06
2.47486e-06
6.36329e-06
1.45106e-05
2.47316e-05
3.44044e-05
3.82388e-05
3.2984e-05
2.22917e-05
1.40936e-05
1.36421e-05
1.98638e-05
2.74155e-05
3.12226e-05
2.94496e-05
2.34841e-05
1.61272e-05
9.791e-06
5.64071e-06
3.65914e-06
3.15474e-06
3.28633e-06
3.40299e-06
3.17433e-06
2.57202e-06
1.76441e-06
9.83214e-07
4.09541e-07
1.01298e-07
3.6868e-11
0
0
0
0
0
0
0
0
0
0
0
0
0
0
0
0
0
0
0
0
0
0
0
6.15705e-90
0
0
0
0
3.31428e-71
0
0
2.41209e-64
0
7.03564e-62
0
0
3.5189e-55
4.90351e-56
0
3.20031e-43
0
0
1.15434e-41
3.43784e-42
7.87111e-06
2.50653e-06
8.33432e-06
1.59467e-05
1.74394e-05
1.22108e-05
5.12955e-06
1.53612e-06
3.32082e-06
8.89649e-06
1.63734e-05
2.4353e-05
2.99288e-05
2.97182e-05
2.38578e-05
1.70921e-05
1.5001e-05
1.94896e-05
2.77846e-05
3.5017e-05
3.75598e-05
3.46601e-05
2.79581e-05
1.99873e-05
1.28543e-05
7.65774e-06
4.54794e-06
3.08527e-06
2.61186e-06
2.51468e-06
2.371e-06
2.00008e-06
1.43486e-06
8.32985e-07
3.59407e-07
9.14031e-08
1.5276e-09
0
0
0
0
0
0
0
0
0
0
0
0
0
0
0
0
0
0
0
0
0
0
1.58086e-90
1.19724e-89
3.90647e-89
0
1.20281e-70
0
2.32104e-67
0
0
0
0
2.54048e-52
3.45235e-52
0
0
6.9336e-43
0
6.17389e-41
5.08448e-41
0
0
4.18065e-06
2.18028e-06
7.62739e-06
1.28783e-05
1.31113e-05
8.90484e-06
3.72003e-06
8.31035e-07
1.64097e-06
5.48226e-06
1.10282e-05
1.73166e-05
2.28421e-05
2.51779e-05
2.30414e-05
1.83605e-05
1.53407e-05
1.72251e-05
2.39061e-05
3.22625e-05
3.84293e-05
3.99892e-05
3.67672e-05
3.02651e-05
2.2544e-05
1.53261e-05
9.60904e-06
5.69816e-06
3.41935e-06
2.33864e-06
1.93937e-06
1.76447e-06
1.52325e-06
1.13396e-06
6.8016e-07
2.99906e-07
7.73381e-08
1.76254e-09
0
0
0
0
0
0
0
0
0
0
0
0
0
0
0
0
0
0
0
0
0
0
5.8087e-90
0
5.46636e-70
0
1.10382e-66
0
3.59628e-53
8.12637e-54
0
3.82087e-51
0
0
1.00381e-44
0
0
0
0
6.88175e-41
1.94037e-40
9.23382e-41
1.92613e-06
2.20042e-06
6.92717e-06
1.01623e-05
9.31726e-06
5.77834e-06
2.16219e-06
3.16741e-07
9.70724e-07
3.85822e-06
8.17525e-06
1.31846e-05
1.80294e-05
2.12232e-05
2.13276e-05
1.85543e-05
1.52998e-05
1.46711e-05
1.82757e-05
2.5173e-05
3.26192e-05
3.77532e-05
3.89566e-05
3.62238e-05
3.06912e-05
2.38796e-05
1.71172e-05
1.12951e-05
6.86659e-06
3.92585e-06
2.28482e-06
1.55908e-06
1.29523e-06
1.12329e-06
8.65097e-07
5.34797e-07
2.39872e-07
6.20994e-08
1.35839e-09
0
0
0
0
0
0
0
0
0
0
0
0
0
0
0
0
0
0
0
0
0
0
0
4.36308e-70
0
0
2.6901e-54
6.56428e-54
0
3.11641e-51
0
1.01592e-46
0
5.48668e-45
0
2.44178e-37
1.00809e-36
2.99141e-37
0
0
0
7.95473e-07
2.38452e-06
6.11752e-06
7.71707e-06
6.17727e-06
3.25087e-06
9.3123e-07
1.6775e-07
1.14972e-06
3.69509e-06
7.32802e-06
1.14719e-05
1.5539e-05
1.8672e-05
1.97813e-05
1.83628e-05
1.53581e-05
1.29562e-05
1.32885e-05
1.70734e-05
2.32312e-05
2.96016e-05
3.41013e-05
3.5562e-05
3.39088e-05
2.98337e-05
2.43269e-05
1.8347e-05
1.26857e-05
7.93823e-06
4.46265e-06
2.32357e-06
1.28424e-06
9.14124e-07
7.82168e-07
6.28297e-07
4.04821e-07
1.87755e-07
5.10953e-08
2.83146e-09
0
0
0
0
0
0
0
0
0
0
0
0
0
0
0
0
0
0
0
0
0
0
0
1.70763e-67
0
1.06335e-52
2.44412e-52
5.45325e-52
4.86507e-51
0
4.55809e-46
3.60308e-46
0
8.74696e-39
0
0
0
4.66449e-37
4.29943e-37
5.35602e-38
4.31241e-07
2.55009e-06
5.16864e-06
5.54515e-06
3.74074e-06
1.51975e-06
3.28827e-07
5.68839e-07
2.09539e-06
4.67862e-06
7.98223e-06
1.15396e-05
1.48869e-05
1.75308e-05
1.88131e-05
1.81415e-05
1.56099e-05
1.23708e-05
1.02226e-05
1.06288e-05
1.39046e-05
1.91129e-05
2.46308e-05
2.89214e-05
3.10495e-05
3.07741e-05
2.83503e-05
2.42865e-05
1.92094e-05
1.38254e-05
8.86524e-06
4.94321e-06
2.36894e-06
1.05127e-06
5.86008e-07
4.86859e-07
4.22108e-07
2.90683e-07
1.40902e-07
4.00594e-08
2.88614e-09
0
0
0
0
0
0
0
0
0
0
0
0
0
0
0
0
0
0
0
0
0
0
5.55984e-67
0
3.63226e-52
2.09264e-52
9.14525e-52
0
0
9.64894e-46
0
0
0
2.93838e-36
5.31958e-36
3.8871e-36
1.99922e-36
1.59073e-37
0
5.02667e-07
2.56914e-06
4.11601e-06
3.69964e-06
2.02339e-06
6.30635e-07
4.67069e-07
1.59105e-06
3.68554e-06
6.44979e-06
9.5755e-06
1.26672e-05
1.53465e-05
1.73297e-05
1.83091e-05
1.78851e-05
1.58302e-05
1.25249e-05
9.08721e-06
6.94946e-06
7.14171e-06
9.80583e-06
1.42083e-05
1.91589e-05
2.3511e-05
2.64623e-05
2.75938e-05
2.67728e-05
2.40866e-05
1.98721e-05
1.47635e-05
9.62537e-06
5.31334e-06
2.36583e-06
8.20618e-07
2.9133e-07
2.24281e-07
2.33927e-07
1.83238e-07
9.60656e-08
2.96666e-08
3.31475e-09
0
0
0
0
0
0
0
0
0
0
0
0
0
0
0
0
0
0
0
0
0
3.27018e-67
0
3.06802e-52
0
0
1.69563e-46
4.90047e-46
0
7.21325e-42
2.43742e-42
0
0
0
0
0
1.608e-36
4.5348e-37
7.39796e-07
2.39132e-06
3.04621e-06
2.25492e-06
1.01804e-06
5.31621e-07
1.29697e-06
3.14716e-06
5.68913e-06
8.5757e-06
1.14946e-05
1.41094e-05
1.61304e-05
1.74088e-05
1.78733e-05
1.7371e-05
1.56741e-05
1.27542e-05
9.09408e-06
5.69049e-06
3.6697e-06
3.73607e-06
5.93275e-06
9.72199e-06
1.42734e-05
1.87525e-05
2.24622e-05
2.48371e-05
2.54164e-05
2.39215e-05
2.04334e-05
1.55299e-05
1.02047e-05
5.54216e-06
2.28328e-06
5.70133e-07
4.31022e-08
3.62162e-08
1.1418e-07
1.18373e-07
6.91556e-08
2.32016e-08
3.0351e-09
0
0
0
0
0
0
0
0
0
0
0
0
0
0
0
0
0
0
2.58994e-69
1.34143e-68
0
3.88851e-55
0
8.64997e-51
0
4.59769e-46
9.29787e-46
0
1.55248e-41
4.56592e-42
0
1.14152e-28
7.46261e-29
6.6496e-30
0
0
8.44427e-42
9.47585e-07
2.03629e-06
2.07465e-06
1.2815e-06
6.8961e-07
1.10044e-06
2.64439e-06
5.00361e-06
7.76368e-06
1.05724e-05
1.31342e-05
1.51849e-05
1.65356e-05
1.71384e-05
1.70594e-05
1.6334e-05
1.48593e-05
1.24857e-05
9.28434e-06
5.75883e-06
2.7548e-06
1.14055e-06
1.29823e-06
3.18074e-06
6.41686e-06
1.05287e-05
1.50103e-05
1.92886e-05
2.26723e-05
2.44031e-05
2.38729e-05
2.09375e-05
1.61353e-05
1.05958e-05
5.61314e-06
2.10612e-06
3.5487e-07
0
3.81e-09
7.32137e-08
8.38169e-08
5.01716e-08
1.67675e-08
2.05611e-09
0
0
0
0
0
0
0
0
0
0
0
0
0
0
0
0
0
8.755e-69
0
0
0
1.12173e-51
3.36618e-50
0
3.86299e-46
0
0
1.22234e-41
0
1.88901e-27
3.14225e-28
4.14142e-29
4.91583e-30
6.76799e-32
0
0
1.01915e-06
1.5794e-06
1.31977e-06
8.20611e-07
9.59723e-07
2.15211e-06
4.24403e-06
6.82869e-06
9.50994e-06
1.19763e-05
1.39903e-05
1.53819e-05
1.60682e-05
1.60804e-05
1.55485e-05
1.46061e-05
1.3272e-05
1.14299e-05
8.97258e-06
6.03984e-06
3.10113e-06
8.69895e-07
1.77439e-08
2.97956e-07
1.69982e-06
4.22879e-06
7.81264e-06
1.22118e-05
1.69176e-05
2.11053e-05
2.37509e-05
2.39578e-05
2.13946e-05
1.65831e-05
1.07923e-05
5.5255e-06
1.91123e-06
2.76454e-07
0
8.32325e-10
5.23635e-08
5.96376e-08
3.4765e-08
1.09799e-08
1.11193e-09
0
0
0
0
0
0
0
0
0
0
0
0
0
0
0
0
0
1.9576e-67
0
0
1.07918e-50
4.00239e-50
0
0
7.69282e-44
0
0
4.99139e-28
2.02989e-27
0
0
0
0
0
1.67274e-25
9.40862e-07
1.13144e-06
8.76714e-07
8.60746e-07
1.69133e-06
3.44458e-06
5.77924e-06
8.26404e-06
1.05604e-05
1.24388e-05
1.37562e-05
1.44484e-05
1.45287e-05
1.40831e-05
1.32555e-05
1.21995e-05
1.09985e-05
9.60996e-06
7.90608e-06
5.83595e-06
3.56956e-06
1.5252e-06
2.83474e-07
0
4.57602e-08
8.85253e-07
2.77894e-06
5.91191e-06
1.02258e-05
1.5257e-05
2.00733e-05
2.34236e-05
2.41616e-05
2.17972e-05
1.68622e-05
1.0796e-05
5.33577e-06
1.72879e-06
2.02751e-07
0
6.63823e-10
3.71613e-08
4.09586e-08
2.26603e-08
6.48286e-09
4.24478e-10
0
0
0
0
0
0
0
0
0
0
0
0
0
0
0
0
1.12157e-67
0
0
1.52515e-50
0
0
8.91963e-44
0
0
0
7.03831e-27
0
5.25097e-23
1.7434e-23
8.62097e-23
6.85068e-23
1.19349e-23
9.45003e-26
7.73043e-07
8.06891e-07
7.92859e-07
1.32216e-06
2.68557e-06
4.69879e-06
6.93536e-06
9.00746e-06
1.06723e-05
1.18099e-05
1.23856e-05
1.2432e-05
1.20321e-05
1.12973e-05
1.03533e-05
9.32435e-06
8.29969e-06
7.28925e-06
6.21148e-06
4.96199e-06
3.53367e-06
2.07596e-06
8.90529e-07
2.23422e-07
0
0
4.40698e-07
1.86493e-06
4.65295e-06
8.89193e-06
1.41734e-05
1.94834e-05
2.33687e-05
2.44512e-05
2.21131e-05
1.69491e-05
1.06082e-05
5.0259e-06
1.49388e-06
1.19092e-07
0
3.65554e-09
2.69613e-08
2.70276e-08
1.36503e-08
3.32006e-09
3.33307e-11
0
0
0
0
0
0
0
0
0
0
0
0
0
0
0
0
0
0
1.6036e-52
3.60097e-49
0
6.36799e-45
1.7894e-42
2.14468e-41
0
1.254e-26
0
2.34314e-22
0
0
4.52944e-23
2.90849e-23
9.14023e-26
6.06287e-07
6.91739e-07
1.05042e-06
2.05562e-06
3.69967e-06
5.63975e-06
7.46422e-06
8.89e-06
9.79712e-06
1.01795e-05
1.00975e-05
9.65036e-06
8.95258e-06
8.1113e-06
7.2158e-06
6.34072e-06
5.5456e-06
4.85631e-06
4.24106e-06
3.61595e-06
2.9036e-06
2.08917e-06
1.2512e-06
5.66339e-07
1.58524e-07
0
0
1.947e-07
1.30147e-06
3.83791e-06
8.03204e-06
1.35367e-05
1.92554e-05
2.35283e-05
2.47622e-05
2.22669e-05
1.67683e-05
1.01585e-05
4.54555e-06
1.19356e-06
3.21054e-08
0
1.0314e-08
2.12574e-08
1.72208e-08
7.51143e-09
1.42732e-09
0
0
0
0
0
0
0
0
0
0
0
0
0
0
0
0
0
0
0
7.49193e-49
1.47749e-48
0
4.18067e-41
3.51609e-41
0
5.34001e-28
9.29816e-25
0
2.45944e-21
2.87198e-21
9.37081e-22
4.92202e-23
0
5.29859e-07
8.20896e-07
1.56138e-06
2.86028e-06
4.48657e-06
6.05231e-06
7.24505e-06
7.92586e-06
8.1013e-06
7.85812e-06
7.31499e-06
6.59487e-06
5.80564e-06
5.02589e-06
4.30228e-06
3.6611e-06
3.12301e-06
2.70466e-06
2.40218e-06
2.17172e-06
1.93686e-06
1.62351e-06
1.2013e-06
7.34539e-07
3.44592e-07
9.85924e-08
0
0
6.2186e-08
9.57482e-07
3.32451e-06
7.52717e-06
1.32597e-05
1.93122e-05
2.38023e-05
2.49563e-05
2.20976e-05
1.61767e-05
9.36029e-06
3.86861e-06
8.38999e-07
0
0
1.12804e-08
1.51468e-08
1.02514e-08
3.84538e-09
5.85442e-10
0
0
0
0
0
0
0
0
0
0
0
0
0
0
0
0
2.06911e-57
0
8.44242e-48
2.30164e-48
0
5.7583e-41
0
0
0
0
1.35619e-21
2.87237e-21
2.22981e-22
0
0
4.15805e-23
6.05666e-07
1.16564e-06
2.17947e-06
3.52077e-06
4.8483e-06
5.83506e-06
6.32105e-06
6.31651e-06
5.92932e-06
5.29725e-06
4.55024e-06
3.79345e-06
3.09935e-06
2.50554e-06
2.0198e-06
1.63327e-06
1.33685e-06
1.13061e-06
1.01801e-06
9.86333e-07
9.91492e-07
9.68042e-07
8.59019e-07
6.55103e-07
4.10534e-07
1.96489e-07
5.60288e-08
0
0
1.13625e-08
7.69735e-07
3.0418e-06
7.31151e-06
1.32655e-05
1.95321e-05
2.4003e-05
2.47974e-05
2.13802e-05
1.50243e-05
8.16155e-06
3.01657e-06
5.07012e-07
0
0
8.14898e-09
9.64004e-09
5.82213e-09
1.8667e-09
1.90098e-10
0
0
0
0
0
0
0
0
0
0
0
0
0
0
7.19252e-58
2.01198e-56
0
5.25568e-48
0
0
6.56841e-44
3.89649e-39
0
0
0
3.04769e-22
0
8.0686e-21
1.01086e-20
2.91221e-21
5.50092e-23
8.47347e-07
1.63577e-06
2.72976e-06
3.8561e-06
4.68671e-06
5.03204e-06
4.89484e-06
4.4021e-06
3.71406e-06
2.96952e-06
2.26785e-06
1.66861e-06
1.19656e-06
8.48989e-07
6.05259e-07
4.38533e-07
3.27034e-07
2.60559e-07
2.39526e-07
2.6698e-07
3.33248e-07
4.07746e-07
4.49037e-07
4.25069e-07
3.3628e-07
2.16093e-07
1.04293e-07
2.9495e-08
1.53674e-09
0
4.39868e-10
6.80376e-07
2.93611e-06
7.31541e-06
1.34315e-05
1.97102e-05
2.38522e-05
2.39958e-05
1.99005e-05
1.32286e-05
6.60194e-06
2.09793e-06
2.31779e-07
0
0
5.31618e-09
5.72537e-09
3.03613e-09
7.66376e-10
2.12597e-11
0
0
0
0
0
0
0
0
0
0
0
0
0
0
4.12258e-56
0
0
4.39646e-44
3.2804e-45
0
4.3047e-38
0
0
0
0
3.50197e-20
6.28234e-20
3.18918e-20
0
0
1.21181e-06
2.09881e-06
3.051e-06
3.76712e-06
4.03321e-06
3.82613e-06
3.27726e-06
2.56995e-06
1.85915e-06
1.2424e-06
7.64342e-07
4.30755e-07
2.22021e-07
1.05347e-07
4.64305e-08
1.89991e-08
7.16663e-09
3.03877e-09
3.50553e-09
1.20097e-08
3.99062e-08
9.0416e-08
1.49302e-07
1.90851e-07
1.94952e-07
1.61045e-07
1.06023e-07
5.14216e-08
1.63841e-08
2.71999e-09
0
0
6.57192e-07
2.95471e-06
7.43552e-06
1.35728e-05
1.95737e-05
2.30369e-05
2.22966e-05
1.75543e-05
1.08568e-05
4.85019e-06
1.24087e-06
3.54147e-08
0
0
3.55051e-09
3.31428e-09
1.40587e-09
2.16255e-10
0
0
0
0
0
0
0
0
0
0
0
0
0
6.92041e-56
1.11414e-56
0
0
1.71642e-43
0
9.05925e-39
1.1004e-37
0
2.47731e-26
1.43421e-22
8.92255e-20
9.23828e-20
7.40437e-20
0
1.92901e-19
9.90716e-21
1.60635e-06
2.41463e-06
3.0405e-06
3.26611e-06
3.04301e-06
2.49008e-06
1.80071e-06
1.14632e-06
6.29332e-07
2.83325e-07
9.27781e-08
1.42329e-08
0
0
0
0
0
0
0
0
0
5.07637e-10
1.77146e-08
4.68063e-08
7.26876e-08
8.18538e-08
7.15515e-08
4.8594e-08
2.47479e-08
8.95357e-09
1.98657e-09
0
0
6.76097e-07
3.03347e-06
7.53831e-06
1.34656e-05
1.88342e-05
2.12987e-05
1.9593e-05
1.44463e-05
8.16197e-06
3.15492e-06
5.72647e-07
0
0
1.91525e-09
2.70653e-09
1.69245e-09
5.02272e-10
3.50066e-11
0
0
0
0
0
0
0
0
0
0
0
0
0
0
6.14536e-48
0
1.72718e-43
0
3.7217e-38
1.19313e-37
0
0
1.30872e-21
2.11809e-19
6.62666e-21
0
8.6364e-19
1.35548e-18
4.45185e-21
1.91403e-06
2.47773e-06
2.68663e-06
2.47535e-06
1.95057e-06
1.30655e-06
7.22608e-07
3.04717e-07
7.79022e-08
2.87045e-09
0
0
0
0
0
0
0
0
0
0
0
0
0
1.03742e-09
1.1726e-08
2.44825e-08
3.15438e-08
2.99164e-08
2.17543e-08
1.22871e-08
5.46345e-09
1.79271e-09
0
0
7.13778e-07
3.10005e-06
7.47251e-06
1.28831e-05
1.72677e-05
1.8552e-05
1.60354e-05
1.09236e-05
5.52431e-06
1.76642e-06
2.05589e-07
0
0
1.43897e-09
1.49889e-09
7.2798e-10
1.52581e-10
0
0
0
0
0
0
0
0
0
0
0
0
0
0
2.07275e-47
0
0
2.0682e-39
4.90688e-38
2.56844e-38
0
0
0
0
0
1.47976e-16
1.40404e-16
0
1.7982e-21
2.03198e-06
2.25352e-06
2.07514e-06
1.59021e-06
9.96886e-07
4.81553e-07
1.49287e-07
1.26378e-08
0
0
0
0
0
5.26263e-12
2.1093e-11
4.626e-11
7.9283e-11
1.30145e-10
2.30035e-10
3.81227e-10
5.56694e-10
6.27679e-10
0
0
0
1.90258e-09
7.04479e-09
1.15423e-08
1.28171e-08
1.09901e-08
7.89293e-09
5.04248e-09
2.43316e-09
0
1.02026e-10
7.44762e-07
3.07333e-06
7.08978e-06
1.16651e-05
1.48317e-05
1.49945e-05
1.20555e-05
7.48949e-06
3.31566e-06
8.34648e-07
3.01223e-08
0
0
8.17331e-10
7.71591e-10
3.23622e-10
4.49566e-11
0
0
0
0
0
0
0
0
0
0
0
0
0
2.16085e-47
2.35219e-47
0
2.994e-38
0
0
9.02107e-26
0
0
1.29601e-16
3.49509e-15
2.9313e-15
1.38583e-16
0
0
1.90953e-06
1.79334e-06
1.3624e-06
8.14682e-07
3.50515e-07
7.92217e-08
1.80672e-10
0
0
0
3.33371e-13
4.17105e-12
1.57496e-11
4.88644e-11
1.14347e-10
2.12691e-10
3.39042e-10
5.0695e-10
7.66085e-10
1.17498e-09
1.76136e-09
2.31208e-09
2.50337e-09
2.21185e-09
9.95735e-10
0
0
2.58163e-09
5.80033e-09
8.04393e-09
8.81805e-09
8.4381e-09
6.99596e-09
3.86319e-09
0
1.58011e-09
7.39259e-07
2.87876e-06
6.30571e-06
9.82289e-06
1.1756e-05
1.10972e-05
8.22551e-06
4.59821e-06
1.73052e-06
2.98699e-07
0
0
4.6454e-10
7.42504e-10
5.06346e-10
1.62665e-10
1.2582e-11
0
0
0
0
0
0
0
0
0
0
0
0
4.07912e-48
2.77067e-46
0
0
1.03905e-30
2.06379e-25
1.39783e-24
0
0
6.73959e-16
1.044e-14
2.22816e-15
0
0
0
1.57014e-06
1.21846e-06
7.20573e-07
2.89786e-07
5.07561e-08
0
0
0
0
3.84114e-12
1.29708e-11
3.29386e-11
7.7327e-11
1.68781e-10
3.27571e-10
5.58206e-10
8.52241e-10
1.21508e-09
1.69533e-09
2.38854e-09
3.38206e-09
4.5981e-09
5.81768e-09
6.48739e-09
6.17566e-09
4.80606e-09
3.3554e-09
3.22632e-09
4.68844e-09
7.15674e-09
9.73309e-09
1.16716e-08
1.23704e-08
1.08198e-08
5.92533e-09
0
2.84858e-09
6.76552e-07
2.49613e-06
5.17185e-06
7.57636e-06
8.4702e-06
7.40681e-06
5.01008e-06
2.46918e-06
7.42679e-07
7.24733e-08
0
0
5.54976e-10
7.06311e-10
4.37321e-10
1.43521e-10
1.7039e-11
0
0
0
0
0
0
0
0
0
0
0
0
6.08757e-46
0
0
1.37919e-28
1.14381e-24
2.17378e-24
0
0
5.60191e-16
7.0782e-15
0
0
1.39222e-09
4.41857e-08
1.10537e-06
6.75167e-07
2.73188e-07
4.45114e-08
0
0
0
7.92071e-13
5.87607e-12
2.08339e-11
5.22944e-11
1.10583e-10
2.15423e-10
3.96657e-10
6.82871e-10
1.08394e-09
1.58706e-09
2.17969e-09
2.88943e-09
3.81193e-09
5.07601e-09
6.75954e-09
8.74134e-09
1.06112e-08
1.17636e-08
1.17392e-08
1.0655e-08
9.32098e-09
8.77037e-09
9.65644e-09
1.1945e-08
1.49589e-08
1.76246e-08
1.85521e-08
1.58341e-08
8.27275e-09
0
1.72091e-09
5.64234e-07
1.97651e-06
3.8422e-06
5.23393e-06
5.40594e-06
4.32859e-06
2.61938e-06
1.08289e-06
2.23517e-07
6.04216e-12
0
4.76435e-10
9.85308e-10
9.41821e-10
5.02946e-10
1.316e-10
4.03999e-12
0
0
0
0
0
0
0
0
0
0
3.31546e-45
9.25227e-47
0
0
3.77892e-29
3.61618e-24
0
0
4.52853e-18
1.13035e-16
0
0
8.26223e-09
9.36839e-08
2.82274e-07
6.39807e-07
2.77189e-07
5.13683e-08
0
0
0
1.31845e-12
7.48277e-12
2.47914e-11
6.34221e-11
1.35397e-10
2.54453e-10
4.409e-10
7.24716e-10
1.13674e-09
1.68967e-09
2.36664e-09
3.13616e-09
3.99439e-09
5.00887e-09
6.32182e-09
8.09755e-09
1.03734e-08
1.29498e-08
1.53187e-08
1.6855e-08
1.70951e-08
1.61513e-08
1.48147e-08
1.4211e-08
1.5224e-08
1.79967e-08
2.17663e-08
2.50097e-08
2.56368e-08
2.1089e-08
1.04891e-08
0
2.72235e-10
4.20793e-07
1.38305e-06
2.48055e-06
3.07246e-06
2.85656e-06
2.01841e-06
1.01822e-06
2.948e-07
1.74422e-08
0
0
1.11151e-09
1.42227e-09
9.28476e-10
3.11878e-10
2.58733e-11
0
0
0
0
0
0
0
0
0
0
3.08357e-44
0
2.74827e-38
0
5.9273e-26
0
0
1.49924e-18
1.28471e-17
0
0
1.2262e-09
9.0876e-08
3.87028e-07
7.22418e-07
2.80183e-07
6.41015e-08
0
0
0
1.52469e-12
9.03274e-12
2.80077e-11
6.80116e-11
1.4332e-10
2.68805e-10
4.56759e-10
7.20976e-10
1.08285e-09
1.56723e-09
2.18523e-09
2.91845e-09
3.72498e-09
4.57519e-09
5.50059e-09
6.62427e-09
8.13549e-09
1.01956e-08
1.2804e-08
1.56819e-08
1.82715e-08
1.99092e-08
2.01944e-08
1.93389e-08
1.82241e-08
1.80664e-08
1.98107e-08
2.35643e-08
2.83147e-08
3.20901e-08
3.2232e-08
2.57288e-08
1.23317e-08
0
0
2.54431e-07
7.79044e-07
1.23927e-06
1.25738e-06
9.07647e-07
4.79291e-07
1.57996e-07
1.41396e-08
0
0
6.94541e-10
1.05652e-09
8.21136e-10
3.33083e-10
4.3459e-11
0
0
0
0
0
0
0
0
0
0
8.68986e-44
0
1.14094e-37
0
6.38979e-25
0
0
1.04636e-17
5.86832e-17
0
0
2.36292e-08
2.61916e-07
7.06512e-07
8.95457e-07
7.43836e-08
5.29813e-10
0
0
1.81509e-12
9.99748e-12
3.06428e-11
7.1161e-11
1.42547e-10
2.59362e-10
4.33956e-10
6.7167e-10
9.74802e-10
1.35105e-09
1.81404e-09
2.37076e-09
3.00586e-09
3.68058e-09
4.35665e-09
5.03819e-09
5.80936e-09
6.83791e-09
8.32843e-09
1.04183e-08
1.30531e-08
1.58974e-08
1.83735e-08
1.98795e-08
2.01371e-08
1.94756e-08
1.88403e-08
1.94497e-08
2.22235e-08
2.71782e-08
3.3087e-08
3.76372e-08
3.76586e-08
2.96433e-08
1.38846e-08
0
0
9.1916e-08
2.57642e-07
2.41273e-07
0
0
0
0
0
0
0
0
2.6631e-11
7.13252e-11
1.78006e-11
4.29218e-13
0
0
0
0
0
0
0
0
0
1.00825e-43
0
2.32431e-37
0
0
0
7.29605e-19
3.27839e-17
3.35107e-17
0
0
5.38473e-08
3.14072e-07
5.00958e-07
2.82997e-07
2.92903e-09
0
0
2.59369e-12
1.13991e-11
3.23158e-11
7.24194e-11
1.38884e-10
2.40469e-10
3.86798e-10
5.82705e-10
8.24189e-10
1.10265e-09
1.41383e-09
1.76122e-09
2.14881e-09
2.56879e-09
2.99664e-09
3.40238e-09
3.7776e-09
4.16714e-09
4.68645e-09
5.51088e-09
6.82234e-09
8.71498e-09
1.10881e-08
1.35954e-08
1.57157e-08
1.69691e-08
1.7209e-08
1.6831e-08
1.67421e-08
1.81051e-08
2.18743e-08
2.81513e-08
3.5703e-08
4.19925e-08
4.30432e-08
3.40939e-08
1.60555e-08
0
0
5.56848e-10
0
1.03452e-05
0.000121902
0.000395977
0.000764928
0.00101912
0.000946139
0.000510698
0
0
0
0
0
0
0
0
0
0
0
0
0
0
6.36338e-45
0
3.02568e-37
0
0
0
1.05008e-18
3.35435e-17
0
0
2.0382e-09
3.64791e-08
7.13592e-08
0
0
0
0
3.7441e-12
1.37103e-11
3.44192e-11
7.19139e-11
1.31769e-10
2.17956e-10
3.33601e-10
4.80255e-10
6.5433e-10
8.45342e-10
1.03996e-09
1.22923e-09
1.41237e-09
1.59355e-09
1.77402e-09
1.94616e-09
2.09572e-09
2.21365e-09
2.31632e-09
2.46209e-09
2.75868e-09
3.35078e-09
4.3773e-09
5.89395e-09
7.78732e-09
9.75133e-09
1.13766e-08
1.23285e-08
1.25477e-08
1.2388e-08
1.26246e-08
1.4429e-08
1.90951e-08
2.72382e-08
3.80285e-08
4.85511e-08
5.26716e-08
4.38913e-08
2.36869e-08
3.88355e-09
0
0
0.000454357
0.00243623
0.00659189
0.012173
0.0169615
0.0184707
0.0156542
0.00978619
0.00382773
0.000288256
0
0
0
0
0
0
0
0
0
0
0
0
1.95171e-39
2.68955e-37
0
0
8.02781e-21
8.86695e-19
0
0
2.42534e-11
7.81402e-10
0
0
3.27303e-05
0.0035578
0
5.26707e-12
1.65787e-11
3.71085e-11
7.10831e-11
1.22166e-10
1.921e-10
2.80002e-10
3.82818e-10
4.95414e-10
6.09808e-10
7.1545e-10
8.02035e-10
8.63584e-10
9.0087e-10
9.20232e-10
9.2919e-10
9.315e-10
9.24923e-10
9.05003e-10
8.72844e-10
8.46639e-10
8.69591e-10
1.01307e-09
1.37405e-09
2.05282e-09
3.09294e-09
4.3962e-09
5.71943e-09
6.78565e-09
7.39973e-09
7.5224e-09
7.36287e-09
7.53372e-09
9.46895e-09
1.54988e-08
2.77618e-08
4.65574e-08
6.78142e-08
8.14013e-08
7.40723e-08
3.85373e-08
0
6.73322e-05
0.00249967
0.0111587
0.0281461
0.0504599
0.0699553
0.0776959
0.0697773
0.0500031
0.0272998
0.0101507
0.0019618
0
0
0
0
0
0
0
0
0
0
0
0
1.44131e-37
0
0
3.98775e-21
4.35409e-19
0
0
0
0
0
0.000606829
0.00856273
0.0270029
7.02971e-12
1.97956e-11
3.98155e-11
6.98512e-11
1.11625e-10
1.64999e-10
2.27636e-10
2.94963e-10
3.60746e-10
4.18129e-10
4.60692e-10
4.83317e-10
4.83071e-10
4.60249e-10
4.19072e-10
3.67138e-10
3.13109e-10
2.63402e-10
2.19635e-10
1.79688e-10
1.40738e-10
1.04426e-10
7.87497e-11
7.63416e-11
1.199e-10
2.6183e-10
5.79828e-10
1.1355e-09
1.8665e-09
2.58582e-09
3.11303e-09
3.35948e-09
3.26428e-09
2.87097e-09
2.72725e-09
5.22848e-09
1.55823e-08
4.04004e-08
8.30345e-08
1.32248e-07
1.47058e-07
7.62943e-08
0
0.000590843
0.00800566
0.0310355
0.0735673
0.127647
0.174387
0.194322
0.179657
0.138639
0.0892193
0.0478945
0.0219364
0.00893062
0.0029917
0.000203005
0
0
0
0
0
0
0
0
0
3.81144e-39
0
0
0
0
0
0
2.34923e-05
0.000830516
0.00369918
0.0148604
0.0439094
0.0900857
2.30077e-11
4.2099e-11
6.77241e-11
1.00305e-10
1.38511e-10
1.79338e-10
2.18586e-10
2.51309e-10
2.72505e-10
2.78407e-10
2.67718e-10
2.41793e-10
2.0392e-10
1.58635e-10
1.11486e-10
6.86682e-11
3.55597e-11
1.4243e-11
3.32823e-12
2.88012e-15
0
0
0
0
0
0
0
3.31111e-11
2.48066e-10
6.2803e-10
9.30575e-10
9.29198e-10
7.20984e-10
4.57325e-10
1.79486e-10
1.42503e-10
6.22005e-09
3.43131e-08
1.02001e-07
1.94999e-07
2.22437e-07
8.65365e-08
0
0.00218893
0.018718
0.0640837
0.142693
0.238566
0.319329
0.354674
0.334757
0.273851
0.198447
0.131169
0.0818075
0.0485733
0.0257038
0.0102431
0.00224264
0
0
0
0
0
0
0
0
0
0
0
0
0.000945243
0.00376636
0.00842174
0.0134687
0.0192672
0.032535
0.0653009
0.125026
0.202057
4.34696e-11
6.43641e-11
8.82174e-11
1.13298e-10
1.36811e-10
1.55491e-10
1.663e-10
1.66904e-10
1.5613e-10
1.34696e-10
1.05604e-10
7.34818e-11
4.32833e-11
1.9254e-11
4.28282e-12
0
0
0
0
0
0
0
0
0
0
2.9354e-11
5.08592e-11
0
0
2.87162e-10
7.22385e-10
8.15632e-10
4.63018e-10
0
0
0
1.16264e-09
3.02082e-08
1.20132e-07
2.45179e-07
2.55542e-07
5.01474e-08
0
0.00561071
0.0352791
0.107505
0.224044
0.358849
0.467976
0.515737
0.49522
0.427041
0.341423
0.2606
0.19255
0.13554
0.0868838
0.048309
0.0234566
0.0115047
0.00687025
0.00458337
0.00291927
0.00174291
0.00116353
0.00112902
0.00153493
0.00244009
0.0041169
0.00692712
0.011483
0.0194269
0.0327751
0.050121
0.0661136
0.0817092
0.110618
0.168434
0.254519
0.348413
5.95407e-11
7.55013e-11
8.98673e-11
1.00572e-10
1.05674e-10
1.03844e-10
9.47621e-11
7.92471e-11
5.92473e-11
3.78136e-11
1.87395e-11
5.52802e-12
1.08866e-13
0
0
0
0
0
2.1257e-13
6.68201e-13
1.56932e-12
2.28463e-12
2.13643e-12
6.46557e-13
0
9.87e-11
3.88191e-10
6.23018e-10
6.18096e-10
7.00281e-10
1.36046e-09
2.60008e-09
3.8835e-09
4.57444e-09
4.11238e-09
2.08245e-09
1.29874e-09
3.08992e-08
1.25137e-07
2.37882e-07
2.03248e-07
0
0.000125509
0.0119089
0.0578351
0.156406
0.302452
0.460057
0.580213
0.63114
0.614631
0.556356
0.4836
0.410671
0.338953
0.265855
0.193734
0.131283
0.0869146
0.0609393
0.0465165
0.0369857
0.029604
0.0243558
0.0217753
0.0218279
0.0240712
0.0285393
0.0358386
0.046398
0.0608675
0.0818753
0.11224
0.147553
0.17759
0.203328
0.243906
0.315238
0.407113
0.492295
6.24556e-11
6.86553e-11
7.07374e-11
6.7991e-11
6.04391e-11
4.89261e-11
3.50762e-11
2.10708e-11
9.31423e-12
1.91265e-12
0
0
0
0
1.92608e-13
5.14395e-13
7.71826e-13
1.0205e-12
1.47669e-12
2.51993e-12
4.9565e-12
5.86877e-12
6.09292e-12
3.66756e-12
0
1.11609e-10
7.76374e-10
1.7711e-09
2.21314e-09
1.94806e-09
2.40482e-09
5.43869e-09
1.13118e-08
1.83296e-08
2.34027e-08
2.37993e-08
2.35148e-08
4.60435e-08
1.09958e-07
1.53056e-07
7.23671e-08
0
0.00225409
0.0243134
0.0894371
0.210218
0.371118
0.52926
0.63913
0.68139
0.669676
0.632072
0.588098
0.54043
0.482286
0.410144
0.331203
0.259537
0.205254
0.168298
0.142259
0.121973
0.10605
0.0950552
0.0897915
0.0902876
0.0957769
0.10607
0.121743
0.142691
0.168997
0.203774
0.249631
0.299193
0.338576
0.367632
0.405899