/*--------------------------------*- C++ -*----------------------------------*\
  =========                 |
  \\      /  F ield         | OpenFOAM: The Open Source CFD Toolbox
   \\    /   O peration     | Website:  https://openfoam.org
    \\  /    A nd           | Version:  7
     \\/     M anipulation  |
\*---------------------------------------------------------------------------*/
FoamFile
{
    version     2.0;
    format      ascii;
    class       volScalarField;
    location    "20";
    object      k1Write;
}
// * * * * * * * * * * * * * * * * * * * * * * * * * * * * * * * * * * * * * //

dimensions      [0 2 0 0 0 0 0];

internalField   nonuniform List<scalar> 
49920
(
1.39087e-16
1.16642e-19
3.39706e-21
7.18052e-21
6.91289e-21
1.44818e-20
8.99169e-21
2.09775e-21
3.83861e-21
9.4681e-21
7.25654e-21
3.80206e-21
6.39809e-21
2.452e-21
1.35365e-20
2.95411e-18
1.70726e-15
2.73653e-11
0.000167073
0.000167073
0.000167073
0.000167073
0.000167073
0.000167073
0.000167073
0.000167073
0.000167073
0.000167073
0.000167074
0.000167074
0.000167074
0.000167074
0.000167074
0.000167074
0.000167074
0.000167074
0.000167074
0.000167074
0.000167074
0.000167074
0.000167074
0.000167074
0.000167074
0.000167073
0.000167073
0.000167073
0.000167073
0.000167073
0.000167073
0.000167073
0.000167073
0.000167074
0.000167073
0.000167074
0.000167073
0.000167074
0.000167073
0.000167074
0.000167073
0.000167073
0.000167073
0.000167073
0.000167072
0.000167073
0.000167072
0.000167073
0.000167072
0.000167073
0.000167072
0.000167072
0.000167072
0.000167072
0.000167072
0.000167072
0.000167072
0.000167072
0.000167072
0.000167072
0.000167073
0.000167073
1.29811e-16
8.30092e-18
4.90464e-19
1.17543e-20
1.1112e-20
4.5965e-20
6.75372e-21
3.40652e-20
8.16697e-21
1.1856e-20
1.57745e-20
9.44092e-21
4.90442e-21
3.44983e-20
1.19413e-18
3.02967e-17
2.80604e-15
1.74807e-09
0.000167073
0.000167073
0.000167073
0.000167073
0.000167073
0.000167073
0.000167073
0.000167073
0.000167073
0.000167073
0.000167073
0.000167073
0.000167073
0.000167073
0.000167073
0.000167073
0.000167073
0.000167073
0.000167073
0.000167073
0.000167073
0.000167073
0.000167073
0.000167073
0.000167073
0.000167073
0.000167073
0.000167073
0.000167073
0.000167073
0.000167073
0.000167073
0.000167073
0.000167073
0.000167073
0.000167073
0.000167074
0.000167073
0.000167074
0.000167073
0.000167074
0.000167073
0.000167074
0.000167073
0.000167074
0.000167073
0.000167074
0.000167072
0.000167073
0.000167072
0.000167073
0.000167072
0.000167072
0.000167072
0.000167072
0.000167072
0.000167072
0.000167073
0.000167073
0.000167074
0.000167073
0.000167075
7.27573e-16
3.57396e-16
1.90588e-17
1.41523e-18
1.29933e-18
2.9331e-18
1.19002e-18
2.49106e-18
1.27199e-18
4.68653e-20
4.3622e-20
4.90737e-20
2.13906e-19
2.21511e-18
2.61534e-17
3.66852e-16
7.82904e-15
7.45571e-13
0.000167073
0.000167073
0.000167073
0.000167073
0.000167073
0.000167073
0.000167073
0.000167073
0.000167073
0.000167073
0.000167073
0.000167073
0.000167073
0.000167073
0.000167073
0.000167073
0.000167073
0.000167073
0.000167073
0.000167073
0.000167073
0.000167073
0.000167073
0.000167073
0.000167073
0.000167072
0.000167072
0.000167072
0.000167072
0.000167072
0.000167072
0.000167073
0.000167073
0.000167073
0.000167073
0.000167073
0.000167073
0.000167074
0.000167074
0.000167074
0.000167074
0.000167074
0.000167074
0.000167074
0.000167074
0.000167074
0.000167074
0.000167074
0.000167074
0.000167073
0.000167073
0.000167072
0.000167072
0.000167072
0.000167072
0.000167071
0.000167072
0.000167072
0.000167073
0.000167073
0.000167074
0.000167073
6.05919e-15
2.58853e-14
4.03172e-16
4.0323e-17
3.11255e-17
6.31212e-17
2.85799e-17
5.34377e-17
2.72605e-17
4.78945e-18
2.90521e-18
2.83769e-18
7.06412e-18
2.06909e-17
4.46425e-16
6.2429e-15
5.59227e-14
6.99655e-13
2.95659e-11
0.000167073
0.000167073
0.000167073
0.000167073
0.000167073
0.000167073
0.000167073
0.000167073
0.000167073
0.000167073
0.000167073
0.000167073
0.000167073
0.000167073
0.000167073
0.000167073
0.000167072
0.000167072
0.000167072
0.000167072
0.000167072
0.000167072
0.000167072
0.000167072
0.000167072
0.000167072
0.000167072
0.000167072
0.000167072
0.000167072
0.000167073
0.000167073
0.000167073
0.000167073
0.000167073
0.000167074
0.000167074
0.000167074
0.000167075
0.000167074
0.000167075
0.000167074
0.000167075
0.000167074
0.000167075
0.000167074
0.000167075
0.000167074
0.000167074
0.000167073
0.000167073
0.000167072
0.000167071
0.000167071
0.00016707
0.00016707
0.000167071
0.000167071
0.000167072
0.000167072
0.000167072
5.17474e-14
4.03072e-10
7.69583e-15
8.57397e-16
4.59715e-16
9.79454e-16
5.28347e-16
9.26677e-16
4.70051e-16
2.70812e-16
4.29661e-17
6.59536e-17
1.97761e-16
7.53818e-16
6.75554e-15
7.17223e-14
4.23863e-13
1.52259e-12
7.94868e-12
9.15824e-11
6.44718e-09
0.000167073
0.000167073
0.000167073
0.000167073
0.000167073
0.000167073
0.000167073
0.000167073
0.000167073
0.000167073
0.000167073
0.000167072
0.000167072
0.000167072
0.000167072
0.000167072
0.000167072
0.000167072
0.000167072
0.000167072
0.000167072
0.000167072
0.000167072
0.000167072
0.000167072
0.000167072
0.000167072
0.000167073
0.000167073
0.000167073
0.000167073
0.000167073
0.000167074
0.000167074
0.000167074
0.000167075
0.000167075
0.000167075
0.000167075
0.000167075
0.000167076
0.000167075
0.000167076
0.000167075
0.000167075
0.000167074
0.000167074
0.000167073
0.000167073
0.000167071
0.000167071
0.00016707
0.000167069
0.000167069
0.000167069
0.00016707
0.000167071
0.00016707
0.000167069
3.33934e-13
0.000167075
1.94187e-13
2.21965e-14
6.61397e-15
1.1312e-14
8.46978e-15
1.05084e-14
5.4249e-15
2.88859e-14
1.21689e-15
3.22066e-15
9.35447e-15
4.02907e-14
1.28588e-13
4.78368e-13
1.615e-12
3.41706e-12
7.00787e-12
2.1721e-11
1.26589e-10
1.64011e-09
7.02148e-07
0.000167073
0.000167073
0.000167073
0.000167073
0.000167073
0.000167073
0.000167072
0.000167072
0.000167072
0.000167072
0.000167072
0.000167072
0.000167072
0.000167072
0.000167072
0.000167072
0.000167072
0.000167072
0.000167072
0.000167072
0.000167072
0.000167072
0.000167072
0.000167073
0.000167073
0.000167073
0.000167073
0.000167073
0.000167073
0.000167074
0.000167073
0.000167075
0.000167074
0.000167075
0.000167075
0.000167076
0.000167075
0.000167077
0.000167075
0.000167077
0.000167075
0.000167077
0.000167074
0.000167076
0.000167073
0.000167074
0.000167072
0.000167072
0.00016707
0.000167069
0.000167068
0.000167067
0.000167068
0.000167068
0.000167068
0.000167068
0.000167067
1.21913e-12
2.58447e-10
6.03555e-12
1.14774e-12
1.197e-13
1.00898e-13
1.05684e-13
9.19514e-14
4.57956e-14
3.60376e-12
1.01544e-13
2.2727e-13
1.99185e-12
0.000167075
2.81611e-11
5.77379e-12
5.17332e-12
6.38592e-12
8.56542e-12
1.44403e-11
3.56611e-11
1.41016e-10
1.06737e-09
2.23089e-08
0.000167073
0.000167073
0.000167072
0.000167072
0.000167072
0.000167072
0.000167072
0.000167072
0.000167073
0.000167073
0.000167073
0.000167073
0.000167073
0.000167073
0.000167073
0.000167073
0.000167073
0.000167072
0.000167072
0.000167072
0.000167073
0.000167073
0.000167073
0.000167074
0.000167074
0.000167074
0.000167074
0.000167074
0.000167073
0.000167075
0.000167074
0.000167076
0.000167075
0.000167076
0.000167075
0.000167077
0.000167075
0.000167077
0.000167075
0.000167077
0.000167074
0.000167077
0.000167073
0.000167075
0.000167072
0.000167072
0.00016707
0.000167069
0.000167068
0.000167066
0.000167066
0.000167065
0.000167066
0.000167065
0.000167065
0.000167064
2.61953e-12
1.43971e-10
6.21796e-11
1.33984e-09
4.81649e-12
9.42231e-13
8.40017e-13
6.30145e-13
2.8783e-13
1.94081e-12
0.000167074
0.000167074
0.000167074
0.000167075
0.000167076
3.8442e-10
3.97652e-11
1.93397e-11
1.55136e-11
1.68087e-11
2.4845e-11
5.22479e-11
1.63973e-10
8.39458e-10
8.56749e-09
4.43359e-07
0.000167072
0.000167072
0.000167072
0.000167072
0.000167072
0.000167073
0.000167073
0.000167073
0.000167073
0.000167073
0.000167074
0.000167074
0.000167073
0.000167073
0.000167073
0.000167073
0.000167073
0.000167073
0.000167074
0.000167074
0.000167074
0.000167075
0.000167075
0.000167074
0.000167075
0.000167074
0.000167074
0.000167074
0.000167075
0.000167075
0.000167076
0.000167075
0.000167077
0.000167076
0.000167077
0.000167075
0.000167077
0.000167075
0.000167077
0.000167074
0.000167075
0.000167072
0.000167073
0.00016707
0.000167069
0.000167067
0.000167065
0.000167065
0.000167063
0.000167063
0.000167063
0.000167063
0.000167062
0.000167062
4.44644e-12
1.0753e-10
7.53513e-11
4.93726e-10
0.000167076
1.53276e-11
5.12712e-12
3.06996e-12
1.38214e-12
1.67102e-12
1.13865e-10
0.000167074
0.000167073
9.51262e-06
0.000167075
0.000167077
1.40022e-09
1.48591e-10
5.47384e-11
3.50945e-11
3.28454e-11
4.30909e-11
7.90082e-11
2.06703e-10
8.07699e-10
5.40807e-09
8.09847e-08
0.000167072
0.000167072
0.000167072
0.000167073
0.000167073
0.000167073
0.000167073
0.000167074
0.000167074
0.000167074
0.000167074
0.000167074
0.000167074
0.000167074
0.000167074
0.000167074
0.000167074
0.000167074
0.000167074
0.000167075
0.000167075
0.000167075
0.000167075
0.000167075
0.000167075
0.000167074
0.000167075
0.000167075
0.000167076
0.000167076
0.000167077
0.000167076
0.000167077
0.000167076
0.000167077
0.000167076
0.000167077
0.000167075
0.000167075
0.000167073
0.000167073
0.00016707
0.000167069
0.000167067
0.000167065
0.000167064
0.000167062
0.000167062
0.000167061
0.000167061
0.000167061
0.00016706
0.000167059
7.32631e-12
1.06259e-10
6.85024e-11
5.43598e-11
1.604e-08
1.07876e-09
3.52143e-11
1.15704e-11
5.02618e-12
2.7952e-12
7.47663e-12
5.58189e-11
2.44266e-09
0.000167074
0.000167075
0.000167076
0.000167078
6.78153e-09
5.60807e-10
1.60224e-10
8.47931e-11
6.88356e-11
7.97202e-11
1.28176e-10
2.85487e-10
9.07126e-10
4.41877e-09
4.15718e-08
1.41137e-06
0.000167073
0.000167073
0.000167073
0.000167073
0.000167074
0.000167074
0.000167074
0.000167074
0.000167075
0.000167074
0.000167074
0.000167074
0.000167075
0.000167075
0.000167075
0.000167075
0.000167075
0.000167076
0.000167076
0.000167076
0.000167075
0.000167075
0.000167075
0.000167075
0.000167075
0.000167076
0.000167076
0.000167077
0.000167077
0.000167077
0.000167077
0.000167077
0.000167077
0.000167076
0.000167076
0.000167075
0.000167074
0.000167073
0.000167071
0.000167069
0.000167068
0.000167066
0.000167064
0.000167062
0.000167061
0.00016706
0.00016706
0.000167059
0.000167058
0.000167057
0.000167056
1.25748e-11
1.49362e-10
8.11642e-11
3.35777e-11
1.20789e-10
3.9494e-09
3.01644e-10
4.13688e-11
1.45649e-11
5.92863e-12
5.59291e-12
1.34379e-11
8.7125e-11
2.62098e-09
0.000167076
1.46521e-06
9.91946e-08
5.69945e-07
4.50535e-08
2.61136e-09
5.4008e-10
2.29526e-10
1.58567e-10
1.60031e-10
2.24402e-10
4.29886e-10
1.13918e-09
4.3971e-09
2.8355e-08
4.10231e-07
0.000167073
0.000167073
0.000167074
0.000167074
0.000167074
0.000167074
0.000167075
0.000167075
0.000167075
0.000167075
0.000167076
0.000167076
0.000167076
0.000167076
0.000167076
0.000167076
0.000167076
0.000167076
0.000167076
0.000167075
0.000167075
0.000167075
0.000167076
0.000167075
0.000167077
0.000167076
0.000167078
0.000167077
0.000167078
0.000167077
0.000167078
0.000167076
0.000167078
0.000167075
0.000167076
0.000167073
0.000167073
0.00016707
0.000167069
0.000167066
0.000167065
0.000167062
0.00016706
0.000167059
0.000167058
0.000167058
0.000167056
0.000167055
0.000167054
0.000167054
2.27346e-11
2.82989e-10
1.19986e-10
3.50171e-11
5.1624e-11
3.92079e-10
1.54146e-09
1.5676e-10
3.80704e-11
1.33021e-11
7.67863e-12
9.44232e-12
2.55563e-11
1.77963e-10
4.96574e-09
3.0198e-08
3.02656e-09
1.66032e-09
2.65014e-09
6.45691e-09
5.67042e-09
1.78305e-09
6.79546e-10
4.00154e-10
3.47054e-10
4.20559e-10
6.9397e-10
1.56043e-09
4.97166e-09
2.45932e-08
2.49918e-07
1.30235e-05
0.000167074
0.000167074
0.000167074
0.000167075
0.000167075
0.000167076
0.000167076
0.000167076
0.000167076
0.000167076
0.000167077
0.000167077
0.000167077
0.000167077
0.000167076
0.000167076
0.000167076
0.000167076
0.000167075
0.000167076
0.000167075
0.000167076
0.000167076
0.000167078
0.000167077
0.000167078
0.000167077
0.000167079
0.000167077
0.000167078
0.000167076
0.000167077
0.000167073
0.000167074
0.00016707
0.000167071
0.000167067
0.000167066
0.000167063
0.000167061
0.000167059
0.000167057
0.000167056
0.000167055
0.000167053
0.000167052
0.000167052
0.000167053
4.35519e-11
6.43758e-10
1.96062e-10
4.56346e-11
4.52764e-11
1.70106e-10
1.71782e-09
6.11886e-10
1.00588e-10
3.01862e-11
1.36445e-11
1.10031e-11
1.71696e-11
5.55845e-11
3.95629e-10
1.88232e-09
7.0158e-10
2.81783e-10
2.38832e-10
3.74027e-10
9.34997e-10
2.5553e-09
3.25016e-09
1.8459e-09
1.03866e-09
7.87544e-10
8.25847e-10
1.17818e-09
2.28375e-09
6.19248e-09
2.55083e-08
1.97008e-07
4.88044e-06
0.000167074
0.000167075
0.000167075
0.000167076
0.000167076
0.000167077
0.000167077
0.000167077
0.000167077
0.000167077
0.000167078
0.000167077
0.000167077
0.000167077
0.000167076
0.000167076
0.000167075
0.000167076
0.000167075
0.000167076
0.000167076
0.000167077
0.000167076
0.000167078
0.000167077
0.000167079
0.000167077
0.000167079
0.000167076
0.000167078
0.000167074
0.000167075
0.000167071
0.000167072
0.000167068
0.000167068
0.000167063
0.000167063
0.000167059
0.000167058
0.000167056
0.000167054
0.000167052
0.00016705
0.00016705
0.000167051
0.000167053
9.05447e-11
1.526e-09
3.08269e-10
6.54929e-11
5.4044e-11
1.40512e-10
1.19116e-09
2.14545e-09
2.8697e-10
7.0708e-11
2.7661e-11
1.70706e-11
1.81862e-11
3.54251e-11
1.23873e-10
4.16653e-10
3.09635e-10
1.26165e-10
7.8318e-11
8.0009e-11
1.26419e-10
2.90952e-10
8.68363e-10
2.32503e-09
3.12158e-09
2.35188e-09
1.7482e-09
1.64572e-09
2.06599e-09
3.51129e-09
8.32809e-09
2.98311e-08
1.92677e-07
3.56764e-06
0.000167076
0.000167076
0.000167077
0.000167077
0.000167077
0.000167077
0.000167078
0.000167078
0.000167078
0.000167078
0.000167077
0.000167077
0.000167076
0.000167076
0.000167076
0.000167076
0.000167075
0.000167076
0.000167075
0.000167076
0.000167076
0.000167077
0.000167077
0.000167078
0.000167077
0.000167078
0.000167076
0.000167078
0.000167075
0.000167076
0.000167073
0.000167073
0.000167069
0.000167069
0.000167065
0.000167065
0.000167061
0.00016706
0.000167057
0.000167056
0.000167053
0.000167051
0.00016705
0.000167051
0.000167053
0.000167056
2.13182e-10
3.31324e-09
4.28463e-10
9.71705e-11
7.65204e-11
1.6502e-10
1.08101e-09
6.05688e-09
9.16185e-10
1.76183e-10
6.06483e-11
3.1339e-11
2.53687e-11
3.40962e-11
7.4652e-11
1.86763e-10
1.9933e-10
9.4016e-11
4.93538e-11
3.80511e-11
4.27708e-11
6.72619e-11
1.42629e-10
3.86975e-10
1.16594e-09
2.77069e-09
3.7275e-09
3.43496e-09
3.20349e-09
3.68164e-09
5.60789e-09
1.19165e-08
3.83756e-08
2.21187e-07
3.61537e-06
0.000167077
0.000167077
0.000167077
0.000167077
0.000167078
0.000167078
0.000167079
0.000167078
0.000167078
0.000167077
0.000167077
0.000167076
0.000167076
0.000167075
0.000167075
0.000167075
0.000167075
0.000167075
0.000167075
0.000167076
0.000167076
0.000167077
0.000167076
0.000167077
0.000167076
0.000167077
0.000167076
0.000167076
0.000167074
0.000167074
0.000167071
0.000167071
0.000167067
0.000167067
0.000167064
0.000167063
0.000167061
0.000167059
0.000167057
0.000167055
0.000167054
0.000167053
0.000167053
0.000167056
0.000167059
5.98787e-10
5.90484e-09
5.34078e-10
1.45879e-10
1.21974e-10
2.488e-10
1.4099e-09
1.57218e-08
3.36403e-09
4.68711e-10
1.38375e-10
6.25487e-11
4.1413e-11
4.20023e-11
6.51726e-11
1.26982e-10
1.64852e-10
9.76611e-11
4.80509e-11
3.0251e-11
2.62935e-11
3.08773e-11
4.74565e-11
9.28567e-11
2.24512e-10
6.32614e-10
1.79356e-09
3.89727e-09
5.43812e-09
5.86652e-09
6.59909e-09
9.27376e-09
1.80191e-08
5.34661e-08
2.87198e-07
4.44053e-06
0.000167077
0.000167078
0.000167078
0.000167078
0.000167078
0.000167078
0.000167078
0.000167077
0.000167076
0.000167075
0.000167075
0.000167075
0.000167074
0.000167074
0.000167074
0.000167074
0.000167074
0.000167074
0.000167075
0.000167075
0.000167076
0.000167076
0.000167076
0.000167076
0.000167076
0.000167076
0.000167075
0.000167074
0.000167073
0.000167072
0.00016707
0.000167069
0.000167068
0.000167066
0.000167065
0.000167063
0.000167062
0.000167061
0.000167059
0.000167058
0.000167057
0.000167058
0.000167061
0.000167064
2.12257e-09
7.80421e-09
6.37669e-10
2.23676e-10
2.15797e-10
4.67832e-10
2.68074e-09
5.37172e-08
1.37768e-08
1.23432e-09
3.05021e-10
1.23711e-10
7.10975e-11
5.85171e-11
6.98728e-11
1.10043e-10
1.57631e-10
1.25028e-10
6.49082e-11
3.56375e-11
2.5117e-11
2.31956e-11
2.74397e-11
4.04974e-11
7.29894e-11
1.57932e-10
4.0177e-10
1.14255e-09
3.17293e-09
6.78301e-09
9.8634e-09
1.19158e-08
1.59886e-08
2.88508e-08
8.01921e-08
4.12463e-07
6.20254e-06
0.000167078
0.000167078
0.000167078
0.000167077
0.000167077
0.000167076
0.000167075
0.000167075
0.000167074
0.000167074
0.000167073
0.000167073
0.000167073
0.000167072
0.000167073
0.000167072
0.000167073
0.000167073
0.000167074
0.000167074
0.000167075
0.000167074
0.000167076
0.000167074
0.000167075
0.000167074
0.000167075
0.000167072
0.000167073
0.00016707
0.000167071
0.000167068
0.000167069
0.000167067
0.000167068
0.000167066
0.000167066
0.000167064
0.000167063
0.000167062
0.000167063
0.000167066
0.000167068
9.99962e-09
7.66199e-09
7.73101e-10
3.59215e-10
4.27333e-10
1.11107e-09
7.9353e-09
3.69779e-07
3.93695e-08
2.49215e-09
5.55061e-10
2.13405e-10
1.14121e-10
8.23582e-11
8.15539e-11
1.07756e-10
1.58476e-10
1.72349e-10
1.11065e-10
5.85387e-11
3.48621e-11
2.60248e-11
2.44418e-11
2.82692e-11
3.93807e-11
6.50527e-11
1.26609e-10
2.90773e-10
7.86793e-10
2.40701e-09
7.10631e-09
1.52619e-08
2.21135e-08
2.94012e-08
4.95704e-08
1.2971e-07
6.44757e-07
9.62015e-06
0.000167077
0.000167076
0.000167076
0.000167075
0.000167074
0.000167074
0.000167073
0.000167072
0.000167072
0.000167071
0.000167071
0.000167071
0.000167071
0.000167071
0.000167071
0.000167071
0.000167072
0.000167072
0.000167073
0.000167072
0.000167074
0.000167073
0.000167074
0.000167073
0.000167074
0.000167072
0.000167074
0.000167071
0.000167073
0.00016707
0.000167072
0.00016707
0.000167072
0.00016707
0.000167071
0.00016707
0.00016707
0.000167068
0.000167068
0.000167068
0.000167071
0.000167073
5.86278e-08
6.5246e-09
9.91286e-10
6.22934e-10
9.72196e-10
3.51035e-09
4.27798e-08
1.31835e-06
2.8065e-08
2.71706e-09
6.9083e-10
2.81885e-10
1.53635e-10
1.06402e-10
9.48029e-11
1.10016e-10
1.57275e-10
2.20996e-10
2.10078e-10
1.27258e-10
6.87336e-11
4.23327e-11
3.18977e-11
2.93312e-11
3.22612e-11
4.16772e-11
6.26823e-11
1.10204e-10
2.30518e-10
5.88698e-10
1.86277e-09
6.87124e-09
2.24934e-08
4.43954e-08
6.06385e-08
9.39768e-08
2.26374e-07
1.05237e-06
1.42099e-05
0.000167075
0.000167074
0.000167073
0.000167073
0.000167072
0.000167071
0.000167071
0.00016707
0.00016707
0.000167069
0.000167069
0.000167069
0.000167069
0.000167069
0.00016707
0.00016707
0.000167071
0.000167071
0.000167072
0.000167071
0.000167073
0.000167072
0.000167073
0.000167072
0.000167073
0.000167072
0.000167073
0.000167072
0.000167073
0.000167072
0.000167074
0.000167073
0.000167075
0.000167075
0.000167075
0.000167074
0.000167073
0.000167072
0.000167073
0.000167075
0.000167077
1.99488e-07
5.70487e-09
1.38867e-09
1.20649e-09
2.65116e-09
1.60623e-08
3.431e-07
1.1465e-07
8.44929e-09
1.69477e-09
5.82231e-10
2.78584e-10
1.67389e-10
1.20706e-10
1.04812e-10
1.12717e-10
1.52242e-10
2.42407e-10
3.5499e-10
3.28369e-10
1.91871e-10
1.01547e-10
6.11445e-11
4.43479e-11
3.84768e-11
3.91687e-11
4.6153e-11
6.2891e-11
1.0053e-10
1.94078e-10
4.72016e-10
1.51818e-09
6.61053e-09
3.35676e-08
1.08029e-07
1.5651e-07
2.0821e-07
4.39046e-07
1.86858e-06
2.31174e-05
0.000167073
0.000167072
0.000167071
0.000167071
0.00016707
0.00016707
0.000167069
0.000167069
0.000167068
0.000167068
0.000167068
0.000167068
0.000167068
0.000167069
0.000167069
0.000167069
0.00016707
0.00016707
0.000167071
0.000167071
0.000167071
0.000167072
0.000167072
0.000167072
0.000167072
0.000167072
0.000167073
0.000167073
0.000167074
0.000167075
0.000167076
0.000167077
0.000167078
0.000167078
0.000167077
0.000167076
0.000167075
0.000167076
0.000167078
0.000167081
1.46823e-07
5.62057e-09
2.18979e-09
2.71041e-09
9.06143e-09
9.32824e-08
1.70056e-07
1.46549e-08
2.73117e-09
8.91776e-10
4.04595e-10
2.31197e-10
1.57514e-10
1.23525e-10
1.10663e-10
1.15972e-10
1.48035e-10
2.36477e-10
4.4924e-10
7.68135e-10
7.2733e-10
3.85801e-10
1.83757e-10
1.0106e-10
6.71081e-11
5.29737e-11
4.87183e-11
5.17522e-11
6.3939e-11
9.39363e-11
1.70196e-10
4.00406e-10
1.31403e-09
6.62796e-09
5.50891e-08
4.37098e-07
7.37504e-07
6.77934e-07
1.10487e-06
4.01984e-06
4.2151e-05
0.000167071
0.00016707
0.00016707
0.000167069
0.000167069
0.000167068
0.000167068
0.000167068
0.000167068
0.000167068
0.000167068
0.000167068
0.000167068
0.000167068
0.000167069
0.000167069
0.000167069
0.00016707
0.00016707
0.000167071
0.000167071
0.000167072
0.000167071
0.000167072
0.000167072
0.000167073
0.000167074
0.000167075
0.000167076
0.000167078
0.000167078
0.000167079
0.000167079
0.000167079
0.000167077
0.000167077
0.000167076
0.000167079
0.000167081
6.77848e-08
6.48755e-09
3.99796e-09
7.29615e-09
3.57953e-08
1.31266e-07
2.20544e-08
3.74554e-09
1.14619e-09
5.04436e-10
2.80773e-10
1.86346e-10
1.42577e-10
1.22405e-10
1.16125e-10
1.22938e-10
1.50998e-10
2.2805e-10
4.48563e-10
1.14563e-09
2.75475e-09
2.65773e-09
1.05397e-09
3.92487e-10
1.82085e-10
1.05489e-10
7.35218e-11
6.01335e-11
5.74235e-11
6.48252e-11
8.88463e-11
1.53812e-10
3.56235e-10
1.20777e-09
7.11586e-09
1.14129e-07
1.99686e-05
2.82839e-05
2.84555e-06
2.64749e-06
7.75687e-06
6.89132e-05
0.00016707
0.000167069
0.000167069
0.000167068
0.000167068
0.000167068
0.000167068
0.000167067
0.000167068
0.000167067
0.000167068
0.000167068
0.000167068
0.000167069
0.000167069
0.000167069
0.00016707
0.00016707
0.00016707
0.000167071
0.000167071
0.000167072
0.000167072
0.000167073
0.000167073
0.000167074
0.000167075
0.000167076
0.000167077
0.000167078
0.000167079
0.000167079
0.000167079
0.000167077
0.000167076
0.000167076
0.000167077
0.000167081
4.13161e-08
8.94698e-09
8.61923e-09
2.25903e-08
7.80104e-08
3.06355e-08
5.30525e-09
1.48179e-09
6.15478e-10
3.3189e-10
2.15048e-10
1.60884e-10
1.35675e-10
1.26298e-10
1.27471e-10
1.39044e-10
1.68014e-10
2.37965e-10
4.30368e-10
1.1186e-09
4.88838e-09
2.85176e-08
2.20112e-08
3.66681e-09
9.00942e-10
3.34649e-10
1.64647e-10
9.97066e-11
7.21655e-11
6.22913e-11
6.50893e-11
8.46195e-11
1.42487e-10
3.3042e-10
1.17741e-09
8.36328e-09
2.94582e-07
0.000167072
0.000167071
6.92081e-06
5.28051e-06
1.47375e-05
0.000131947
0.000167069
0.000167069
0.000167069
0.000167068
0.000167068
0.000167068
0.000167068
0.000167068
0.000167068
0.000167068
0.000167068
0.000167069
0.000167069
0.000167069
0.00016707
0.00016707
0.000167071
0.000167071
0.000167072
0.000167071
0.000167072
0.000167072
0.000167073
0.000167073
0.000167075
0.000167075
0.000167076
0.000167077
0.000167078
0.000167079
0.000167079
0.000167078
0.000167076
0.000167075
0.000167074
0.000167076
0.000167078
3.57172e-08
1.48722e-08
2.12992e-08
5.50917e-08
4.02782e-08
8.00995e-09
2.05967e-09
7.95566e-10
4.10197e-10
2.5864e-10
1.89534e-10
1.56791e-10
1.43684e-10
1.43465e-10
1.53449e-10
1.7389e-10
2.10606e-10
2.83959e-10
4.60796e-10
1.01693e-09
3.85748e-09
4.90244e-08
0.000117828
4.17872e-07
1.28392e-08
2.07449e-09
6.07779e-10
2.48758e-10
1.29614e-10
8.32799e-11
6.57592e-11
6.46287e-11
8.10421e-11
1.34896e-10
3.18495e-10
1.21505e-09
1.01559e-08
4.85396e-07
0.000167072
0.000167071
1.35296e-05
1.04303e-05
3.0694e-05
0.000167069
0.000167069
0.000167069
0.000167069
0.000167069
0.000167069
0.000167068
0.000167069
0.000167069
0.000167069
0.000167069
0.00016707
0.00016707
0.00016707
0.00016707
0.000167071
0.000167071
0.000167072
0.000167072
0.000167073
0.000167072
0.000167074
0.000167072
0.000167075
0.000167074
0.000167076
0.000167076
0.000167077
0.000167078
0.000167078
0.000167078
0.000167077
0.000167075
0.000167073
0.000167072
0.000167074
0.000167076
4.19087e-08
2.89799e-08
4.82665e-08
5.0074e-08
1.2969e-08
3.1267e-09
1.11074e-09
5.43207e-10
3.32652e-10
2.39766e-10
1.96041e-10
1.77707e-10
1.75748e-10
1.87044e-10
2.11129e-10
2.49265e-10
3.06677e-10
4.01701e-10
5.93504e-10
1.08923e-09
2.9115e-09
1.59475e-08
4.61659e-07
0.000167074
1.77164e-05
4.73386e-08
4.80387e-09
1.06143e-09
3.54766e-10
1.59364e-10
9.20631e-11
6.761e-11
6.35426e-11
7.80766e-11
1.30467e-10
3.18276e-10
1.303e-09
1.24125e-08
9.02435e-07
0.000167072
0.000167071
2.68633e-05
2.21131e-05
7.22451e-05
0.00016707
0.00016707
0.000167069
0.000167069
0.000167069
0.000167069
0.000167069
0.000167069
0.00016707
0.00016707
0.00016707
0.000167071
0.000167071
0.000167072
0.000167072
0.000167073
0.000167072
0.000167073
0.000167073
0.000167074
0.000167073
0.000167074
0.000167074
0.000167075
0.000167076
0.000167076
0.000167077
0.000167078
0.000167078
0.000167078
0.000167077
0.000167075
0.000167073
0.000167072
0.000167073
0.000167075
6.20795e-08
5.6981e-08
5.9016e-08
2.12224e-08
5.14383e-09
1.6803e-09
7.71289e-10
4.57242e-10
3.2571e-10
2.65984e-10
2.41832e-10
2.40028e-10
2.56251e-10
2.90668e-10
3.4609e-10
4.2669e-10
5.3855e-10
6.98205e-10
9.6152e-10
1.50673e-09
2.97094e-09
8.60811e-09
4.6779e-08
7.43184e-07
0.000167075
0.000167075
1.91016e-07
1.06666e-08
1.71352e-09
4.69187e-10
1.84663e-10
9.77222e-11
6.79284e-11
6.20465e-11
7.58618e-11
1.29132e-10
3.29647e-10
1.46863e-09
1.6623e-08
2.61562e-06
0.000167072
0.000167071
5.1034e-05
5.07837e-05
0.000167071
0.00016707
0.00016707
0.00016707
0.00016707
0.00016707
0.00016707
0.00016707
0.00016707
0.000167071
0.000167071
0.000167071
0.000167072
0.000167072
0.000167073
0.000167073
0.000167073
0.000167073
0.000167073
0.000167073
0.000167074
0.000167074
0.000167075
0.000167075
0.000167075
0.000167076
0.000167077
0.000167078
0.000167078
0.000167077
0.000167076
0.000167074
0.000167072
0.000167072
0.000167072
0.000167074
1.00925e-07
7.75309e-08
3.3623e-08
8.77964e-09
2.71041e-09
1.16637e-09
6.65864e-10
4.69407e-10
3.86504e-10
3.58011e-10
3.63848e-10
3.98348e-10
4.62866e-10
5.6386e-10
7.12499e-10
9.22733e-10
1.2063e-09
1.57304e-09
2.06254e-09
2.83729e-09
4.40023e-09
8.49965e-09
2.3697e-08
1.15664e-07
1.47625e-06
0.000167075
0.000167076
9.78631e-07
2.1902e-08
2.51858e-09
5.75025e-10
2.02445e-10
1.0005e-10
6.70098e-11
6.04976e-11
7.48171e-11
1.31931e-10
3.59477e-10
1.79543e-09
2.60407e-08
3.59906e-05
0.000167072
0.000167072
8.20959e-05
0.000125094
0.000167071
0.000167071
0.000167071
0.000167071
0.00016707
0.000167071
0.000167071
0.000167071
0.000167071
0.000167071
0.000167072
0.000167072
0.000167072
0.000167073
0.000167073
0.000167073
0.000167072
0.000167073
0.000167073
0.000167074
0.000167074
0.000167075
0.000167074
0.000167075
0.000167075
0.000167076
0.000167076
0.000167077
0.000167076
0.000167075
0.000167073
0.000167072
0.000167071
0.000167071
0.000167073
1.3214e-07
5.50531e-08
1.52175e-08
4.53464e-09
1.84303e-09
1.01278e-09
7.06763e-10
5.90557e-10
5.65256e-10
6.00782e-10
6.93309e-10
8.52987e-10
1.10067e-09
1.46869e-09
2.00428e-09
2.7678e-09
3.80373e-09
5.07142e-09
6.42896e-09
7.86578e-09
9.88898e-09
1.40746e-08
2.57066e-08
6.87575e-08
3.12422e-07
3.8165e-06
0.000167076
0.000167076
9.5933e-06
4.04658e-08
3.35653e-09
6.54749e-10
2.10991e-10
9.94629e-11
6.54756e-11
5.95597e-11
7.59675e-11
1.41758e-10
4.23406e-10
2.47875e-09
5.27013e-08
0.000167073
0.000167072
0.000167072
0.000161697
0.000167072
0.000167071
0.000167071
0.000167071
0.000167071
0.000167071
0.000167071
0.000167071
0.000167071
0.000167071
0.000167072
0.000167072
0.000167072
0.000167072
0.000167072
0.000167072
0.000167072
0.000167073
0.000167073
0.000167073
0.000167074
0.000167073
0.000167073
0.000167073
0.000167074
0.000167074
0.000167075
0.000167075
0.000167075
0.000167074
0.000167072
0.000167071
0.00016707
0.000167071
0.000167072
1.01132e-07
2.7304e-08
7.81011e-09
2.99285e-09
1.57827e-09
1.0896e-09
9.28495e-10
9.29828e-10
1.05523e-09
1.32208e-09
1.7918e-09
2.57805e-09
3.86207e-09
5.9096e-09
9.09379e-09
1.39074e-08
2.07582e-08
2.90222e-08
3.57976e-08
3.81334e-08
3.77374e-08
3.95878e-08
5.0274e-08
8.64433e-08
2.20117e-07
9.60896e-07
1.18176e-05
0.000167076
0.000167076
0.000167075
6.26132e-08
4.00943e-09
6.93945e-10
2.10805e-10
9.72355e-11
6.43849e-11
6.03257e-11
8.11513e-11
1.6434e-10
5.5692e-10
4.0768e-09
1.44314e-07
0.000167072
0.000167071
0.000167072
0.000167071
0.000167071
0.000167071
0.000167071
0.000167071
0.000167071
0.000167071
0.000167071
0.000167071
0.000167071
0.000167071
0.000167071
0.000167072
0.000167072
0.000167072
0.000167072
0.000167072
0.000167071
0.000167072
0.000167072
0.000167073
0.000167072
0.000167073
0.000167072
0.000167073
0.000167073
0.000167074
0.000167074
0.000167074
0.000167072
0.000167071
0.00016707
0.000167069
0.000167069
0.000167071
5.16692e-08
1.38648e-08
4.97864e-09
2.49495e-09
1.68898e-09
1.46511e-09
1.5484e-09
1.91444e-09
2.68945e-09
4.20718e-09
7.21333e-09
1.33246e-08
2.59116e-08
5.14706e-08
1.0127e-07
1.9291e-07
3.46875e-07
5.46442e-07
6.46624e-07
5.2047e-07
3.34054e-07
2.23136e-07
1.83987e-07
2.05321e-07
3.28058e-07
7.94461e-07
3.41069e-06
4.2644e-05
0.000167076
0.000167075
0.000167074
8.01403e-08
4.3033e-09
6.93203e-10
2.05627e-10
9.54855e-11
6.52017e-11
6.44237e-11
9.36684e-11
2.11986e-10
8.51131e-10
8.42873e-09
6.9055e-07
0.000167072
0.000167071
0.000167072
0.000167071
0.000167071
0.000167071
0.000167071
0.000167071
0.000167071
0.000167071
0.000167071
0.000167071
0.000167071
0.000167072
0.000167072
0.000167072
0.000167072
0.000167072
0.000167071
0.000167071
0.000167071
0.000167072
0.000167072
0.000167072
0.000167072
0.000167072
0.000167072
0.000167073
0.000167073
0.000167073
0.000167072
0.000167071
0.00016707
0.000167069
0.000167068
0.000167068
0.000167069
2.52628e-08
8.42187e-09
3.98542e-09
2.61421e-09
2.28066e-09
2.53421e-09
3.45414e-09
5.61713e-09
1.07334e-08
2.4035e-08
6.35025e-08
1.99943e-07
7.52624e-07
3.34288e-06
1.72091e-05
0.000102776
0.000167078
0.000167077
0.000167076
0.000167076
2.32955e-05
4.53797e-06
1.66426e-06
1.0185e-06
9.76113e-07
1.43042e-06
3.30029e-06
1.40302e-05
0.000138201
0.000167075
0.000167074
0.000167074
8.5894e-08
4.24926e-09
6.70986e-10
2.01367e-10
9.6822e-11
6.98989e-11
7.46179e-11
1.20382e-10
3.14721e-10
1.57697e-09
2.40928e-08
2.95784e-05
0.000167071
0.000167071
0.000167071
0.000167071
0.000167071
0.000167071
0.000167071
0.000167071
0.000167071
0.000167072
0.000167072
0.000167072
0.000167072
0.000167072
0.000167072