/*--------------------------------*- C++ -*----------------------------------*\
  =========                 |
  \\      /  F ield         | OpenFOAM: The Open Source CFD Toolbox
   \\    /   O peration     | Website:  https://openfoam.org
    \\  /    A nd           | Version:  7
     \\/     M anipulation  |
\*---------------------------------------------------------------------------*/
FoamFile
{
    version     2.0;
    format      ascii;
    class       volScalarField;
    location    "20";
    object      k2Write;
}
// * * * * * * * * * * * * * * * * * * * * * * * * * * * * * * * * * * * * * //

dimensions      [0 2 0 0 0 0 0];

internalField   nonuniform List<scalar> 
49920
(
6.80487e-08
5.70673e-11
1.66201e-12
3.51306e-12
3.38212e-12
7.08519e-12
4.39917e-12
1.02632e-12
1.87803e-12
4.63225e-12
3.55025e-12
1.86015e-12
3.13026e-12
1.19964e-12
6.62273e-12
1.4453e-09
8.35275e-07
0.0133884
81739.5
81739.6
81739.7
81739.9
81740
81740.1
81740.2
81740.4
81740.5
81740.6
81740.7
81740.7
81740.8
81740.7
81740.8
81740.7
81740.8
81740.7
81740.8
81740.7
81740.8
81740.7
81740.8
81740.7
81740.7
81740.7
81740.6
81740.5
81740.5
81740.5
81740.4
81740.6
81740.2
81740.9
81739.9
81740.9
81739.2
81741.1
81739.4
81740.7
81739
81740.6
81738.7
81740.5
81738.2
81740.3
81737.8
81739.9
81737.2
81739.2
81736.7
81738.4
81736.5
81737.6
81736.6
81737.2
81737.4
81737.5
81738.3
81738.3
81739.4
81739.5
6.35108e-08
4.06123e-09
2.3996e-10
5.75075e-12
5.4365e-12
2.24882e-11
3.30423e-12
1.66662e-11
3.99565e-12
5.80048e-12
7.71761e-12
4.61891e-12
2.39946e-12
1.68782e-11
5.84227e-10
1.48227e-08
1.37286e-06
0.85524
81739.7
81739.7
81739.8
81740
81740.1
81740.2
81740.3
81740.3
81740.4
81740.4
81740.4
81740.4
81740.4
81740.4
81740.3
81740.3
81740.1
81740.2
81740
81740
81739.9
81739.8
81739.7
81739.7
81739.5
81739.4
81739.2
81739.1
81739
81739.1
81739.2
81739.2
81739.7
81739.2
81740.4
81738.9
81741.1
81739.3
81740.9
81739.5
81741.2
81739.4
81741.6
81739.2
81741.6
81738.9
81741.4
81738.4
81740.6
81737.6
81739.5
81737.1
81738.2
81737.1
81737.2
81737.9
81737.4
81739.7
81738.8
81742
81740.5
81744.2
3.55975e-07
1.74858e-07
9.32455e-09
6.92408e-10
6.35699e-10
1.43503e-09
5.82222e-10
1.21876e-09
6.22323e-10
2.29288e-11
2.1342e-11
2.40092e-11
1.04653e-10
1.08375e-09
1.27955e-08
1.79482e-07
3.83036e-06
0.00036477
81740.1
81739.9
81739.8
81740
81740
81740.1
81740.1
81740.2
81740.1
81740.2
81740
81740
81739.9
81739.8
81739.7
81739.5
81739.4
81739.3
81739.2
81739.1
81739
81738.9
81738.8
81738.7
81738.6
81738.4
81738.3
81738.1
81738.2
81738.2
81738.4
81738.8
81738.8
81740
81739.6
81739.8
81740.1
81740.7
81741.2
81741.3
81741.6
81741.6
81742.1
81741.8
81742.1
81741.7
81741.8
81741
81740.8
81739.7
81739.4
81738.2
81737.8
81736.6
81736.6
81736
81737.1
81737.2
81739.2
81739.1
81741.1
81739.5
2.96456e-06
1.26645e-05
1.97253e-07
1.97282e-08
1.52282e-08
3.08822e-08
1.39828e-08
2.61445e-08
1.33373e-08
2.34326e-09
1.42139e-09
1.38835e-09
3.45614e-09
1.01231e-08
2.18413e-07
3.05435e-06
2.73605e-05
0.000342307
0.0144651
81740.2
81739.9
81739.7
81739.8
81739.8
81739.9
81739.8
81739.9
81739.6
81739.8
81739.3
81739.4
81738.9
81739
81738.5
81738.7
81738.2
81738.4
81738
81738.2
81737.9
81738
81737.8
81737.8
81737.7
81737.6
81737.5
81737.4
81737.7
81738
81738.9
81739.3
81739.9
81739.2
81740.4
81740.9
81742.2
81741.8
81743.1
81742.2
81743.9
81742.7
81744.5
81742.7
81744.5
81742.2
81743.7
81740.8
81741.9
81738.8
81739.3
81736.5
81736.1
81734.5
81734.1
81734.1
81734.7
81736.1
81737.4
81737.2
81736.4
2.53183e-05
0.197205
3.7652e-06
4.19485e-07
2.24916e-07
4.79201e-07
2.58495e-07
4.53379e-07
2.29972e-07
1.32496e-07
2.10213e-08
3.22682e-08
9.67557e-08
3.6881e-07
3.30518e-06
3.50913e-05
0.000207382
0.000744934
0.0038889
0.0448067
3.15427
81739.7
81739.5
81739.7
81739.6
81739.6
81739.3
81739.5
81739
81739.1
81738.5
81738.7
81738.2
81738.4
81737.8
81738.1
81737.6
81737.9
81737.5
81737.7
81737.4
81737.5
81737.2
81737.3
81737.2
81737.1
81737.3
81737.8
81738.6
81738.9
81739.4
81739.8
81740.1
81741
81741.7
81742.8
81742.9
81743.8
81743.7
81744.8
81744.5
81745.4
81744.7
81745.3
81744.3
81744.2
81742.6
81741.9
81740
81738.6
81736.3
81734.7
81732.7
81731.6
81731.1
81731.5
81733
81734.4
81733.2
81731.8
0.000163386
81743.6
9.50075e-05
1.08598e-05
3.23593e-06
5.53446e-06
4.1439e-06
5.14125e-06
2.65414e-06
1.41326e-05
5.95368e-07
1.57573e-06
4.57683e-06
1.97129e-05
6.29146e-05
0.000234056
0.000790194
0.00167186
0.00342863
0.010627
0.0619336
0.80242
343.521
81739.4
81739.4
81739.3
81739.1
81738.8
81738.6
81738.4
81738.3
81738.3
81738.3
81738.3
81738.3
81738.3
81738.3
81738.2
81738.1
81737.8
81737.9
81737.5
81737.6
81737.4
81737.4
81737.8
81739
81739.3
81739.7
81739
81740.5
81740
81741.5
81740.6
81743.2
81742
81745
81742.9
81746.5
81743.7
81747.7
81744
81748.3
81743.7
81747.7
81742.3
81745.6
81739.9
81741.9
81736.5
81736.7
81732.7
81730.8
81729.3
81726.9
81728.5
81728.4
81729.5
81728.4
81726
0.000596493
0.126452
0.002953
0.000561554
5.85643e-05
4.93653e-05
5.17071e-05
4.49877e-05
2.24057e-05
0.00176316
4.9681e-05
0.000111194
0.000974545
81744.9
0.0137785
0.00282504
0.00253129
0.00312456
0.00419075
0.00706494
0.0174472
0.0689914
0.522205
10.9144
81738.9
81738.7
81738.5
81738.1
81738
81737.9
81738.2
81738.3
81738.7
81738.8
81739.2
81739.3
81739.5
81739.3
81739.2
81738.9
81738.6
81738.5
81738.4
81738.3
81738.9
81739.9
81740.1
81741.3
81740.8
81741.6
81740.7
81742
81740.5
81742.9
81741.6
81745.1
81743
81746.9
81743.8
81748.4
81744.3
81749.2
81744
81749.1
81742.7
81747.4
81740.3
81743.9
81736.9
81738.3
81732.8
81731.3
81728.4
81724.2
81724.9
81721.8
81723.8
81723
81722.4
81720.1
0.00128169
0.0704428
0.0304232
0.655549
0.00235655
0.000461001
0.000410991
0.000308304
0.000140822
0.000949556
81742.1
81742.1
81742.3
81743.2
81745.2
0.188091
0.0194573
0.00946313
0.00759065
0.0082239
0.0121554
0.0255619
0.0802223
0.410694
4.19154
216.907
81737.7
81737.5
81737.6
81737.9
81738.3
81738.7
81739.2
81739.6
81740.2
81740.6
81740.8
81740.8
81740.6
81740.2
81739.8
81739.7
81739.4
81740.3
81740.8
81741.2
81742
81742.9
81743.5
81742.4
81742.8
81741.4
81742.7
81741.6
81744.6
81743.5
81746.9
81744.7
81748.4
81745.2
81749.3
81745
81749.3
81743.8
81747.9
81741.1
81744.4
81737.4
81739.1
81732.7
81731.8
81727.5
81723.3
81722.3
81717.7
81718.9
81717.3
81718
81716.4
81715
0.00217556
0.052613
0.0368683
0.24157
81746.6
0.00749944
0.00250857
0.00150203
0.000676222
0.000817563
0.0557086
81740.9
81740.6
4654.1
81744.1
81747.6
0.685129
0.0727087
0.0267844
0.0171714
0.0160699
0.0210821
0.0386536
0.101126
0.395152
2.64581
39.6203
81737.3
81737.6
81738.3
81738.6
81739.3
81739.6
81740.5
81741
81741.6
81742
81741.9
81741.7
81741.2
81741.1
81740.8
81741.9
81741.8
81742.4
81742.7
81744.1
81744.8
81744.4
81744.1
81742.9
81743.2
81742.4
81744
81744
81746.5
81745.9
81748.2
81746.7
81749.2
81746.8
81749.1
81745.7
81747.8
81743.1
81744.5
81738.9
81739.2
81733.5
81731.9
81727.2
81723.2
81720.4
81715.8
81715.7
81713.7
81714.3
81713
81711.3
81709.5
0.0035846
0.051991
0.0335173
0.0265975
7.84811
0.527821
0.0172298
0.00566113
0.00245914
0.00136758
0.00365799
0.0273093
1.19508
81742
81744.5
81746.8
81750.5
3.31829
0.274419
0.0783993
0.0414876
0.0336779
0.0390021
0.0627076
0.139669
0.443793
2.1618
20.3383
690.498
81738.7
81739.3
81739.6
81740.3
81740.9
81741.6
81742.3
81742.5
81742.9
81742.5
81742.6
81742.6
81743.6
81743.4
81743.6
81743.8
81745
81745.5
81745.8
81745.2
81744.6
81743.9
81743.7
81743.7
81744.6
81745.5
81747
81747.5
81748.6
81748.5
81749.3
81748.6
81748.7
81747.2
81746.4
81744
81742.2
81738.8
81736.2
81731.9
81728.7
81723.6
81720.2
81715.3
81713.3
81711.4
81711.1
81710
81707.6
81705.3
81703.6
0.00615257
0.0730802
0.0397124
0.0164291
0.0591005
1.93239
0.14759
0.020241
0.00712618
0.00290067
0.00273637
0.00657455
0.0426266
1.28235
81745.1
716.896
48.5346
278.874
22.0454
1.27778
0.264257
0.112298
0.0775775
0.0782921
0.109784
0.210313
0.557326
2.15122
13.8724
200.703
81739.9
81740.1
81740.7
81741.1
81742
81742.3
81743.4
81743.4
81744.1
81744.7
81745.7
81745.5
81745
81745.4
81746.1
81746.5
81746.6
81746.1
81745.9
81744.7
81744.9
81743.8
81745.2
81744.7
81747.4
81746.7
81749.7
81748
81751.1
81748.2
81751.3
81747
81749.8
81744
81746
81739
81739.9
81732.3
81731.7
81724.3
81721.8
81715.8
81712.4
81709.5
81707.6
81706.3
81703.5
81700.5
81698.4
81698.6
0.0111235
0.138461
0.0587069
0.0171333
0.0252588
0.191838
0.754214
0.0767
0.018627
0.00650834
0.0037569
0.00461983
0.0125039
0.0870725
2.4296
14.7753
1.48083
0.812369
1.29669
3.15938
2.77447
0.87239
0.332464
0.195771
0.169791
0.205753
0.339515
0.763427
2.43235
12.0322
122.272
6371.74
81740.8
81741.9
81742.1
81743.5
81743.8
81745
81745.9
81746.9
81746.6
81746.9
81747.2
81747.5
81747.9
81747.6
81747.1
81746.8
81745.6
81745.7
81744.3
81745.5
81744.4
81746.9
81746
81749.4
81747.7
81751.4
81748.4
81752.3
81747.7
81751.4
81745.2
81748.4
81740.5
81742.8
81733.8
81734.7
81725.7
81724.6
81716.8
81713.8
81708.7
81705.6
81702.9
81699.5
81696.1
81693.2
81693.5
81696
0.0213089
0.314977
0.0959292
0.0223281
0.0221529
0.0832301
0.840501
0.299386
0.0492158
0.0147694
0.00667594
0.0053836
0.00840076
0.0271964
0.193574
0.920973
0.343267
0.137868
0.116855
0.183002
0.457471
1.25021
1.59015
0.903098
0.508157
0.3853
0.40404
0.576419
1.11732
3.02967
12.48
96.3866
2387.79
81742.5
81743.8
81744.3
81745.6
81746.5
81747.6
81747.6
81748.2
81749.2
81749.2
81749.4
81748.8
81748.1
81747.5
81746.4
81746.2
81744.9
81745.5
81744.3
81746.1
81745.2
81748.1
81747
81750.4
81748.3
81751.8
81748.3
81751.7
81746.5
81749.5
81742.4
81744.7
81736.1
81737.3
81728
81727.7
81718.9
81717
81710
81706.9
81702.2
81698.4
81694.1
81690.5
81689.5
81692.5
81697
0.0443014
0.746642
0.150829
0.0320442
0.0264425
0.0687494
0.582813
1.04973
0.140409
0.0345961
0.0135341
0.00835243
0.00889828
0.0173329
0.0606086
0.20386
0.151496
0.0617283
0.0383176
0.0391449
0.0618512
0.142349
0.424848
1.13752
1.52724
1.15066
0.85531
0.805167
1.01079
1.71791
4.07458
14.5951
94.2694
1745.53
81745.3
81746.4
81747.2
81747.9
81748
81749.1
81750.7
81750.6
81750.9
81749.8
81749.2
81748
81747.1
81746.4
81745.3
81745.2
81744.2
81745.1
81744.3
81746.4
81745.7
81748.6
81747.3
81750.4
81748
81751.1
81747.1
81749.9
81744
81746.1
81738.6
81739.8
81731
81731.2
81722.4
81721.3
81713.6
81711.3
81705.7
81702.1
81697.3
81692.8
81690.1
81690.9
81695.6
81701.9
0.104305
1.6211
0.209638
0.0475432
0.0374395
0.0807399
0.528913
2.96349
0.44827
0.0862029
0.0296742
0.0153337
0.0124125
0.0166827
0.0365256
0.0913792
0.0975264
0.0459985
0.0241464
0.0186162
0.0209252
0.0329075
0.0697809
0.18933
0.570441
1.35558
1.8237
1.68058
1.56733
1.80128
2.74372
5.83034
18.7759
108.221
1768.92
81748.1
81748.5
81748.6
81749.4
81751.3
81751.3
81751.8
81750.5
81749.8
81748.1
81747.3
81746
81745.2
81744.4
81743.7
81743.7
81743.2
81744.2
81744.1
81745.9
81745.7
81747.9
81747
81749.1
81747.1
81748.9
81745.4
81746.5
81741.4
81741.7
81735.2
81734.7
81727.6
81726.2
81719.7
81717.6
81712.6
81709.6
81705.6
81701.2
81697.4
81695.4
81697.1
81703.1
81709.7
0.292973
2.88913
0.261314
0.0713751
0.0596785
0.121731
0.689826
7.69223
1.64593
0.22933
0.0677042
0.0306039
0.0202626
0.0205508
0.0318875
0.0621293
0.0806576
0.0477819
0.0235089
0.0147999
0.0128637
0.0151063
0.0232181
0.0454305
0.109845
0.309512
0.87752
1.90677
2.66066
2.87026
3.2287
4.53733
8.81622
26.1596
140.521
2172.68
81749
81749.5
81751.1
81751.1
81751.5
81750.3
81749.6
81747.6
81746.6
81744.9
81744.2
81742.9
81742.4
81741.5
81741.5
81741.3
81741.9
81742.3
81743.4
81744
81745.2
81745.6
81746.4
81746.2
81746.2
81745.2
81744.2
81742.1
81739.9
81736.9
81734.1
81730.6
81727.7
81724.1
81721.8
81718.5
81716.7
81713
81710.2
81706.5
81705.3
81707
81713.1
81719.2
1.03852
3.81848
0.312001
0.10944
0.105584
0.228897
1.31161
26.2822
6.74058
0.603918
0.149239
0.0605286
0.0347863
0.0286311
0.0341873
0.0538418
0.0771253
0.0611715
0.0317563
0.0174351
0.012288
0.0113481
0.0134247
0.0198136
0.0357108
0.0772706
0.196571
0.559007
1.55239
3.31868
4.82581
5.83001
7.82271
14.116
39.236
201.81
3034.81
81749.6
81749.9
81749.9
81749.1
81748
81746.4
81745
81743.3
81742.2
81740.7
81740.1
81738.8
81738.8
81737.9
81738.7
81738.2
81739.9
81739.5
81741.9
81741.2
81743.9
81742.4
81745.1
81742.5
81745
81741
81743
81737.9
81739.5
81733.7
81735.1
81729.7
81731
81726.7
81727.8
81724.7
81724.2
81720.8
81718.6
81716.6
81718.6
81723.5
81729.7
4.89261
3.74891
0.378268
0.175758
0.209084
0.543614
3.8825
180.921
19.2622
1.21934
0.271576
0.104413
0.0558368
0.0402962
0.0399028
0.0527234
0.077539
0.0843249
0.054339
0.0286394
0.0170557
0.0127322
0.011958
0.0138309
0.0192674
0.0318279
0.0619453
0.142264
0.384949
1.17766
3.47686
7.46712
10.8194
14.385
24.2532
63.4634
315.465
4706.96
81747.3
81746.9
81745.7
81744.5
81742.8
81741.3
81739.7
81738.4
81737.2
81736
81735.5
81734.6
81734.9
81734.3
81735.5
81735.1
81737.2
81736.7
81739.5
81738.4
81741.5
81739.4
81742.7
81739.4
81742.7
81738.1
81741.3
81736
81739.2
81734.1
81737.3
81733.4
81736.5
81734.1
81735.8
81733.9
81732.7
81729.8
81728.7
81729.4
81734.2
81739.6
28.6854
3.19242
0.485027
0.304793
0.475677
1.71753
20.9309
645.027
13.7313
1.32938
0.338004
0.137919
0.07517
0.0520605
0.0463856
0.0538293
0.0769517
0.108127
0.102782
0.0622601
0.0336269
0.0207107
0.0156057
0.0143504
0.0157841
0.0203911
0.0306681
0.0539186
0.112783
0.288026
0.911377
3.36183
11.0051
21.7209
29.6679
45.9793
110.757
514.891
6952.41
81743.2
81742.3
81740.6
81739.3
81737.5
81736.3
81734.8
81733.7
81732.7
81731.9
81731.5
81731.1
81731.4
81731.4
81732.6
81732.8
81734.5
81734.5
81736.7
81736.2
81738.6
81737.3
81739.7
81737.5
81740
81737.1
81739.8
81736.9
81739.9
81738
81741.2
81740.7
81743.4
81743.3
81743.7
81742.1
81740.1
81738.4
81738.9
81744
81748.9
97.6058
2.79135
0.679469
0.590326
1.29718
7.85897
167.871
56.0954
4.13401
0.829208
0.284872
0.136305
0.0819004
0.0590599
0.0512834
0.055151
0.0744899
0.118604
0.173683
0.160653
0.0938705
0.0496806
0.0299146
0.0216973
0.0188251
0.0191637
0.0225808
0.03077
0.049185
0.0949538
0.230936
0.742772
3.23423
16.423
52.8539
76.5739
101.868
214.806
914.206
11310.1
81738.8
81737.7
81735.9
81734.7
81733.1
81732.2
81730.9
81730.2
81729.3
81729.1
81728.7
81728.9
81729.2
81729.9
81730.6
81731.4
81732.4
81733.4
81734.3
81735.1
81735.9
81736.4
81737
81737.3
81737.9
81738.4
81739.4
81740.5
81742.1
81744.2
81746.2
81748.6
81749.7
81750.4
81748.8
81747.2
81744.7
81746.3
81749.7
81756.8
71.8383
2.75011
1.07146
1.32619
4.43367
45.6417
83.2055
7.17035
1.3363
0.436327
0.19796
0.113121
0.0770693
0.0604395
0.0541464
0.0567443
0.0724319
0.115704
0.219798
0.37581
0.35584
0.188749
0.0899024
0.0494439
0.0328331
0.0259179
0.0238359
0.0253202
0.0312827
0.0459587
0.083269
0.195899
0.642891
3.24276
26.9527
213.851
360.823
331.676
540.548
1966.65
20621.5
81735.1
81733.7
81732.5
81731.4
81730.4
81729.5
81728.7
81728.1
81727.8
81727.7
81727.7
81728.2
81728.5
81729.4
81729.8
81731.2
81731.5
81733.2
81733.1
81735
81734.5
81736.5
81735.8
81738.2
81737.6
81740.6
81740.7
81744.4
81745.5
81749.4
81750.8
81753.3
81753
81752.2
81749.4
81747.6
81746.8
81752.7
81757.6
33.1661
3.17433
1.9562
3.57
17.5145
64.2274
10.7909
1.83264
0.560813
0.246812
0.137378
0.0911769
0.0697614
0.0598922
0.0568196
0.060153
0.0738824
0.111581
0.219469
0.560503
1.34775
1.30027
0.515649
0.192025
0.0890861
0.0516118
0.0359713
0.029421
0.0280949
0.0317163
0.0434684
0.075253
0.174289
0.590903
3.48146
55.8374
9769.54
13837.5
1392.14
1295.23
3794.85
33713.4
81732.8
81731.2
81730.9
81729.5
81729.3
81728.2
81728.2
81727.5
81727.8
81727.6
81728.2
81728.4
81729.3
81729.9
81730.9
81731.7
81732.6
81733.4
81734.1
81735
81735.6
81736.5
81737.3
81738.6
81740
81741.8
81744
81746.5
81749.3
81751.4
81753.2
81752.9
81751.6
81748.5
81745.5
81745.7
81749.2
81756.5
20.2154
4.37774
4.21742
11.0535
38.1706
14.9898
2.59582
0.725024
0.301147
0.162391
0.105221
0.0787194
0.0663853
0.0617973
0.0623713
0.0680339
0.0822082
0.116433
0.210568
0.547286
2.39163
13.9521
10.7689
1.79399
0.440791
0.16373
0.0805556
0.0487827
0.035308
0.0304766
0.0318454
0.0414005
0.0697121
0.161659
0.576048
4.09172
144.121
81738.4
81735.9
3385.86
2583.32
7209.84
64549.4
81731.9
81730.3
81730.4
81729.1
81729.3
81728.3
81728.7
81728.1
81728.8
81728.7
81729.8
81729.8
81731.3
81731.3
81733.2
81732.9
81735.1
81734.3
81736.8
81735.5
81738.4
81736.8
81740.3
81738.9
81743.1
81743.3
81747.2
81748.3
81751.5
81751.6
81752.2
81749.6
81746.8
81743
81741.9
81746.2
81751.3
17.4759
7.27697
10.4218
26.9568
19.7084
3.91929
1.0078
0.389268
0.200708
0.126552
0.0927383
0.0767174
0.0703044
0.0701975
0.0750828
0.0850845
0.103049
0.138938
0.225457
0.497549
1.88728
23.9851
57647.4
204.445
6.28169
1.01497
0.297365
0.121709
0.0634156
0.0407458
0.032173
0.0316199
0.0396501
0.0659983
0.155825
0.59446
4.96869
237.471
81737.4
81734.7
6618.99
5102.67
15016
81731.8
81731.9
81730.7
81730.8
81729.8
81730
81729.5
81729.9
81729.9
81730.6
81730.9
81732
81732.3
81733.9
81733.8
81735.9
81735.3
81737.8
81736.5
81739.3
81737.3
81740.7
81738.5
81743.1
81742.2
81745.1
81746.3
81748.8
81749.8
81751
81749.9
81747.9
81743.7
81740.1
81738.3
81740.9
81746.3
20.5053
14.1799
23.6172
24.5018
6.34588
1.52992
0.543493
0.265793
0.162767
0.117318
0.0959232
0.0869524
0.0859941
0.0915214
0.103306
0.121966
0.150057
0.196549
0.29039
0.532928
1.42447
7.80235
225.867
81741.7
8667.91
23.1611
2.35038
0.519323
0.173575
0.07797
0.0450423
0.0330783
0.0310885
0.0381996
0.0638318
0.155717
0.637484
6.0727
441.498
81737.1
81734.8
13142.2
10818.1
35343.6
81732.7
81732.7
81731.8
81731.8
81731.4
81731.4
81731.6
81731.9
81732.4
81733
81733.7
81734.7
81735.1
81736.6
81736.6
81738.5
81738.1
81739.9
81739
81741.1
81739.7
81742.8
81741.8
81743.9
81745.2
81746.8
81748.8
81750.6
81750.8
81750.3
81747.6
81744.2
81739.8
81738.1
81740.2
81744.1
30.3745
27.8807
28.877
10.3844
2.51695
0.822192
0.3774
0.223733
0.159372
0.130147
0.11833
0.117447
0.125385
0.142225
0.169343
0.20878
0.263512
0.341627
0.470455
0.737197
1.45357
4.21156
22.8868
363.608
81743.1
81744.1
93.4585
5.21883
0.838363
0.229554
0.0903474
0.0478106
0.0332344
0.0303566
0.037116
0.0631777
0.161278
0.718512
8.13263
1279.65
81737.5
81735.9
24967.2
24844.6
81734.6
81734.1
81733.6
81733.4
81733
81733.3
81733.2
81733.9
81734
81734.9
81735.3
81736.1
81737
81737.4
81738.7
81738.9
81739.7
81740.1
81740.4
81740.6
81741.6
81741.6
81744
81743.9
81744.4
81746.4
81748.2
81749.9
81750
81749
81746.2
81742.4
81738.5
81736.5
81738.1
81741.6
49.381
37.9357
16.452
4.29602
1.32625
0.570727
0.325817
0.229687
0.189121
0.175178
0.178034
0.194915
0.226484
0.2759
0.348629
0.451496
0.590242
0.769677
1.00917
1.38821
2.15287
4.15852
11.5939
56.5895
722.274
81744.8
81745
478.813
10.7159
1.23225
0.281332
0.099047
0.0489497
0.032785
0.0295985
0.0366041
0.0645466
0.175872
0.8784
12.7402
17608
81737.9
81737.4
40163.6
61199.8
81735
81735.2
81734.2
81734.7
81734
81734.7
81734.5
81735.3
81735.5
81736.3
81736.7
81737.4
81738.2
81738.7
81738.8
81739.4
81738.4
81739.6
81739.4
81740.7
81742.4
81743.8
81742.6
81743.6
81743.1
81746
81746.2
81747.7
81745.5
81743.8
81739.5
81736.5
81735.1
81735.8
81740
64.6537
26.9373
7.44608
2.21888
0.901829
0.495575
0.345832
0.28897
0.276588
0.293971
0.339245
0.417376
0.538567
0.718644
0.980707
1.35429
1.86116
2.4814
3.14558
3.84852
4.83834
6.88616
12.5772
33.6403
152.858
1867.3
81746
81745.2
4693.71
19.7983
1.6422
0.320338
0.103229
0.0486623
0.0320338
0.0291391
0.0371665
0.0693544
0.20715
1.21273
25.7836
81738.8
81737.4
81738
79106.6
81736.4
81734.9
81735.4
81734.4
81734.9
81734.6
81735
81735.3
81735.5
81736.1
81736.6
81737.2
81737.5
81737.1
81736.8
81736.5
81737.7
81738.5
81739
81739.5
81741.3
81740.2
81740.3
81739.9
81740.9
81742.2
81743.7
81744.1
81742.9
81740.8
81737.4
81734.9
81732.5
81734.3
81737
49.4818
13.3597
3.82155
1.46445
0.772282
0.533167
0.454333
0.454984
0.516344
0.646917
0.876758
1.26148
1.88976
2.89163
4.44965
6.80492
10.1569
14.2003
17.5151
18.6577
18.4636
19.3688
24.5971
42.2936
107.696
470.142
5782.06
81746.6
81745.2
81743.5
30.634
1.96164
0.339515
0.103136
0.0475719
0.0314996
0.0295138
0.0397028
0.0804042
0.272475
1.99459
70.6039
81738.2
81735.6
81737.6
81734.9
81735.5
81734.6
81734.6
81734.5
81734.4
81734.9
81735
81735.6
81735.7
81735.9
81736.1
81736.4
81736.7
81737.5
81736.5
81736.6
81736.3
81737.2
81737.1
81739
81737.5
81738.7
81737.7
81739.6
81739.7
81741.8
81741
81740.7
81737.9
81735.7
81732.1
81731.2
81731.2
81735.1
25.2807
6.78395
2.43609
1.22082
0.826454
0.716916
0.75767
0.93678
1.31601
2.05867
3.52963
6.52
12.679
25.1852
49.5521
94.3915
169.724
267.368
316.381
254.652
163.441
109.172
90.0178
100.456
160.509
388.708
1668.79
20864.8
81745.1
81743.9
81742.5
39.2093
2.1054
0.33915
0.100601
0.0467154
0.0318992
0.0315192
0.0458275
0.103716
0.416418
4.12372
337.841
81736.7
81734.3
81736.3
81734.7
81734.5
81734.7
81734.3
81734.9
81734.8
81735
81734.9
81735.1
81736
81736.7
81737.6
81737.4
81736.8
81736.4
81735.5
81736.2
81735.8
81737.1
81736.9
81737.7
81737.2
81738.2
81738
81739.3
81739
81739.1
81737.2
81735.5
81732.4
81730
81727.9
81728.6
81731.1
12.3606
4.12076
1.95009
1.27917
1.11598
1.24005
1.6902
2.74861
5.25212
11.7609
31.0734
97.8365
368.274
1635.73
8420.58
50288.8
81750.4
81748.7
81747.2
81745.8
11397.7
2220.26
814.259
498.32
477.585
699.873
1614.78
6864.67
67617.3
81743.8
81742.8
81742.4
42.0239
2.07894
0.328275
0.0985166
0.0473693
0.0341979
0.0365068
0.058897
0.153977
0.771519
11.787
14470.7
81734.5
81734.2
81735
81735.6
81734.7
81735.7
81734.7
81735.4
81735.6
81736.7
81736.8
81737.1
81737.7
81737.9
81737.4
81737
81736.6
81736.5
81736.7
81737
81737.4
81738.1
81738.1
81738.6
81738.5
81738.8
81738.5
81738.2
81736.7
81735
81732.2
81729.5
81726.4
81724.3
81724.7
81726.4
7.03444
3.11331
1.96358
1.70172
1.96042
2.92775
5.59856
13.8151
45.8364
226.153
2109.01
81757.6
81756.9
81755.8
81754.4
81752.6
81750.4
81748.5
81746.8
81745.6
81744.7
81743.9
57841.2
8285.01
3435.48
2709.18
3545.51
7686.73
29636.4
81743.2
81743.3
81741.7
81742
39.7059
1.97238
0.31938
0.100094
0.0511626
0.0400077
0.047276
0.0869642
0.272433
1.82339
55.3454
81736.7
81734.5
81736.8
81734.5
81736.5
81735
81737.4
81736.8
81737.3
81737.5
81738.3
81737.9
81738
81737.9
81737.6
81737.6
81737.8
81737.7
81738.6
81738.5
81739.8
81739.5
81740.8
81740.1
81741.2
81739.9
81740.4
81738.1
81737.3
81733.8
81731.4
81727.3
81724
81721.7
81719.9
81721.5
4.95468
2.95674
2.51489
2.96259
4.77122
10.6342
34.7665
195.514
2991.41
81759.1
81759.1
81758.6
81757.9
81756.7
81755.1
81753
81750.6
81748.4
81746.7
81745.7
81744.9
81744.6
81744.9
81746
81746.9
30283.4
18242.5
20280.9
38353.5
81743.7
81742.1
81742.1
81740.1
81739.8
35.6234
1.88853
0.325026
0.109347
0.0608655
0.0527301
0.0705792
0.152095
0.594697
5.81667
429.396
81737.9
81732.9
81739.8
81734
81739.1
81734.6
81738.1
81737.4
81737.8
81737.4
81737.4
81737.4
81737.3
81737.5
81737.7
81738
81739
81739
81740.7
81740.3
81742.4
81741.5
81743.5
81742
81743.4
81741
81741.1
81737.6
81735.8
81731.3
81727.7
81723.8
81718.1
81717
81715.5
4.39615
3.57433
4.21537
7.17853
18.2667
78.284
814.555
81758.5
81759.4
81760
81760
81759.6
81758.8
81757.5
81755.8
81753.6
81751
81748.6
81746.8
81745.7
81744.9
81744.9
81745.4
81745.9
81747.7
81747.4
81746.3
81745.1
81743.9
81742.9
81742
81741
81740
81739.1
81738.5
32.7213
1.92152
0.36107
0.133373
0.0825006
0.0807196
0.124876
0.323555
1.65089
26.0529
20001.6
81738.2
81726.9
81742.4
81728.7
81737.4
81734.8
81736.5
81735
81735.8
81735.2
81735.4
81735.6
81735.7
81736.3
81736.9
81737.6
81738.8
81739.2
81740.8
81740.7
81742.5
81741.9
81743.4
81742
81742.5
81739.9
81738.8
81734.9
81731.7
81727.3
81720
81717.2
81711.8
81712.9
4.97804
5.64408
9.77955
27.3504
147.753
2892.47
81757.1
81758.6
81759.8
81760.6
81760.9
81760.5
81759.6
81758.4
81756.6
81754.2
81751.5
81748.8
81747
81745.7
81745.2
81745
81745
81746.7
81747.3
81746.6
81745.7
81744.4
81743.5
81742
81741.4
81739.9
81739.6
81738.1
81738.2
81737.3
33.21
2.19001
0.456444
0.188094
0.13132
0.147374
0.268239
0.858361
6.06012
203.419
81723.8
81734.7
81716.2
81740.1
81728.1
81733.7
81730.6
81733.3
81731.2
81732.4
81731.7
81732.3
81732.7
81733.2
81734.2
81735
81735.8
81737
81737.4
81738.9
81738.9
81740.4
81739.7
81740.6
81739
81738.6
81735.6
81733.2
81729
81722.1
81718.4
81710.2
81709.5
81707.3
7.36266
12.2263
34.96
216.163
7046.42
81754.9
81756.7
81758.5
81760.1
81761.2
81761.5
81761.2
81760.4
81759.1
81757.3
81754.9
81752
81749.2
81746.7
81745.7
81744.9
81745.1
81745.4
81746.4
81746.6
81745.9
81744.8
81743.7
81742.3
81741.2
81740
81739.2
81737.9
81737.2
81736.5
81736.8
81737.5
39.6517
2.91294
0.678525
0.316178
0.252963
0.330809
0.723009
2.97668
32.8995
3455.22
81720.2
81729.4
81709.2
81736.1
81722
81729.1
81725
81728.9
81726.8
81728.4
81728.4
81729
81730.2
81730.7
81732
81732.8
81733.7
81734.8
81735.3
81736.6
81736.5
81737.7
81736.9
81737.3
81735.3
81733.7
81730
81724.3
81720.3
81711.5
81710.6
81706.6
9292.8
14.8557
39.8194
243.221
9162
81752.5
81754.1
81756
81758.2
81760.2
81761.5
81762
81761.7
81760.9
81759.7
81757.9
81755.6
81752.6
81749.4
81747.2
81745.6
81745.4
81744.6
81745.9
81746.1
81745.9
81745.1
81743.8
81742.6
81741
81740.2
81738.9
81108.6
58428.8
52732.6
72390.8
81740.8
81741.2
81740.9
57.0101
4.64586
1.22939
0.662503
0.620995
0.968563
2.64478
15.4755
363.197
81725.2
81709.8
81722.7
81698.3
81730.3
81716.6
81724.3
81721.3
81725.3
81724.7
81726.1
81726.9
81727.5
81728.9
81729.5
81730.8
81731.6
81732.4
81733.5
81734
81735.3
81735.5
81736.4
81735.6
81734.8
81732
81727.6
81723.6
81716.1
81715.3
81709.3
2067.27
227.71
44.3418
236.246
6879.1
81750.2
81751.6
81753.3
81755.4
81757.8
81760.1
81761.7
81762.3
81762.2
81761.3
81760.1
81758.4
81756.1
81753.1
81750
81747.1
81746
81745.1
81745.6
81745.8
81745.7
77349.4
63890.8
62107.3
69576.5
81739.6
81738.7
78308.2
56036.9
38308.3
29016.6
27614.6
40808.6
81737.1
81736.6
81736.9
102.498
9.48806
2.94938
1.92239
2.22376
4.45422
17.5018
208.796
59636.6
81718.9
81703.4
81718
81696.2
81731.4
81723.2
81726.4
81724.9
81726.4
81726.5
81727.2
81727.6
81728.4
81728.9
81729.8
81730.2
81731.2
81731.7
81732.8
81733.4
81734.5
81734.7
81734.6
81732.9
81729.7
81726
81720.3
81718.9
81713.2
2197.12
121.131
34.7688
231.224
4417.55
81748.6
81749.6
81750.9
81752.5
81754.7
81757.4
81759.9
81761.8
81762.6
81762.4
81761.6
81760.4
81758.6
81756.4
81753.6
81750.2
81747.8
81745.9
81745.2
81745.7
81745.4
81744.8
73806.8
54367.4
45790.4
44505.3
48529.5
54647.5
55605.8
46244.6
32685.3
22638
17624.6
17469.5
27416.9
81737.5
81737.2
81736.3
280.333
29.9002
11.8149
11.4772
22.0251
78.9889
726.851
81719.4
81706.4
81720.2
81723.6
81739.9
81724.2
81735.3
81734.3
81732.2
81729.9
81730.1
81728.7
81730
81728.8
81730.3
81729.4
81730.5
81730.1
81730.9
81731.3
81732
81732.6
81732.6
81731.9
81729
81725.8
81720.8
81718.6
81714.3
32497.7
264.48
36.3487
22.6275
3280.69
81748.6
81748.9
81749.5
81750.4
81751.8
81754
81756.8
81759.7
81761.7
81762.7
81762.6
81761.8
81760.5
81758.8
81756.7
81753.8
81750.7
81747.7
81746
81745.5
81745.3
81744.8
81744
81743
71817.6
53763.7
45925.7
44758
47850
51131.6
47977.7
36748.9
24571.7
16579.5
12813.3
12798.8
20655.7
81738.9
81730.4
81724.9
2147.76
273.356
311.695
81716.9
81716.3
81718.9
81714.1
81730.9
81767.6
81806
81892
81686
81743
81729.2
81731.1
81730.7
81729.3
81731.3
81729.8
81732.1
81730.7
81732.4
81731.5
81732.5
81732.6
81733.3
81734.1
81734.2
81734.2
81730.6
81726.9
81720.6
81717.3
81714
81713.2
6256.88
183.906
72.275
226.479
81749
81749
81749
81749.3
81749.9
81751.2
81753.3
81756.3
81759.3
81761.6
81762.7
81762.8
81762
81760.6
81758.8
81756.6
81754.2
81751
81748.4
81746
81745.7
81744.8
81744.1
81743.2
81742.1
81740.6
81739.3
73485.5
63030
61284.8
64068.9
64751.7
55369.1
37932.3
22902.3
14238.2
10291.9
9794.65
15610.2
70386.5
81714.5
81715.8
81713
81711.8
0.169521
0.00122047
0.000115575
3.0943e-05
1.74266e-05
2.02521e-05
6.98806e-05
81685
81697.6
81646.7
81711.7
81724.1
81725.7
81728.8
81728.2
81730.6
81730.9
81733.2
81734.1
81735.9
81737.5
81738.9
81741.3
81742
81743.9
81739.7
81733.7
81725.4
81724.2
81721.7
81719.2
81707.8
13629.4
3560.42
81692.2
81727.7
81749.3
81749.5
81749.4
81749.5
81749.9
81751
81753
81755.9
81759
81761.4
81762.7
81762.9
81762.1
81760.7
81758.6
81756.5
81753.9
81751.8
81748.6
81747.2
81745.5
81744.5
81743.4
81742.9
81741.5
81740.5
81739.3
81739.1
81738.7
81738.8
81738.5
81738.4
81737.6
81736.1
49771.6
24459.2
12547
7697.48
6540.21
9419.26
32341.9
81715.9
81708.6
81702
8.77582e-05
3.03466e-06
4.09401e-07
1.18044e-07
5.99249e-08
5.03009e-08
7.06953e-08
1.84013e-07
1.22324e-06
0.000218057
81633.3
81714.5
81726.3
81728.3
81728.7
81728.4
81729
81732
81734.6
81739.3
81742.2
81748
81750.1
81755.9
81751.6
81744.6
81736.1
81742.1
81744.1
81744.8
81729.8
81686.6
81669.9
81864
0.0169742
1.42042e-06
81750.1
81750.2
81750.1
81750
81750.2
81751
81752.7
81755.5
81758.6
81761.1
81762.6
81763
81762.3
81760.8
81758.6
81756.1
81754.2
81751.4
81749.3
81747.4
81745.6
81744.1
81743.4
81742.4
81741.5
81740.3
81739.9
81739.3
81739.6
81738.8
81738.8
81737
81735.9
81731.9
81729
75544.4
23545.7
8372.21
3946.39
2738.77
3306.91
12214.9
81688.5
0.0040003
2.88202e-06
1.40931e-07
2.10312e-08
6.10373e-09
2.98423e-09
2.35933e-09
3.00097e-09
6.22326e-09
2.24076e-08
1.70744e-07
4.68467e-06
81716.1
81729.2
81739.1
81738.6
81733.5
81731.1
81729.5
81734.5
81739.2
81749
81755
81765.3
81764.3
81760.2
81751.8
81762.2
81771.1
81784.6
81778.5
81745.4
81731.5
81890.1
4.93659e-05
2.41972e-07
2.29685e-08
81750.6
81750.9
81750.8
81750.7
81750.8
81751.3
81752.8
81755.2
81758.2
81760.8
81762.5
81763.1
81762.5
81761
81758.5
81756
81753.4
81751.5
81749.7
81747.5
81745.4
81744
81743.1
81742.1
81741.2
81740.7
81740.4
81740.4
81739.7
81739
81736.7
81735.3
81732.1
81730.2
81727.2
81727.9
74737.1
11118
2631.63
1037.2
838.63
3115.6
81690.9
5.1886e-05
2.76485e-07
1.71485e-08
2.66751e-09
7.39748e-10
3.35995e-10
2.51461e-10
3.10513e-10
6.03558e-10
1.72268e-09
6.82825e-09
3.5275e-08
2.21438e-07
2.00953e-06
0.000440194
81756.6
81755
81744.9
81738.9
81737.2
81745.4
81757.3
81773.1
81784.2
81788.5
81783.8
81787.2
81795.7
81815.6
81832
81815.7
0.032898
2.62537e-05
1.31395e-06
7.87489e-08
8.2443e-09
1.68741e-09
81751.3
81751.6
81751.8
81751.7
81751.6
81751.8
81752.8
81754.9
81757.7
81760.4
81762.2
81763.1
81762.6
81761
81758.5
81755.6
81753.3
81751.2