/*--------------------------------*- C++ -*----------------------------------*\
  =========                 |
  \\      /  F ield         | OpenFOAM: The Open Source CFD Toolbox
   \\    /   O peration     | Website:  https://openfoam.org
    \\  /    A nd           | Version:  7
     \\/     M anipulation  |
\*---------------------------------------------------------------------------*/
FoamFile
{
    version     2.0;
    format      ascii;
    class       surfaceScalarField;
    location    "20";
    object      phi;
}
// * * * * * * * * * * * * * * * * * * * * * * * * * * * * * * * * * * * * * //

dimensions      [0 3 -1 0 0 0 0];

internalField   nonuniform List<scalar> 
99520
(
-6.77163e-09
2.60821e-10
1.38738e-08
-4.49218e-09
5.08355e-09
-2.37708e-09
5.2479e-09
-1.26488e-09
6.25079e-09
1.12352e-10
5.98577e-09
-2.30447e-09
9.77982e-09
-5.52677e-10
5.61121e-09
-2.87599e-10
7.09792e-09
6.14476e-10
6.46092e-09
4.55282e-10
7.52219e-09
3.04256e-10
7.51402e-09
1.46634e-09
6.20091e-09
2.70735e-09
6.12198e-09
4.88843e-09
5.18192e-09
7.3241e-09
4.92732e-09
1.43424e-08
3.44671e-10
1.03589e-08
1.13464e-08
6.5553e-09
1.11666e-08
3.49354e-09
1.04247e-08
1.68213e-09
9.17434e-09
8.51465e-10
8.1936e-09
4.91123e-10
7.72327e-09
3.11698e-10
7.54237e-09
2.091e-10
7.46555e-09
1.45608e-10
7.42647e-09
1.03619e-10
7.40498e-09
7.4308e-11
7.39233e-09
5.30214e-11
7.38433e-09
3.70979e-11
7.37898e-09
2.48918e-11
7.37528e-09
1.53364e-11
7.37263e-09
7.73307e-12
7.37069e-09
1.59384e-12
7.36922e-09
-3.42033e-12
7.36812e-09
-7.57344e-12
7.36726e-09
-1.10356e-11
7.36658e-09
-1.39408e-11
7.36602e-09
-1.63782e-11
7.36557e-09
-1.84181e-11
7.3652e-09
-2.01216e-11
7.36488e-09
-2.15338e-11
7.36461e-09
-2.26914e-11
7.36437e-09
-2.36211e-11
7.36415e-09
-2.43402e-11
7.36396e-09
-2.48673e-11
7.36378e-09
-2.52113e-11
7.36362e-09
-2.53877e-11
7.36347e-09
-2.54299e-11
7.36332e-09
-2.53071e-11
7.36319e-09
-2.50595e-11
7.36306e-09
-2.46654e-11
7.36295e-09
-2.41462e-11
7.36287e-09
-2.35285e-11
7.36275e-09
-2.28297e-11
7.36266e-09
-2.20278e-11
7.36249e-09
-2.10951e-11
7.36254e-09
-2.01067e-11
7.36248e-09
-1.91069e-11
7.36242e-09
-1.81581e-11
7.36225e-09
-1.70302e-11
7.36227e-09
-1.60285e-11
7.3621e-09
-1.48451e-11
7.36218e-09
-1.38887e-11
7.36198e-09
-1.2707e-11
7.36212e-09
-1.18487e-11
7.3619e-09
-1.07738e-11
7.3621e-09
-1.01505e-11
7.36183e-09
-9.28386e-12
7.36209e-09
-8.91832e-12
7.3618e-09
-8.34775e-12
7.36209e-09
-8.28564e-12
7.36177e-09
-8.05326e-12
7.36204e-09
-8.18832e-12
7.36174e-09
-8.26216e-12
7.36197e-09
-8.42576e-12
7.36179e-09
-8.63576e-12
7.36177e-09
-8.56919e-12
7.3618e-09
-9.01476e-12
7.36151e-09
-8.6704e-12
7.36175e-09
7.36141e-09
-9.40356e-12
-3.92765e-09
-1.27568e-09
5.46416e-09
-2.90285e-09
4.05876e-09
-2.48782e-09
4.83287e-09
-2.1978e-09
5.96078e-09
-2.18659e-09
5.97456e-09
-1.18525e-09
8.77848e-09
-1.4976e-11
4.44094e-09
2.25498e-10
6.85745e-09
-5.86859e-10
7.27328e-09
3.71307e-10
6.56403e-09
1.43345e-09
6.45188e-09
1.98501e-09
5.64935e-09
3.06742e-09
5.03957e-09
4.42744e-09
3.82191e-09
4.6498e-09
4.70496e-09
5.63794e-09
-6.4352e-10
1.16235e-08
5.36073e-09
1.06561e-08
1.21338e-08
7.48092e-09
1.35998e-08
4.57348e-09
1.20817e-08
2.65996e-09
1.01071e-08
1.5831e-09
8.80008e-09
9.97563e-10
8.12786e-09
6.6386e-10
7.79923e-09
4.5944e-10
7.63088e-09
3.25719e-10
7.53872e-09
2.33459e-10
7.48463e-09
1.67087e-10
7.45077e-09
1.17731e-10
7.42844e-09
8.00266e-11
7.41307e-09
5.06088e-11
7.40216e-09
2.72065e-11
7.39417e-09
8.33113e-12
7.38823e-09
-7.12048e-12
7.38367e-09
-1.98841e-11
7.38017e-09
-3.05555e-11
7.37736e-09
-3.95054e-11
7.37512e-09
-4.70594e-11
7.37326e-09
-5.34134e-11
7.37174e-09
-5.8774e-11
7.37042e-09
-6.32484e-11
7.36931e-09
-6.69724e-11
7.3683e-09
-6.99974e-11
7.36743e-09
-7.24143e-11
7.36661e-09
-7.42426e-11
7.36589e-09
-7.55505e-11
7.36521e-09
-7.63681e-11
7.36458e-09
-7.67305e-11
7.36397e-09
-7.66506e-11
7.36341e-09
-7.61406e-11
7.36288e-09
-7.52117e-11
7.36242e-09
-7.39621e-11
7.36191e-09
-7.23051e-11
7.36146e-09
-7.04452e-11
7.36112e-09
-6.80003e-11
7.36091e-09
-6.55115e-11
7.36048e-09
-6.26842e-11
7.36016e-09
-5.98258e-11
7.35973e-09
-5.65722e-11
7.35949e-09
-5.33815e-11
7.35912e-09
-4.97595e-11
7.35897e-09
-4.63647e-11
7.35864e-09
-4.25196e-11
7.35858e-09
-3.9061e-11
7.35829e-09
-3.51303e-11
7.35833e-09
-3.1807e-11
7.35809e-09
-2.80299e-11
7.35822e-09
-2.50202e-11
7.35804e-09
-2.15855e-11
7.35825e-09
-1.9028e-11
7.35815e-09
-1.61829e-11
7.35839e-09
-1.4183e-11
7.3584e-09
-1.2091e-11
7.35864e-09
-1.04867e-11
7.35874e-09
-9.07544e-12
7.35891e-09
-7.80547e-12
7.35923e-09
-7.05074e-12
7.35914e-09
-5.94121e-12
7.35965e-09
-5.74638e-12
7.35964e-09
7.36023e-09
-5.13492e-12
-1.76782e-09
-1.84756e-09
2.33975e-09
-6.66484e-11
2.3576e-09
-3.39547e-09
8.16168e-09
-2.10644e-09
4.67176e-09
-2.2523e-09
6.12043e-09
-1.69127e-10
6.69531e-09
-1.94401e-10
4.46622e-09
2.93295e-10
6.36976e-09
-1.03896e-09
8.60554e-09
-1.73209e-11
5.54239e-09
1.1616e-09
5.27296e-09
2.02324e-09
4.78772e-09
3.08043e-09
3.98239e-09
3.94169e-09
2.96065e-09
5.03764e-09
3.60895e-09
4.82563e-09
-4.31624e-10
6.96534e-09
3.22087e-09
8.76567e-09
1.03334e-08
8.13776e-09
1.42276e-08
6.10718e-09
1.41122e-08
4.04283e-09
1.21713e-08
2.56334e-09
1.02795e-08
1.65273e-09
9.03843e-09
1.10719e-09
8.34474e-09
7.67586e-10
7.97048e-09
5.44504e-10
7.76182e-09
3.90539e-10
7.63865e-09
2.79787e-10
7.5616e-09
1.97364e-10
7.51089e-09
1.34393e-10
7.47613e-09
8.51484e-11
7.45144e-09
4.59898e-11
7.43344e-09
1.42914e-11
7.41998e-09
-1.16265e-11
7.40973e-09
-3.3137e-11
7.40175e-09
-5.10657e-11
7.39544e-09
-6.619e-11
7.39033e-09
-7.89094e-11
7.38616e-09
-8.97029e-11
7.38266e-09
-9.87655e-11
7.3797e-09
-1.06418e-10
7.37712e-09
-1.12745e-10
7.37487e-09
-1.17966e-10
7.37285e-09
-1.22107e-10
7.37103e-09
-1.25325e-10
7.36935e-09
-1.27636e-10
7.36781e-09
-1.29156e-10
7.36634e-09
-1.29876e-10
7.365e-09
-1.29872e-10
7.36372e-09
-1.29143e-10
7.36254e-09
-1.27833e-10
7.3614e-09
-1.25847e-10
7.36036e-09
-1.23198e-10
7.35951e-09
-1.20083e-10
7.35859e-09
-1.16538e-10
7.35769e-09
-1.12446e-10
7.35685e-09
-1.08037e-10
7.35605e-09
-1.03161e-10
7.35529e-09
-9.80707e-11
7.35461e-09
-9.25312e-11
7.35399e-09
-8.69046e-11
7.35346e-09
-8.0882e-11
7.35296e-09
-7.49252e-11
7.35259e-09
-6.8616e-11
7.35223e-09
-6.25466e-11
7.35203e-09
-5.62186e-11
7.35181e-09
-5.03155e-11
7.35178e-09
-4.42408e-11
7.3517e-09
-3.87431e-11
7.35188e-09
-3.32001e-11
7.35192e-09
-2.83401e-11
7.35229e-09
-2.35746e-11
7.35246e-09
-1.94441e-11
7.353e-09
-1.56e-11
7.35329e-09
-1.2221e-11
7.35397e-09
-9.2423e-12
7.35438e-09
-6.54304e-12
7.35508e-09
-4.05659e-12
7.35574e-09
-2.086e-12
7.3564e-09
7.35715e-09
-7.8035e-13
-8.34769e-10
-1.39973e-09
3.86978e-10
-1.3703e-09
2.89314e-09
-1.4322e-09
8.22362e-09
-4.46309e-11
3.28421e-09
-6.66742e-12
6.08245e-09
1.59843e-11
6.67265e-09
-9.44203e-12
4.49164e-09
-6.41757e-11
6.42448e-09
-2.95794e-09
1.14993e-08
-1.82626e-10
2.76708e-09
1.04206e-10
4.98614e-09
7.44271e-10
4.14766e-09
2.30558e-09
2.42108e-09
2.94763e-09
2.31853e-09
3.68461e-09
2.87185e-09
2.95837e-09
2.94479e-10
3.95062e-09
2.22847e-09
6.16241e-09
8.12142e-09
7.1595e-09
1.32304e-08
6.41406e-09
1.48576e-08
4.81852e-09
1.37668e-08
3.29648e-09
1.18015e-08
2.20125e-09
1.01336e-08
1.49336e-09
9.05261e-09
1.03993e-09
8.4239e-09
7.39345e-10
8.06244e-09
5.31055e-10
7.84697e-09
3.80692e-10
7.71198e-09
2.68404e-10
7.6232e-09
1.82218e-10
7.56232e-09
1.14596e-10
7.51909e-09
6.05524e-11
7.48753e-09
1.66979e-11
7.46389e-09
-1.93509e-11
7.44586e-09
-4.92993e-11
7.43177e-09
-7.43942e-11
7.42063e-09
-9.55527e-11
7.41158e-09
-1.13455e-10
7.40418e-09
-1.2862e-10
7.39795e-09
-1.41442e-10
7.39269e-09
-1.52234e-10
7.38808e-09
-1.61226e-10
7.38408e-09
-1.68611e-10
7.38045e-09
-1.74528e-10
7.3772e-09
-1.79105e-10
7.37417e-09
-1.82454e-10
7.37138e-09
-1.84597e-10
7.36879e-09
-1.8567e-10
7.36637e-09
-1.85691e-10
7.36408e-09
-1.84735e-10
7.36189e-09
-1.8288e-10
7.35996e-09
-1.79985e-10
7.35819e-09
-1.76484e-10
7.35636e-09
-1.72175e-10
7.35468e-09
-1.67206e-10
7.35305e-09
-1.61511e-10
7.35158e-09
-1.55299e-10
7.35013e-09
-1.48453e-10
7.34888e-09
-1.41239e-10
7.34763e-09
-1.33453e-10
7.34663e-09
-1.25464e-10
7.34559e-09
-1.16974e-10
7.34486e-09
-1.08476e-10
7.34406e-09
-9.95499e-11
7.34362e-09
-9.08466e-11
7.34306e-09
-8.18075e-11
7.34293e-09
-7.32403e-11
7.34261e-09
-6.44364e-11
7.34279e-09
-5.6331e-11
7.34276e-09
-4.81209e-11
7.34323e-09
-4.07674e-11
7.34349e-09
-3.34769e-11
7.3442e-09
-2.70415e-11
7.3448e-09
-2.08934e-11
7.3457e-09
-1.54268e-11
7.34666e-09
-1.0561e-11
7.34772e-09
-5.88265e-12
7.34905e-09
-1.90977e-12
7.35018e-09
1.72336e-12
7.35165e-09
7.35295e-09
4.16875e-12
-1.16023e-09
-6.01539e-10
3.62024e-10
-6.0396e-10
2.33685e-09
1.34601e-09
6.27364e-09
1.05417e-09
3.57607e-09
9.94071e-10
6.14252e-09
9.0944e-10
6.75729e-09
3.82285e-10
5.01877e-09
-7.67535e-10
7.57432e-09
-7.37793e-10
1.14696e-08
-4.74369e-11
2.07675e-09
8.27614e-12
4.93038e-09
1.99766e-11
4.13597e-09
9.33016e-10
1.50794e-09
1.34641e-09
1.90498e-09
2.47597e-09
1.74216e-09
2.30304e-09
4.67276e-10
2.56257e-09
1.96877e-09
4.19393e-09
6.48988e-09
5.73143e-09
1.16927e-08
5.97341e-09
1.46155e-08
5.06311e-09
1.4677e-08
3.76199e-09
1.31026e-08
2.62542e-09
1.12701e-08
1.8118e-09
9.86617e-09
1.26758e-09
8.96811e-09
9.0197e-10
8.42803e-09
6.47842e-10
8.10112e-09
4.64016e-10
7.89575e-09
3.26347e-10
7.76087e-09
2.20158e-10
7.66843e-09
1.36471e-10
7.60285e-09
6.91383e-11
7.55482e-09
1.42875e-11
7.51888e-09
-3.11262e-11
7.49126e-09
-6.89349e-11
7.46975e-09
-1.00849e-10
7.45254e-09
-1.27756e-10
7.43867e-09
-1.507e-10
7.42716e-09
-1.70097e-10
7.41757e-09
-1.8664e-10
7.40931e-09
-2.00499e-10
7.40221e-09
-2.12161e-10
7.39587e-09
-2.21674e-10
7.39026e-09
-2.29389e-10
7.38505e-09
-2.35296e-10
7.38037e-09
-2.39615e-10
7.37596e-09
-2.42397e-10
7.37191e-09
-2.43776e-10
7.36807e-09
-2.4382e-10
7.36448e-09
-2.4242e-10
7.36123e-09
-2.39923e-10
7.35806e-09
-2.36366e-10
7.355e-09
-2.31726e-10
7.35214e-09
-2.26146e-10
7.34942e-09
-2.19565e-10
7.3469e-09
-2.12203e-10
7.34452e-09
-2.03955e-10
7.34232e-09
-1.95109e-10
7.34028e-09
-1.85483e-10
7.33844e-09
-1.75447e-10
7.33677e-09
-1.6473e-10
7.3353e-09
-1.53822e-10
7.33403e-09
-1.4234e-10
7.33295e-09
-1.30914e-10
7.33211e-09
-1.19037e-10
7.33144e-09
-1.0749e-10
7.33104e-09
-9.56399e-11
7.33078e-09
-8.43833e-11
7.33086e-09
-7.29953e-11
7.33101e-09
-6.24256e-11
7.33157e-09
-5.19264e-11
7.33212e-09
-4.23606e-11
7.33316e-09
-3.30927e-11
7.33411e-09
-2.47191e-11
7.33561e-09
-1.68817e-11
7.33693e-09
-9.81935e-12
7.33894e-09
-3.34402e-12
7.34072e-09
2.61472e-12
7.34286e-09
7.69714e-12
7.34508e-09
7.34748e-09
1.18362e-11
-1.51228e-09
2.13659e-10
6.9709e-10
-1.02928e-09
1.85381e-09
9.54198e-10
4.29016e-09
8.28877e-10
3.70134e-09
1.14896e-09
5.82242e-09
1.32628e-09
6.57994e-09
8.59941e-10
5.48509e-09
7.27041e-10
7.70716e-09
1.34226e-09
1.08543e-08
-1.1923e-10
3.53818e-09
-5.47418e-10
5.35851e-09
-8.40972e-10
4.42944e-09
-9.31415e-10
1.59832e-09
1.51535e-10
8.21917e-10
1.36548e-09
5.28075e-10
1.52985e-09
3.02752e-10
1.7658e-09
1.73263e-09
2.87747e-09
5.37802e-09
4.3833e-09
1.01867e-08
5.178e-09
1.38206e-08
4.90146e-09
1.49535e-08
3.96227e-09
1.40417e-08
2.91417e-09
1.23182e-08
2.06028e-09
1.072e-08
1.45127e-09
9.57707e-09
1.03225e-09
8.84703e-09
7.3951e-10
8.39381e-09
5.27885e-10
8.10736e-09
3.69228e-10
7.91942e-09
2.4664e-10
7.79105e-09
1.49423e-10
7.70001e-09
7.09125e-11
7.63344e-09
6.3811e-12
7.58339e-09
-4.71835e-11
7.54497e-09
-9.22304e-11
7.51479e-09
-1.30249e-10
7.49072e-09
-1.62654e-10
7.4711e-09
-1.90201e-10
7.4549e-09
-2.13769e-10
7.44121e-09
-2.33741e-10
7.42951e-09
-2.50695e-10
7.4193e-09
-2.64831e-10
7.41026e-09
-2.76558e-10
7.40207e-09
-2.85864e-10
7.39471e-09
-2.93136e-10
7.38782e-09
-2.9833e-10
7.38155e-09
-3.01714e-10
7.37552e-09
-3.0332e-10
7.37009e-09
-3.03115e-10
7.36495e-09
-3.01468e-10
7.36001e-09
-2.98341e-10
7.35531e-09
-2.93823e-10
7.35088e-09
-2.87985e-10
7.34669e-09
-2.80923e-10
7.34273e-09
-2.72673e-10
7.33906e-09
-2.63389e-10
7.33557e-09
-2.53065e-10
7.33242e-09
-2.4191e-10
7.32942e-09
-2.29864e-10
7.32682e-09
-2.17201e-10
7.32434e-09
-2.03796e-10
7.32233e-09
-1.90018e-10
7.32038e-09
-1.7565e-10
7.31901e-09
-1.61191e-10
7.3176e-09
-1.46307e-10
7.31689e-09
-1.31651e-10
7.31603e-09
-1.16744e-10
7.31603e-09
-1.02389e-10
7.31574e-09
-8.79801e-11
7.31642e-09
-7.44084e-11
7.31672e-09
-6.10061e-11
7.31806e-09
-4.8609e-11
7.31899e-09
-3.66392e-11
7.32093e-09
-2.56802e-11
7.32256e-09
-1.55459e-11
7.32503e-09
-6.01642e-12
7.32737e-09
2.49959e-12
7.33014e-09
1.05979e-11
7.33347e-09
1.73378e-11
7.33667e-09
7.34044e-09
2.31941e-11
-1.43675e-09
8.69527e-10
7.80834e-10
-1.27812e-09
1.69515e-09
-1.64397e-10
3.17644e-09
-1.64406e-13
3.53709e-09
5.89105e-10
5.23312e-09
1.12281e-09
6.04622e-09
6.97793e-10
5.91006e-09
8.70319e-10
7.53456e-09
2.31538e-09
9.40924e-09
5.63575e-10
5.28996e-09
3.00985e-10
5.62105e-09
3.94656e-10
4.33573e-09
2.15194e-10
1.77774e-09
5.08674e-10
5.28316e-10
9.68789e-10
6.78274e-11
1.0939e-09
1.77486e-10
1.27639e-09
1.54997e-09
2.03631e-09
4.6179e-09
3.29864e-09
8.92421e-09
4.29798e-09
1.28211e-08
4.48087e-09
1.47704e-08
3.92714e-09
1.45953e-08
3.05846e-09
1.31868e-08
2.23177e-09
1.15467e-08
1.59029e-09
1.02185e-08
1.13144e-09
9.30583e-09
8.07051e-10
8.71817e-09
5.724e-10
8.34195e-09
3.96784e-10
8.09501e-09
2.60937e-10
7.92687e-09
1.5292e-10
7.80804e-09
6.51547e-11
7.72121e-09
-7.34929e-12
7.65594e-09
-6.80156e-11
7.60567e-09
-1.19263e-10
7.56612e-09
-1.62866e-10
7.53439e-09
-2.00134e-10
7.50848e-09
-2.32059e-10
7.48693e-09
-2.59392e-10
7.46869e-09
-2.82717e-10
7.453e-09
-3.02514e-10
7.43925e-09
-3.19158e-10
7.42698e-09
-3.32788e-10
7.41599e-09
-3.4381e-10
7.40585e-09
-3.52178e-10
7.39665e-09
-3.58397e-10
7.38786e-09
-3.62034e-10
7.37997e-09
-3.63795e-10
7.37232e-09
-3.63526e-10
7.36512e-09
-3.61412e-10
7.35828e-09
-3.57501e-10
7.35181e-09
-3.51886e-10
7.34569e-09
-3.44717e-10
7.33989e-09
-3.35991e-10
7.33447e-09
-3.25956e-10
7.32933e-09
-3.14505e-10
7.32463e-09
-3.02008e-10
7.32016e-09
-2.8824e-10
7.31621e-09
-2.73715e-10
7.31245e-09
-2.5805e-10
7.3093e-09
-2.4195e-10
7.30627e-09
-2.24837e-10
7.30397e-09
-2.0767e-10
7.30168e-09
-1.89599e-10
7.30027e-09
-1.7191e-10
7.29874e-09
-1.53436e-10
7.29825e-09
-1.3581e-10
7.2975e-09
-1.17537e-10
7.29794e-09
-1.00541e-10
7.29798e-09
-8.31063e-11
7.29933e-09
-6.72379e-11
7.30021e-09
-5.12389e-11
7.3024e-09
-3.68426e-11
7.3042e-09
-2.28039e-11
7.30715e-09
-9.97962e-12
7.30994e-09
1.7771e-12
7.31342e-09
1.28509e-11
7.31749e-09
2.27946e-11
7.32169e-09
3.17159e-11
7.32658e-09
7.3316e-09
3.90295e-11
-1.16543e-09
1.34079e-09
6.94153e-10
-1.11947e-09
1.64916e-09
-5.51609e-10
2.60855e-09
-3.84889e-10
3.37036e-09
1.66907e-10
4.6813e-09
6.37404e-10
5.57569e-09
5.05259e-10
6.04216e-09
8.00593e-10
7.23917e-09
1.95715e-09
8.25268e-09
1.07646e-09
6.17065e-09
1.22327e-09
5.47421e-09
1.46249e-09
4.09648e-09
1.15128e-09
2.08889e-09
9.6167e-10
7.17841e-10
9.37808e-10
9.1576e-11
9.01938e-10
2.13218e-10
9.97256e-10
1.45448e-09
1.51073e-09
4.10422e-09
2.49541e-09
7.93934e-09
3.48877e-09
1.18276e-08
3.94252e-09
1.43166e-08
3.71849e-09
1.48193e-08
3.06718e-09
1.38381e-08
2.32169e-09
1.22921e-08
1.68229e-09
1.08579e-08
1.20005e-09
9.78803e-09
8.51621e-10
9.06655e-09
5.98379e-10
8.59515e-09
4.09068e-10
8.28428e-09
2.62734e-10
8.07318e-09
1.46175e-10
7.9246e-09
5.10614e-11
7.81633e-09
-2.7967e-11
7.735e-09
-9.453e-11
7.67227e-09
-1.51127e-10
7.62277e-09
-1.99597e-10
7.58293e-09
-2.41259e-10
7.55023e-09
-2.77141e-10
7.52291e-09
-3.07986e-10
7.49967e-09
-3.34441e-10
7.47955e-09
-3.56984e-10
7.46183e-09
-3.75843e-10
7.44607e-09
-3.91488e-10
7.43169e-09
-4.03855e-10
7.41868e-09
-4.13605e-10
7.40638e-09
-4.20191e-10
7.39527e-09
-4.2451e-10
7.38457e-09
-4.26284e-10
7.37454e-09
-4.2579e-10
7.36499e-09
-4.23049e-10
7.35597e-09
-4.18209e-10
7.3474e-09
-4.11392e-10
7.33927e-09
-4.02655e-10
7.33162e-09
-3.92221e-10
7.32437e-09
-3.8004e-10
7.31766e-09
-3.66449e-10
7.31132e-09
-3.51292e-10
7.30557e-09
-3.35039e-10
7.30016e-09
-3.17391e-10
7.29544e-09
-2.98992e-10
7.29101e-09
-2.79364e-10
7.28737e-09
-2.59388e-10
7.28395e-09
-2.3833e-10
7.28144e-09
-2.17387e-10
7.27903e-09
-1.95504e-10
7.27769e-09
-1.74264e-10
7.27632e-09
-1.52225e-10
7.27619e-09
-1.31359e-10
7.27586e-09
-1.09882e-10
7.27692e-09
-9.00311e-11
7.27766e-09
-6.98285e-11
7.27986e-09
-5.14951e-11
7.28175e-09
-3.32012e-11
7.28501e-09
-1.66681e-11
7.28814e-09
-8.37978e-13
7.29237e-09
1.35757e-11
7.29695e-09
2.71013e-11
7.30208e-09
3.95932e-11
7.30805e-09
5.04218e-11
7.31425e-09
7.32109e-09
5.95777e-11
-9.16302e-10
1.70856e-09
5.48496e-10
-9.44482e-10
1.67731e-09
-6.59386e-10
2.32342e-09
-4.32076e-10
3.14303e-09
-1.57236e-11
4.26492e-09
3.55822e-10
5.20412e-09
4.68756e-10
5.92919e-09
8.28555e-10
6.87933e-09
1.60097e-09
7.48025e-09
1.43836e-09
6.33324e-09
1.57898e-09
5.33356e-09
1.70752e-09
3.96793e-09
1.48621e-09
2.31014e-09
1.20757e-09
9.96431e-10
1.00034e-09
2.98689e-10
8.49006e-10
3.64431e-10
8.50397e-10
1.4529e-09
1.18205e-09
3.77236e-09
1.92225e-09
7.19892e-09
2.80936e-09
1.09403e-08
3.38546e-09
1.37403e-08
3.40449e-09
1.48001e-08
2.96511e-09
1.42774e-08
2.33288e-09
1.29243e-08
1.72594e-09
1.14648e-08
1.23788e-09
1.0276e-08
8.73843e-10
9.43055e-09
6.06241e-10
8.86267e-09
4.05936e-10
8.48456e-09
2.51214e-10
8.22783e-09
1.27909e-10
8.0479e-09
2.69552e-11
7.91724e-09
-5.73423e-11
7.81933e-09
-1.28809e-10
7.74371e-09
-1.89959e-10
7.68399e-09
-2.42703e-10
7.63567e-09
-2.88294e-10
7.59591e-09
-3.27797e-10
7.56246e-09
-3.61925e-10
7.53386e-09
-3.91333e-10
7.50898e-09
-4.16359e-10
7.48701e-09
-4.37521e-10
7.46723e-09
-4.54788e-10
7.44936e-09
-4.68883e-10
7.43271e-09
-4.79263e-10
7.41754e-09
-4.8686e-10
7.4031e-09
-4.91424e-10
7.38955e-09
-4.93237e-10
7.37669e-09
-4.92322e-10
7.3645e-09
-4.88865e-10
7.35291e-09
-4.82972e-10
7.3419e-09
-4.74744e-10
7.33149e-09
-4.64377e-10
7.32162e-09
-4.5189e-10
7.31237e-09
-4.37576e-10
7.30365e-09
-4.21358e-10
7.29562e-09
-4.03645e-10
7.28811e-09
-3.84253e-10
7.28135e-09
-3.63727e-10
7.2751e-09
-3.41737e-10
7.26968e-09
-3.19023e-10
7.26475e-09
-2.95057e-10
7.26072e-09
-2.70837e-10
7.25713e-09
-2.45558e-10
7.25456e-09
-2.20561e-10
7.25233e-09
-1.94705e-10
7.25123e-09
-1.69708e-10
7.25038e-09
-1.44061e-10
7.25076e-09
-1.19827e-10
7.25131e-09
-9.52069e-11
7.25314e-09
-7.24133e-11
7.25514e-09
-4.95896e-11
7.25836e-09
-2.8751e-11
7.26187e-09
-8.41619e-12
7.26644e-09
1.0171e-11
7.27159e-09
2.7729e-11
7.27749e-09
4.41857e-11
7.28435e-09
5.91272e-11
7.29165e-09
7.22527e-11
7.29977e-09
7.30843e-09
8.32547e-11
-7.25772e-10
2.03766e-09
3.9663e-10
-8.23034e-10
1.77454e-09
-6.88167e-10
2.18853e-09
-4.80719e-10
2.93556e-09
-1.38004e-10
3.92218e-09
2.0698e-10
4.85911e-09
4.64181e-10
5.67195e-09
8.73743e-10
6.46973e-09
1.47172e-09
6.88226e-09
1.61609e-09
6.18885e-09
1.73992e-09
5.20975e-09
1.7898e-09
3.91801e-09
1.62894e-09
2.47101e-09
1.36104e-09
1.26424e-09
1.08983e-09
5.69842e-10
8.68399e-10
5.85693e-10
7.88514e-10
1.53263e-09
9.79774e-10
3.58087e-09
1.51884e-09
6.65962e-09
2.26328e-09
1.01956e-08
2.86238e-09
1.31411e-08
3.03913e-09
1.46233e-08
2.78129e-09
1.45351e-08
2.27357e-09
1.3432e-08
1.72135e-09
1.20169e-08
1.24407e-09
1.07533e-08
8.73268e-10
9.80123e-09
5.9564e-10
9.14029e-09
3.86543e-10
8.69352e-09
2.25048e-10
8.38934e-09
9.61807e-11
8.17663e-09
-9.46146e-12
8.02293e-09
-9.8158e-11
7.9079e-09
-1.73657e-10
7.81929e-09
-2.3884e-10
7.74906e-09
-2.95274e-10
7.69222e-09
-3.44531e-10
7.64508e-09
-3.87353e-10
7.60532e-09
-4.2457e-10
7.57113e-09
-4.56728e-10
7.54117e-09
-4.84268e-10
7.5146e-09
-5.07402e-10
7.4906e-09
-5.26665e-10
7.46861e-09
-5.41776e-10
7.44841e-09
-5.53445e-10
7.42945e-09
-5.61621e-10
7.41161e-09
-5.66488e-10
7.39475e-09
-5.68155e-10
7.37872e-09
-5.66766e-10
7.3635e-09
-5.62459e-10
7.34898e-09
-5.55349e-10
7.33521e-09
-5.45611e-10
7.32212e-09
-5.33333e-10
7.30977e-09
-5.18737e-10
7.29812e-09
-5.01876e-10
7.28724e-09
-4.8303e-10
7.27709e-09
-4.62211e-10
7.26775e-09
-4.39766e-10
7.25919e-09
-4.15644e-10
7.25147e-09
-3.90286e-10
7.24458e-09
-3.6356e-10
7.23855e-09
-3.36032e-10
7.23338e-09
-3.07446e-10
7.22911e-09
-2.78533e-10
7.2257e-09
-2.48896e-10
7.22319e-09
-2.19449e-10
7.22159e-09
-1.89625e-10
7.22086e-09
-1.60518e-10
7.22107e-09
-1.31407e-10
7.22211e-09
-1.0349e-10
7.22415e-09
-7.59633e-11
7.22695e-09
-4.99763e-11
7.23081e-09
-2.48183e-11
7.23538e-09
-1.29773e-12
7.24109e-09
2.09403e-11
7.2475e-09
4.18653e-11
7.25511e-09
6.12997e-11
7.26335e-09
7.92645e-11
7.27271e-09
9.47267e-11
7.28263e-09
7.29357e-09
1.08036e-10
-5.64304e-10
2.35362e-09
2.48278e-10
-7.12307e-10
1.9225e-09
-6.73836e-10
2.15002e-09
-5.14108e-10
2.77579e-09
-2.2935e-10
3.63739e-09
1.00661e-10
4.52907e-09
4.29606e-10
5.34297e-09
8.64205e-10
6.0351e-09
1.39551e-09
6.35092e-09
1.67538e-09
5.90899e-09
1.83814e-09
5.04698e-09
1.87327e-09
3.88291e-09
1.73396e-09
2.61026e-09
1.47653e-09
1.52163e-09
1.18153e-09
8.64731e-10
9.19298e-10
8.47797e-10
7.76826e-10
1.67491e-09
8.58519e-10
3.49896e-09
1.2347e-09
6.28321e-09
1.83187e-09
9.59823e-09
2.3944e-09
1.25784e-08
2.65818e-09
1.43594e-08
2.54174e-09
1.46515e-08
2.1541e-09
1.38195e-08
1.66985e-09
1.25011e-08
1.21723e-09
1.12058e-08
8.48604e-10
1.01698e-08
5.65346e-10
9.42342e-09
3.49772e-10
8.90905e-09
1.82603e-10
8.55638e-09
4.92123e-11
8.31e-09
-6.04937e-11
8.13252e-09
-1.52797e-10
8.0002e-09
-2.31961e-10
7.89836e-09
-3.00529e-10
7.81765e-09
-3.60497e-10
7.75207e-09
-4.13018e-10
7.69754e-09
-4.58985e-10
7.65133e-09
-4.99203e-10
7.61124e-09
-5.33957e-10
7.57614e-09
-5.63921e-10
7.5445e-09
-5.89171e-10
7.51599e-09
-6.09994e-10
7.48969e-09
-6.26584e-10
7.4653e-09
-6.3926e-10
7.44232e-09
-6.47994e-10
7.4207e-09
-6.53073e-10
7.4001e-09
-6.54511e-10
7.38055e-09
-6.52544e-10
7.36186e-09
-6.47237e-10
7.34408e-09
-6.38785e-10
7.32712e-09
-6.2731e-10
7.31103e-09
-6.12975e-10
7.29581e-09
-5.95961e-10
7.28146e-09
-5.76403e-10
7.26805e-09
-5.54534e-10
7.25555e-09
-5.30464e-10
7.24407e-09
-5.04477e-10
7.23351e-09
-4.7665e-10
7.22406e-09
-4.47331e-10
7.21554e-09
-4.16547e-10
7.20823e-09
-3.84732e-10
7.20181e-09
-3.51838e-10
7.1967e-09
-3.18423e-10
7.19241e-09
-2.84323e-10
7.18955e-09
-2.50259e-10
7.1874e-09
-2.15916e-10
7.18681e-09
-1.82186e-10
7.18681e-09
-1.48597e-10
7.18849e-09
-1.16156e-10
7.19066e-09
-8.42889e-11
7.19456e-09
-5.4005e-11
7.19894e-09
-2.47124e-11
7.20501e-09
2.75706e-12
7.2117e-09
2.90283e-11
7.2199e-09
5.34463e-11
7.22893e-09
7.66609e-11
7.23929e-09
9.75335e-11
7.25042e-09
1.1604e-10
7.26273e-09
7.27601e-09
1.31813e-10
-4.15478e-10
2.66708e-09
1.01978e-10
-5.97451e-10
2.10444e-09
-6.21291e-10
2.17382e-09
-5.10616e-10
2.66508e-09
-2.78365e-10
3.40511e-09
2.91019e-11
4.22157e-09
3.83929e-10
4.98811e-09
8.20783e-10
5.59822e-09
1.30987e-09
5.8618e-09
1.65294e-09
5.56591e-09
1.85568e-09
4.84422e-09
1.90424e-09
3.83436e-09
1.78766e-09
2.72679e-09
1.54911e-09
1.76014e-09
1.25472e-09
1.15899e-09
9.74301e-10
1.12813e-09
7.88113e-10
1.86091e-09
7.85169e-10
3.50171e-09
1.03029e-09
6.03786e-09
1.49036e-09
9.13794e-09
1.98475e-09
1.20838e-08
2.28273e-09
1.40612e-08
2.26713e-09
1.4667e-08
1.9855e-09
1.4101e-08
1.57401e-09
1.29125e-08
1.1564e-09
1.16232e-08
7.98205e-10
1.05279e-08
5.14174e-10
9.70728e-09
2.9452e-10
9.12867e-09
1.22971e-10
8.72775e-09
-1.42585e-11
8.44723e-09
-1.2741e-10
8.2455e-09
-2.22895e-10
8.09573e-09
-3.05245e-10
7.98055e-09
-3.76961e-10
7.88941e-09
-4.40135e-10
7.81505e-09
-4.95692e-10
7.75316e-09
-5.44822e-10
7.70021e-09
-5.87657e-10
7.6544e-09
-6.25337e-10
7.61345e-09
-6.57375e-10
7.57695e-09
-6.84783e-10
7.54336e-09
-7.07231e-10
7.51246e-09
-7.25289e-10
7.48343e-09
-7.38786e-10
7.45619e-09
-7.48139e-10
7.43024e-09
-7.53245e-10
7.40562e-09
-7.54433e-10
7.38202e-09
-7.5169e-10
7.35952e-09
-7.45267e-10
7.33799e-09
-7.35256e-10
7.31749e-09
-7.21835e-10
7.29799e-09
-7.05206e-10
7.27951e-09
-6.8548e-10
7.26214e-09
-6.62966e-10
7.24582e-09
-6.37703e-10
7.23072e-09
-6.1011e-10
7.21671e-09
-5.80142e-10
7.20402e-09
-5.4834e-10
7.19245e-09
-5.14543e-10
7.18231e-09
-4.7946e-10
7.17326e-09
-4.42757e-10
7.16577e-09
-4.05376e-10
7.1593e-09
-3.66738e-10
7.15452e-09
-3.281e-10
7.15065e-09
-2.88563e-10
7.14861e-09
-2.49741e-10
7.14734e-09
-2.10401e-10
7.14804e-09
-1.72465e-10
7.14939e-09
-1.34447e-10
7.15281e-09
-9.83835e-11
7.15682e-09
-6.27715e-11
7.16287e-09
-2.93845e-11
7.16961e-09
3.01476e-12
7.17825e-09
3.31963e-11
7.18785e-09
6.20455e-11
7.199e-09
8.8837e-11
7.21121e-09
1.13504e-10
7.2248e-09
1.35163e-10
7.2395e-09
7.25561e-09
1.54076e-10
-2.7361e-10
2.98408e-09
-4.34237e-11
-4.80816e-10
2.31162e-09
-5.48328e-10
2.24131e-09
-4.81403e-10
2.59813e-09
-2.93119e-10
3.21679e-09
-1.18345e-11
3.94026e-09
3.4108e-10
4.63517e-09
7.64149e-10
5.1751e-09
1.21675e-09
5.40919e-09
1.57686e-09
5.20575e-09
1.80307e-09
4.61802e-09
1.87364e-09
3.76373e-09
1.78741e-09
2.81299e-09
1.57806e-09
1.96936e-09
1.30031e-09
1.43668e-09
1.01785e-09
1.41035e-09
8.03839e-10
2.07478e-09
7.36479e-10
3.56887e-09
8.76464e-10
5.89768e-09
1.21517e-09
8.79907e-09
1.62789e-09
1.16709e-08
1.92366e-09
1.37654e-08
1.97295e-09
1.46175e-08
1.77862e-09
1.42952e-08
1.43803e-09
1.32529e-08
1.06198e-09
1.19992e-08
7.21221e-10
1.08685e-08
4.41517e-10
9.98699e-09
2.20448e-10
9.34951e-09
4.61587e-11
8.90208e-09
-9.4253e-11
8.5874e-09
-2.10143e-10
8.36147e-09
-3.08628e-10
8.19399e-09
-3.93682e-10
8.06571e-09
-4.6851e-10
7.96398e-09
-5.34467e-10
7.88116e-09
-5.93221e-10
7.81161e-09
-6.44954e-10
7.75228e-09
-6.9105e-10
7.69993e-09
-7.3084e-10
7.65369e-09
-7.65535e-10
7.61148e-09
-7.94748e-10
7.57287e-09
-8.19063e-10
7.53676e-09
-8.38247e-10
7.50298e-09
-8.52762e-10
7.47083e-09
-8.62438e-10
7.44033e-09
-8.67645e-10
7.41106e-09
-8.68307e-10
7.38311e-09
-8.6472e-10
7.35626e-09
-8.56919e-10
7.3306e-09
-8.45135e-10
7.30607e-09
-8.29522e-10
7.28274e-09
-8.10246e-10
7.26064e-09
-7.87579e-10
7.23979e-09
-7.61625e-10
7.2203e-09
-7.32771e-10
7.20212e-09
-7.01043e-10
7.18546e-09
-6.6695e-10
7.17014e-09
-6.30421e-10
7.15646e-09
-5.92106e-10
7.14414e-09
-5.51792e-10
7.13358e-09
-5.10327e-10
7.12436e-09
-4.67291e-10
7.117e-09
-4.23805e-10
7.1109e-09
-3.79163e-10
7.1068e-09
-3.34824e-10
7.10382e-09
-2.89752e-10
7.10298e-09
-2.45747e-10
7.10313e-09
-2.0147e-10
7.10554e-09
-1.58939e-10
7.10884e-09
-1.16683e-10
7.11443e-09
-7.6651e-11
7.12094e-09
-3.75194e-11
7.12966e-09
-7.2987e-13
7.13946e-09
3.46001e-11
7.15126e-09
6.77293e-11
7.16434e-09
9.89609e-11
7.17901e-09
1.27483e-10
7.19512e-09
1.53005e-10
7.21263e-09
7.23175e-09
1.75241e-10
-1.33932e-10
3.3082e-09
-1.90255e-10
-3.62386e-10
2.54004e-09
-4.64322e-10
2.34321e-09
-4.35958e-10
2.56973e-09
-2.86085e-10
3.06689e-09
-3.38995e-11
3.68804e-09
3.01116e-10
4.30012e-09
7.00359e-10
4.77582e-09
1.11942e-09
4.99009e-09
1.47355e-09
4.8516e-09
1.71037e-09
4.38117e-09
1.80254e-09
3.67153e-09
1.74769e-09
2.86778e-09
1.57112e-09
2.14587e-09
1.31746e-09
1.69022e-09
1.04301e-09
1.68469e-09
8.13019e-10
2.30454e-09
6.97382e-10
3.68429e-09
7.53145e-10
5.84169e-09
9.87068e-10
8.56496e-09
1.31542e-09
1.13424e-08
1.58556e-09
1.3495e-08
1.67069e-09
1.45323e-08
1.54367e-09
1.44221e-08
1.26789e-09
1.35286e-08
9.36007e-10
1.2331e-08
6.1838e-10
1.1186e-08
3.47505e-10
1.02577e-08
1.28302e-10
9.56865e-09
-4.72715e-11
9.07749e-09
-1.8964e-10
8.72973e-09
-3.0802e-10
8.47971e-09
-4.08893e-10
8.29483e-09
-4.96777e-10
8.15338e-09
-5.74166e-10
8.04153e-09
-6.43251e-10
7.94998e-09
-7.04564e-10
7.8733e-09
-7.5972e-10
7.80679e-09
-8.08041e-10
7.74868e-09
-8.50798e-10
7.69621e-09
-8.87584e-10
7.64854e-09
-9.19017e-10
7.60422e-09
-9.4479e-10
7.56288e-09
-9.6539e-10
7.52364e-09
-9.80564e-10
7.48642e-09
-9.90715e-10
7.45067e-09
-9.95688e-10
7.41647e-09
-9.95815e-10
7.38353e-09
-9.91066e-10
7.35194e-09
-9.81711e-10
7.3216e-09
-9.67853e-10
7.29261e-09
-9.49706e-10
7.26499e-09
-9.27503e-10
7.23879e-09
-9.01402e-10
7.21412e-09
-8.71763e-10
7.19095e-09
-8.38678e-10
7.1695e-09
-8.02628e-10
7.14964e-09
-7.63624e-10
7.13164e-09
-7.22276e-10
7.11529e-09
-6.7848e-10
7.10093e-09
-6.33008e-10
7.08822e-09
-5.85592e-10
7.07762e-09
-5.37221e-10
7.06861e-09
-4.87397e-10
7.06183e-09
-4.37396e-10
7.05654e-09
-3.86426e-10
7.05359e-09
-3.36087e-10
7.052e-09
-2.85283e-10
7.05287e-09
-2.35885e-10
7.055e-09
-1.86587e-10
7.05965e-09
-1.39328e-10
7.06553e-09
-9.28169e-11
7.07389e-09
-4.8724e-11
7.08359e-09
-6.07069e-12
7.09562e-09
3.41919e-11
7.10916e-09
7.24181e-11
7.12472e-09
1.08266e-10
7.14205e-09
1.41163e-10
7.16092e-09
1.70873e-10
7.18173e-09
7.20413e-09
1.96994e-10
9.29064e-12
3.64193e-09
-3.43043e-10
-2.38941e-10
2.78823e-09
-3.70178e-10
2.47441e-09
-3.76218e-10
2.57573e-09
-2.61948e-10
2.95258e-09
-4.15814e-11
3.46764e-09
2.658e-10
3.9927e-09
6.34616e-10
4.40697e-09
1.02084e-09
4.60383e-09
1.35897e-09
4.51344e-09
1.59767e-09
4.14243e-09
1.70676e-09
3.5624e-09
1.68003e-09
2.89446e-09
1.53521e-09
2.29063e-09
1.30814e-09
1.9172e-09
1.04712e-09
1.94558e-09
8.09771e-10
2.54175e-09
6.58501e-10
3.83543e-09
6.46972e-10
5.85299e-09
7.91797e-10
8.41996e-09
1.03896e-09
1.1095e-08
1.26989e-09
1.32639e-08
1.36861e-09
1.44334e-08
1.29029e-09
1.45003e-08
1.07046e-09
1.37483e-08
7.82451e-10
1.26188e-08
4.91473e-10
1.14769e-08
2.33473e-10
1.05155e-08
1.89412e-11
9.78313e-09
-1.55974e-10
9.25221e-09
-2.99395e-10
8.87313e-09
-4.19675e-10
8.59979e-09
-5.22838e-10
8.39789e-09
-6.1313e-10
8.24373e-09
-6.93485e-10
8.12167e-09
-7.65117e-10
8.02197e-09
-8.29935e-10
7.93752e-09
-8.87443e-10
7.86473e-09
-9.38974e-10
7.79997e-09
-9.84122e-10
7.74159e-09
-1.02349e-09
7.6878e-09
-1.05675e-09
7.63778e-09
-1.08436e-09
7.59051e-09
-1.10601e-09
7.54565e-09
-1.12207e-09
7.50263e-09
-1.13234e-09
7.46135e-09
-1.13713e-09
7.42152e-09
-1.13637e-09
7.38318e-09
-1.13034e-09
7.34624e-09
-1.11908e-09
7.31075e-09
-1.10284e-09
7.27676e-09
-1.08182e-09
7.24433e-09
-1.05622e-09
7.2136e-09
-1.02636e-09
7.18457e-09
-9.92412e-10
7.15744e-09
-9.54823e-10
7.13216e-09
-9.13678e-10
7.10896e-09
-8.69564e-10
7.08773e-09
-8.22473e-10
7.06872e-09
-7.73125e-10
7.05172e-09
-7.21384e-10
7.03707e-09
-6.68144e-10
7.02443e-09
-6.13085e-10
7.01422e-09
-5.57332e-10
7.00596e-09
-5.00318e-10
7.00021e-09
-4.43454e-10
6.99633e-09
-3.85887e-10
6.99502e-09
-3.29309e-10
6.9955e-09
-2.72627e-10
6.99859e-09
-2.17689e-10
7.00344e-09
-1.63313e-10
7.01089e-09
-1.11241e-10
7.02014e-09
-6.04516e-11