/*--------------------------------*- C++ -*----------------------------------*\
  =========                 |
  \\      /  F ield         | OpenFOAM: The Open Source CFD Toolbox
   \\    /   O peration     | Website:  https://openfoam.org
    \\  /    A nd           | Version:  7
     \\/     M anipulation  |
\*---------------------------------------------------------------------------*/
FoamFile
{
    version     2.0;
    format      ascii;
    class       volVectorField;
    location    "20";
    object      U;
}
// * * * * * * * * * * * * * * * * * * * * * * * * * * * * * * * * * * * * * //

dimensions      [0 1 -1 0 0 0 0];

internalField   nonuniform List<vector> 
49920
(
(-0.00643679 0.000391774 -1.03001e-29)
(-0.0133596 0.00491911 7.58659e-30)
(-0.00522507 0.0046189 4.40112e-29)
(-0.00347472 0.00613954 -6.18268e-29)
(-0.000748032 0.00599027 -4.43079e-29)
(-0.00190124 0.00881698 -6.83134e-29)
(-0.00166321 0.00615247 -4.28282e-29)
(-0.000108963 0.00390171 0)
(0.000926706 0.0048029 -6.15739e-29)
(0.00272696 0.00737034 -1.76392e-29)
(0.00218945 0.00653426 1.69115e-28)
(0.00284781 0.00480943 0)
(0.00587575 0.00434765 2.80655e-28)
(0.00672506 0.00217334 9.12094e-36)
(0.0142852 0.000195395 0)
(0.00782677 -0.00199967 -2.0539e-28)
(0.0438557 0.00211014 -3.57469e-28)
(0.0258379 0.00948653 2.19914e-29)
(0.0135663 0.012576 0)
(0.0101768 0.0128619 2.44861e-29)
(0.00825333 0.0129794 2.4353e-29)
(0.00731999 0.0131277 5.84556e-30)
(0.007089 0.0131623 0)
(0.00710177 0.0131232 -5.15294e-30)
(0.00721032 0.0130467 9.16532e-31)
(0.00737043 0.0129475 -1.00058e-32)
(0.00755959 0.0128325 -1.80494e-30)
(0.00776526 0.0127056 0)
(0.00798055 0.0125692 0)
(0.00820135 0.0124246 0)
(0.00842502 0.0122729 0)
(0.00864981 0.0121146 0)
(0.00887449 0.0119504 0)
(0.00909821 0.0117805 -5.82236e-31)
(0.00932031 0.0116052 7.74641e-31)
(0.00954029 0.0114247 -6.29817e-31)
(0.00975774 0.0112393 -2.7578e-31)
(0.0099724 0.0110491 2.91482e-31)
(0.010184 0.0108542 -6.34684e-31)
(0.0103923 0.0106547 -1.36219e-39)
(0.0105972 0.0104508 -1.46271e-39)
(0.0107985 0.0102426 6.3731e-31)
(0.0109961 0.0100301 -1.50019e-31)
(0.0111897 0.00981352 5.17207e-31)
(0.0113794 0.00959287 6.39621e-31)
(0.0115649 0.00936825 -1.16524e-30)
(0.0117463 0.00913977 9.76629e-32)
(0.0119233 0.00890753 0)
(0.0120959 0.00867163 0)
(0.012264 0.00843213 0)
(0.0124275 0.00818915 0)
(0.0125864 0.00794278 0)
(0.0127404 0.00769311 0)
(0.0128897 0.00744031 -5.12762e-31)
(0.0130339 0.00718442 -1.25545e-32)
(0.0131734 0.00692559 -1.26462e-30)
(0.0133077 0.00666384 5.08312e-31)
(0.0134368 0.00639945 0)
(0.0135606 0.00613254 2.45573e-31)
(0.0136792 0.00586317 4.98012e-31)
(0.0137925 0.00559143 2.53734e-31)
(0.0139004 0.00531748 0)
(0.0140028 0.00504145 0)
(0.0140998 0.0047635 -2.6466e-31)
(0.0141912 0.00448374 -2.81861e-31)
(0.0142771 0.00420236 0)
(0.0143573 0.00391955 -1.87346e-38)
(0.0144319 0.00363543 6.35547e-31)
(0.0145007 0.00335016 0)
(0.0145639 0.00306383 3.19809e-31)
(0.0146214 0.00277666 -3.5883e-31)
(0.0146729 0.00248875 -3.77518e-31)
(0.0147191 0.00220011 0)
(0.0147592 0.00191086 -3.96043e-31)
(0.0147941 0.00162099 -3.99052e-31)
(0.0148225 0.00133053 1.14812e-31)
(0.0148462 0.00103947 2.75905e-32)
(0.0148629 0.000747961 3.77269e-32)
(0.0148753 0.000456099 -6.57821e-32)
(0.0148806 0.000164492 1.99728e-32)
(-0.00339496 0.000340329 0)
(-0.00762987 0.010277 0)
(-0.00420724 0.0114292 7.17174e-29)
(-0.00380123 0.0115659 -2.96867e-29)
(-0.00247598 0.0118315 -1.67851e-28)
(-0.00227254 0.0229872 -3.45009e-28)
(0.00065439 0.0104495 -1.49158e-28)
(0.0030112 0.0185705 5.65657e-30)
(0.00196861 0.0139553 0)
(0.00226994 0.0134705 -1.62002e-28)
(0.00504437 0.014297 3.2501e-28)
(0.0058588 0.0109073 -3.02378e-28)
(0.00715907 0.00906383 5.32069e-28)
(0.00927066 0.00811148 3.51375e-28)
(0.0126627 0.00727546 -2.58729e-28)
(0.00430153 -0.000926736 0)
(0.0285176 0.0100406 0)
(0.0309069 0.0152621 3.95779e-29)
(0.0246297 0.0167108 3.69471e-30)
(0.0183976 0.0151287 -1.1679e-29)
(0.0132556 0.0136561 -4.06355e-30)
(0.010147 0.0130477 0)
(0.00872653 0.0128289 0)
(0.00809466 0.0127309 0)
(0.00782383 0.0126562 2.76173e-31)
(0.00774671 0.0125754 -2.54802e-30)
(0.0077783 0.0124826 -1.81874e-30)
(0.00787351 0.0123776 9.25669e-31)
(0.00800806 0.0122615 -1.01599e-30)
(0.00816783 0.0121355 -1.08125e-30)
(0.00834415 0.0120008 0)
(0.00853132 0.0118582 -2.17461e-31)
(0.00872558 0.0117083 -4.85951e-32)
(0.00892425 0.0115518 0)
(0.00912547 0.011389 2.59435e-30)
(0.00932778 0.0112203 1.48394e-30)
(0.00953019 0.011046 2.86014e-31)
(0.00973189 0.0108663 -8.91968e-31)
(0.0099323 0.0106814 2.09173e-39)
(0.0101309 0.0104915 -7.4909e-40)
(0.0103273 0.0102967 -8.03807e-40)
(0.0105212 0.0100972 2.59905e-39)
(0.0107123 0.00989303 7.78834e-31)
(0.0109003 0.00968433 -5.47763e-31)
(0.011085 0.00947119 -1.82665e-30)
(0.0112664 0.00925372 -3.15815e-30)
(0.0114441 0.009032 0)
(0.0116181 0.00880614 -5.50501e-31)
(0.0117881 0.00857624 -5.76275e-31)
(0.0119541 0.00834234 0)
(0.012116 0.00810458 1.30363e-30)
(0.0122735 0.00786303 1.30505e-30)
(0.0124266 0.00761783 -1.30535e-30)
(0.0125752 0.00736916 -5.29056e-31)
(0.0127193 0.00711693 5.47629e-31)
(0.0128586 0.00686135 1.30304e-30)
(0.0129929 0.00660269 0)
(0.0131221 0.00634104 0)
(0.0132462 0.00607649 0)
(0.0133653 0.00580925 -6.52305e-31)
(0.0134789 0.00553931 -6.51295e-31)
(0.0135875 0.00526702 2.58366e-31)
(0.0136904 0.00499235 9.26534e-31)
(0.0137881 0.0047157 0)
(0.0138799 0.00443698 0)
(0.0139666 0.00415671 -2.99277e-31)
(0.014047 0.0038748 9.60736e-31)
(0.0141223 0.00359177 1.29171e-30)
(0.0141912 0.00330747 -6.45386e-31)
(0.0142552 0.00302246 2.56751e-31)
(0.0143123 0.00273661 -1.07964e-30)
(0.0143647 0.00245045 0)
(0.0144101 0.00216368 2.33652e-31)
(0.0144511 0.00187679 1.56623e-31)
(0.0144849 0.00158977 -8.1125e-32)
(0.0145143 0.00130249 1.20656e-31)
(0.0145366 0.00101529 1.19299e-31)
(0.0145544 0.000727885 1.75489e-31)
(0.0145658 0.000440574 0)
(0.0145721 0.000153681 0)
(-0.00456023 -0.00439342 2.5817e-31)
(1.57951e-05 0.00359245 -6.75251e-32)
(-0.00229374 0.00469459 5.84271e-29)
(-0.00561267 0.0116722 0)
(-0.00292664 0.0115366 -7.16485e-29)
(-0.000995219 0.0131019 1.64613e-28)
(0.000739158 0.00786854 4.43043e-30)
(0.00167675 0.0113184 -1.40509e-30)
(0.00228517 0.0180771 -1.18059e-29)
(0.00137624 0.0123355 -6.36352e-28)
(0.00330307 0.0107442 -2.33109e-29)
(0.00550459 0.0103011 -7.24107e-28)
(0.00776781 0.00873991 2.50615e-28)
(0.00759278 0.00534841 2.92843e-29)
(0.00547286 0.0031214 -1.15035e-28)
(0.0135642 -0.00658974 0)
(0.0133096 0.00409817 0)
(0.0227036 0.0156676 1.34725e-36)
(0.0259853 0.0201238 5.61544e-30)
(0.0227364 0.0188826 -1.11731e-29)
(0.0173271 0.0162004 -2.67511e-30)
(0.0130272 0.0142844 -6.86283e-30)
(0.0105309 0.0132732 -3.83559e-30)
(0.00920687 0.0127921 -2.04442e-30)
(0.00851858 0.012545 -9.97596e-31)
(0.00818091 0.0123867 0)
(0.00804056 0.0122599 0)
(0.00801633 0.0121419 3.21336e-31)
(0.00806423 0.0120233 -3.40874e-38)
(0.00815897 0.0119004 -1.17941e-30)
(0.00828498 0.0117716 -1.05909e-30)
(0.00843238 0.0116365 8.19677e-31)
(0.00859451 0.011495 0)
(0.00876683 0.0113472 9.18805e-31)
(0.00894608 0.0111934 9.52032e-31)
(0.00912988 0.0110335 -1.83985e-39)
(0.00931651 0.010868 -3.01285e-31)
(0.00950465 0.010697 -2.41036e-30)
(0.0096933 0.0105205 6.3599e-31)
(0.00988167 0.0103388 5.91988e-31)
(0.0100691 0.010152 -5.93294e-31)
(0.0102552 0.00996012 -5.5767e-31)
(0.0104394 0.00976336 1.58939e-30)
(0.0106213 0.00956176 5.48414e-31)
(0.0108008 0.00935543 -4.06142e-39)
(0.0109775 0.00914446 -1.10192e-30)
(0.0111512 0.00892894 -1.10906e-30)
(0.0113217 0.00870896 0)
(0.0114888 0.0084846 -1.12004e-30)
(0.0116523 0.00825593 5.75279e-31)
(0.011812 0.00802311 5.60641e-31)
(0.0119678 0.00778621 2.38791e-38)
(0.0121197 0.00754526 1.6842e-30)
(0.0122673 0.00730046 0)
(0.0124105 0.00705208 0)
(0.012549 0.00679995 -1.13479e-30)
(0.0126828 0.00654444 -1.13661e-30)
(0.0128117 0.00628558 -1.13819e-30)
(0.0129359 0.00602369 -1.13745e-30)
(0.0130548 0.00575872 -5.04126e-31)
(0.0131689 0.00549104 -1.35043e-30)
(0.0132774 0.0052206 -2.67632e-31)
(0.013381 0.00494787 1.72979e-38)
(0.0134787 0.00467274 0)
(0.0135714 0.00439573 0)
(0.0136579 0.00411677 -5.59729e-31)
(0.0137394 0.00383642 2.41849e-31)
(0.0138146 0.0035546 4.24007e-31)
(0.0138847 0.00327184 -1.84378e-30)
(0.0139483 0.00298811 -4.0118e-31)
(0.0140068 0.00270388 -9.00476e-31)
(0.0140587 0.00241917 2.2846e-31)
(0.0141056 0.00213426 -2.34877e-31)
(0.014146 0.00184922 -2.49878e-31)
(0.0141812 0.00156428 2.87391e-31)
(0.0142103 0.00127947 0)
(0.0142336 0.000994825 0)
(0.0142517 0.000710191 1.46889e-31)
(0.0142636 0.000425926 2.32703e-32)
(0.0142703 0.000142553 2.14415e-33)
(-0.000929579 -0.00308558 8.27145e-31)
(-0.00161347 0.0089449 -5.29248e-31)
(-0.003145 0.0251526 3.86452e-29)
(0.000270876 0.00485422 -3.07205e-29)
(0.000562795 0.00689052 0)
(0.000627383 0.00566537 -1.60958e-38)
(0.000559684 0.00431491 0)
(0.000806076 0.00584696 0)
(-0.0016229 0.00713808 0)
(-0.00152676 0.00818667 -2.77633e-28)
(0.00155281 0.00779101 -4.05851e-28)
(0.00244798 0.00705857 -1.89621e-28)
(0.00451861 0.0048206 2.95032e-28)
(0.00240917 0.00183176 1.47253e-29)
(0.0123342 0.00836168 -6.00733e-29)
(0.00725146 -0.00122523 1.75626e-29)
(0.00644366 0.00280793 0)
(0.0148233 0.0133534 1.75529e-30)
(0.0221617 0.0202314 -7.9542e-30)
(0.0230557 0.0211495 -2.03338e-29)
(0.0196208 0.0188494 -3.95067e-30)
(0.0154043 0.0161865 -7.21996e-30)
(0.0122518 0.0143254 -6.46947e-30)
(0.0103201 0.0132764 -4.93069e-30)
(0.00922691 0.0127154 -3.50009e-30)
(0.00863034 0.0123916 -1.87915e-30)
(0.00831882 0.0121766 -9.90838e-33)
(0.00817605 0.0120109 8.24752e-31)
(0.00813817 0.0118667 2.02022e-38)
(0.0081684 0.0117308 1.09854e-31)
(0.00824444 0.0115965 -8.21329e-31)
(0.00835218 0.0114606 4.36311e-31)
(0.00848218 0.0113211 -5.85396e-31)
(0.00862806 0.0111772 6.43749e-31)
(0.0087852 0.0110284 -2.04493e-31)
(0.00895036 0.0108744 -1.28438e-30)
(0.00912102 0.0107151 -3.41647e-31)
(0.00929545 0.0105506 -1.16029e-30)
(0.00947218 0.0103808 -3.64068e-32)
(0.00965018 0.0102058 -4.65465e-31)
(0.00982852 0.0100255 4.78042e-31)
(0.0100066 0.00984016 1.61061e-31)
(0.0101837 0.00964969 5.38161e-31)
(0.0103595 0.00945423 5.35802e-31)
(0.0105335 0.00925379 1.11045e-30)
(0.0107054 0.00904849 5.71959e-31)
(0.0108749 0.00883834 -9.20096e-31)
(0.0110418 0.00862349 9.28203e-31)
(0.0112058 0.00840395 -1.49201e-30)
(0.0113666 0.00817985 1.86814e-30)
(0.0115241 0.00795133 1.51255e-30)
(0.0116782 0.00771837 1.89916e-30)
(0.0118285 0.00748116 5.31251e-31)
(0.0119747 0.00723991 1.88046e-32)
(0.0121167 0.00699462 -1.00051e-31)
(0.0122545 0.00674548 -1.50044e-30)
(0.0123877 0.00649261 -1.47867e-30)
(0.0125164 0.00623622 -1.49231e-30)
(0.0126402 0.00597646 -9.68969e-31)
(0.0127593 0.00571354 5.01523e-31)
(0.0128732 0.00544761 1.02559e-30)
(0.0129821 0.00517888 2.73137e-31)
(0.0130857 0.00490757 -7.49165e-31)
(0.0131841 0.00463389 0)
(0.0132768 0.00435809 2.7801e-31)
(0.0133642 0.00408042 -9.30898e-31)
(0.0134458 0.00380117 1.47597e-31)
(0.0135218 0.00352055 9.26392e-31)
(0.0135922 0.00323891 -4.60767e-31)
(0.0136566 0.00295642 -5.28624e-31)
(0.0137155 0.00267345 -3.18073e-32)
(0.0137682 0.00239013 0)
(0.0138157 0.00210673 0)
(0.0138567 0.00182338 0)
(0.0138927 0.00154029 2.33741e-31)
(0.0139222 0.00125761 0)
(0.013947 0.000975192 -1.19197e-31)
(0.0139653 0.000693125 -5.63031e-32)
(0.0139785 0.000411687 4.79062e-32)
(0.0139857 0.000131367 -1.51425e-32)
(-0.00157184 -0.00205743 5.41067e-32)
(-0.00165847 0.00496495 6.03816e-32)
(0.000775311 0.016651 0)
(0.0040633 0.0114527 -1.20277e-30)
(0.00355127 0.0198213 0)
(0.00399846 0.0210881 2.00054e-37)
(0.00323509 0.0149565 -1.02889e-29)
(0.00314645 0.0213356 0)
(0.00311778 0.0335517 -1.97583e-28)
(0.000400639 0.00226765 -5.98151e-29)
(0.00125571 0.00626761 2.464e-31)
(0.00107284 0.00453697 -1.18473e-28)
(0.000521803 0.0020033 5.28107e-29)
(0.00429407 0.00669944 3.89437e-29)
(0.00533806 0.00318911 0)
(0.00427761 -0.000935694 1.32704e-29)
(0.00472074 0.00231681 -3.30086e-30)
(0.00992371 0.0107063 1.33872e-29)
(0.0172977 0.0184189 3.4717e-29)
(0.0210242 0.0215679 1.0886e-29)
(0.0201498 0.0206373 -7.51979e-30)
(0.016949 0.0180478 -5.749e-30)
(0.0136995 0.0156434 4.00085e-30)
(0.0113536 0.0140338 0)
(0.00990205 0.0130914 0)
(0.00905842 0.0125429 1.1605e-30)
(0.00858244 0.0121993 -6.89822e-31)
(0.00832695 0.0119589 3.42664e-31)
(0.00820816 0.0117707 5.14901e-31)
(0.00817762 0.0116087 9.3203e-32)
(0.00820645 0.0114594 -1.71707e-31)
(0.00827639 0.0113153 -3.76641e-31)
(0.00837556 0.0111724 -9.04254e-31)
(0.00849577 0.0110281 -7.23468e-31)
(0.00863134 0.010881 -5.81376e-31)
(0.00877804 0.0107301 6.27119e-31)
(0.0089329 0.0105749 0)
(0.00909355 0.0104151 -1.09549e-30)
(0.00925829 0.0102505 7.0757e-31)
(0.00942572 0.0100808 1.22787e-30)
(0.00959478 0.00990606 -1.25969e-30)
(0.00976458 0.00972621 -8.00291e-31)
(0.00993443 0.00954125 1.3501e-30)
(0.0101037 0.00935114 0)
(0.010272 0.00915595 -1.6661e-30)
(0.0104388 0.00895566 8.47787e-31)
(0.0106039 0.00875039 1.42309e-30)
(0.0107668 0.00854013 1.75801e-30)
(0.0109273 0.00832504 8.62589e-31)
(0.0110852 0.00810502 -1.45837e-30)
(0.0112403 0.00788028 -3.47452e-31)
(0.0113921 0.00765101 2.35571e-30)
(0.0115403 0.00741721 9.06807e-31)
(0.0116849 0.00717907 -9.13156e-31)
(0.0118257 0.00693666 9.1709e-31)
(0.0119624 0.00669017 0)
(0.0120948 0.0064397 0)
(0.0122229 0.00618554 9.24382e-31)
(0.0123464 0.00592775 -9.24482e-31)
(0.0124652 0.00566666 -9.24448e-31)
(0.012579 0.00540232 -4.97468e-31)
(0.012688 0.00513512 -1.01999e-31)
(0.0127917 0.0048651 -5.2785e-31)
(0.0128903 0.00459273 4.54122e-31)
(0.0129833 0.00431802 0)
(0.0130712 0.00404153 -4.45863e-31)
(0.0131531 0.00376326 7.45676e-31)
(0.0132299 0.0034838 7.72831e-31)
(0.0133004 0.00320314 -4.31506e-31)
(0.0133658 0.00292187 3.82697e-31)
(0.0134249 0.00264002 4.22712e-31)
(0.0134788 0.00235805 0)
(0.0135264 0.00207605 0)
(0.0135689 0.00179432 -2.18146e-31)
(0.0136051 0.00151296 0)
(0.0136362 0.00123221 0)
(0.0136614 0.000952051 0)
(0.013681 0.000672435 0)
(0.0136952 0.000393645 -4.62184e-32)
(0.0137038 0.000116193 -3.95056e-32)
(-0.00230115 -0.000384649 -5.42287e-31)
(-0.00278183 0.00328943 8.39135e-31)
(0.000484636 0.00824198 -4.49969e-32)
(0.0025635 0.00594945 -1.161e-30)
(0.00256639 0.011015 1.91882e-30)
(0.00367191 0.0125535 -3.08754e-29)
(0.00333686 0.0092858 -1.03466e-30)
(0.00361253 0.0146998 -1.64727e-29)
(0.00539294 0.0239462 3.25314e-29)
(0.00321592 0.00743616 2.48969e-29)
(0.00211887 0.0163639 3.98097e-29)
(0.00189649 0.013749 -4.21723e-29)
(-0.000628258 0.00562553 -7.28958e-30)
(-0.000116671 0.00252444 -1.67049e-29)
(0.00181246 0.000833735 -6.96016e-30)
(0.00278711 -0.000176316 -3.30485e-30)
(0.00360244 0.00237581 -6.1849e-31)
(0.00704792 0.00880785 2.50413e-32)
(0.0132186 0.0162354 -8.37213e-30)
(0.0181591 0.0208409 0)
(0.0193804 0.0214554 -5.33472e-30)
(0.0175877 0.0195149 -8.11809e-30)
(0.0147433 0.0169728 1.77456e-30)
(0.012248 0.0149377 3.88277e-31)
(0.0105232 0.0136118 -1.28301e-31)
(0.00945401 0.0128053 0)
(0.00882116 0.012304 -9.61258e-31)
(0.00845887 0.0119685 2.06347e-31)
(0.00826469 0.011722 1.65454e-31)
(0.00817833 0.0115237 0)
(0.00816384 0.0113518 -1.65954e-31)
(0.00819902 0.0111939 -1.25748e-31)
(0.00826951 0.0110429 -5.71199e-31)
(0.00836564 0.0108946 -4.45694e-31)
(0.00848066 0.0107463 -1.00773e-30)
(0.00860966 0.0105961 5.53751e-31)
(0.00874909 0.010443 -9.863e-31)
(0.00889623 0.0102863 -1.7004e-30)
(0.00904905 0.0101254 0)
(0.0092059 0.00995988 -9.5989e-40)
(0.00936556 0.00978963 -1.00513e-39)
(0.00952693 0.0096144 0)
(0.00968921 0.00943413 2.04962e-30)
(0.00985174 0.00924869 1.34537e-30)
(0.010014 0.00905808 -7.87265e-31)
(0.0101754 0.00886228 1.60284e-30)
(0.0103357 0.00866126 8.19027e-31)
(0.0104944 0.00845521 1.40023e-30)
(0.0106512 0.00824397 -1.41948e-30)
(0.0108059 0.00802771 8.46322e-31)
(0.0109579 0.00780654 8.57623e-31)
(0.0111069 0.0075805 8.67878e-31)
(0.011253 0.00734977 3.38063e-31)
(0.0113956 0.00711442 -1.43024e-30)
(0.0115348 0.00687464 0)
(0.0116701 0.00663052 -5.14776e-31)
(0.0118015 0.00638229 -5.25214e-31)
(0.0119286 0.00613008 1.3991e-30)
(0.0120515 0.00587417 -3.84996e-31)
(0.0121697 0.00561467 -8.99084e-31)
(0.0122834 0.00535189 0)
(0.012392 0.00508599 1.38737e-30)
(0.0124958 0.0048173 1.74204e-32)
(0.0125943 0.00454602 3.52038e-31)
(0.0126877 0.00427249 4.3564e-31)
(0.0127756 0.00399697 7.10714e-31)
(0.0128581 0.0037198 6.0399e-31)
(0.012935 0.00344129 3.28251e-31)
(0.0130063 0.00316177 -6.8846e-32)
(0.013072 0.00288155 7.96091e-31)
(0.0131319 0.00260094 4.11503e-31)
(0.0131864 0.00232025 0)
(0.0132348 0.00203971 2.06687e-31)
(0.0132781 0.00175957 -2.45708e-31)
(0.0133151 0.00147988 -2.93053e-31)
(0.0133475 0.00120104 -4.98089e-31)
(0.0133733 0.000923213 -2.42215e-31)
(0.0133947 0.000645947 -1.07067e-31)
(0.01341 0.00036972 -9.11522e-32)
(0.0134204 9.51078e-05 2.44115e-32)
(-0.00216091 0.00104868 -1.81996e-31)
(-0.00274515 0.00308515 5.14951e-31)
(-0.000721559 0.00590874 0)
(0.000424382 0.00570951 0)
(0.000988491 0.00855163 -1.17117e-30)
(0.00275071 0.00966286 -1.68124e-30)
(0.00281362 0.00884724 -2.52676e-30)
(0.00277694 0.01206 -3.23901e-30)
(0.00564989 0.0157925 0)
(0.00443661 0.00696685 0)
(0.00197641 0.00958511 1.69144e-29)
(0.00238743 0.00741291 0)
(0.00109845 0.002327 0)
(0.000647296 0.000461615 0)
(0.00133711 -0.000164709 -3.47054e-30)
(0.0018717 -0.00020238 -2.71907e-30)
(0.00272005 0.00217212 -2.67405e-30)
(0.00533249 0.00746929 -6.00779e-30)
(0.0102579 0.0142541 -7.99296e-30)
(0.0153221 0.0195614 -2.5597e-30)
(0.017875 0.021487 6.79217e-30)
(0.0174505 0.0204658 -6.46154e-32)
(0.015322 0.018142 -2.23619e-30)
(0.0129425 0.0158817 -1.11115e-30)
(0.0110672 0.0142265 0)
(0.00981218 0.0131542 1.21271e-30)
(0.00903416 0.0124758 1.78285e-31)
(0.00857058 0.0120292 4.14766e-31)
(0.00830591 0.0117131 -3.07103e-31)
(0.00816839 0.0114707 0)
(0.00811477 0.0112702 -1.82434e-31)
(0.00811863 0.011094 2.29739e-31)
(0.00816315 0.0109315 2.81358e-31)
(0.00823725 0.0107762 3.60865e-31)
(0.00833321 0.0106242 1.53869e-38)
(0.0084456 0.0104727 -3.96522e-31)
(0.00857035 0.01032 -9.5495e-31)
(0.00870449 0.0101648 -5.50308e-31)
(0.00884567 0.0100063 0)
(0.00899213 0.00984393 -6.10417e-31)
(0.00914236 0.00967713 6.36561e-31)
(0.00929522 0.00950567 0)
(0.00944985 0.00932926 6.83771e-31)
(0.00960549 0.00914777 1.28099e-30)
(0.00976151 0.00896107 5.95639e-31)
(0.00991728 0.00876914 2.51172e-38)
(0.0100726 0.00857189 0)
(0.0102268 0.0083693 1.92958e-31)
(0.0103795 0.00816156 1.93376e-31)
(0.0105304 0.00794859 7.93942e-31)
(0.010679 0.00773047 8.06311e-31)
(0.0108252 0.00750734 -2.66131e-31)
(0.0109686 0.00727924 8.42097e-31)
(0.0111091 0.00704637 -1.08209e-30)
(0.0112462 0.00680883 2.99823e-31)
(0.01138 0.00656681 0)
(0.0115099 0.00632048 5.07055e-31)
(0.011636 0.00607002 1.86854e-30)
(0.0117578 0.00581567 1.68014e-32)
(0.0118754 0.0055576 -5.04315e-31)
(0.0119884 0.00529613 0)
(0.0120967 0.00503141 -3.65667e-31)
(0.0122003 0.00476384 5.06391e-31)
(0.0122987 0.00449354 4.1907e-31)
(0.0123921 0.00422103 4.15408e-31)
(0.0124801 0.00394638 8.19056e-31)
(0.0125629 0.00367021 0)
(0.01264 0.00339257 0)
(0.012712 0.00311411 0)
(0.0127778 0.00283487 -3.89328e-31)
(0.0128388 0.00255547 3.86213e-31)
(0.0128933 0.00227597 0)
(0.0129433 0.00199686 1.92133e-31)
(0.0129865 0.00171821 1.93134e-31)
(0.0130256 0.00144029 1.94203e-31)
(0.0130577 0.00116345 1.97373e-31)
(0.0130859 0.00088756 0)
(0.0131081 0.000612516 0)
(0.0131254 0.000338894 -8.75727e-32)
(0.0131374 6.70255e-05 -1.39362e-32)
(-0.00169535 0.00199774 0)
(-0.00210988 0.00298689 4.88416e-31)
(-0.00113536 0.00507431 2.97566e-31)
(-0.00034612 0.00616242 2.92366e-31)
(0.000432022 0.00862183 4.88498e-31)
(0.00196744 0.00990347 -2.53862e-31)
(0.00235963 0.0102673 0)
(0.00248499 0.0124828 3.90062e-30)
(0.00504774 0.0139836 0)
(0.00472182 0.00899752 0)
(0.00322868 0.00833853 -9.01884e-31)
(0.003734 0.00595136 -1.08183e-30)
(0.00302967 0.00247827 0)
(0.00196195 0.000476244 1.49475e-30)
(0.00153575 -0.000407749 -1.80024e-30)
(0.00154382 -0.000192293 8.47241e-31)
(0.00221025 0.00198492 8.97125e-32)
(0.00428018 0.0064978 -3.98026e-30)
(0.00820482 0.0125788 1.17678e-30)
(0.0128768 0.0180827 -7.23085e-31)
(0.0160971 0.020967 1.96019e-30)
(0.0167705 0.0209045 0)
(0.0154579 0.0190427 2.02396e-30)
(0.0133955 0.016767 -1.69565e-30)
(0.0115057 0.0148793 -9.14368e-31)
(0.0101233 0.0135616 3.2518e-31)
(0.00921973 0.0126992 1.21088e-32)
(0.00866183 0.0121306 6.98447e-31)
(0.00833092 0.0117365 -2.267e-31)
(0.00814618 0.0114439 0)
(0.0080572 0.0112109 -3.83613e-32)
(0.00803307 0.0110131 -1.37344e-31)
(0.00805442 0.0108365 0)
(0.00810869 0.0106721 5.77736e-31)
(0.00818734 0.0105146 3.47024e-31)
(0.00828438 0.0103602 0)
(0.00839542 0.0102065 4.68649e-31)
(0.0085172 0.0100517 9.78565e-31)
(0.00864721 0.00989453 0)
(0.0087835 0.00973419 -5.38114e-31)
(0.00892443 0.00956999 5.66746e-31)
(0.0090689 0.00940146 0)
(0.00921583 0.00922821 -1.20147e-30)
(0.00936451 0.00904996 -1.24094e-30)
(0.00951408 0.00886659 0)
(0.00966418 0.00867788 6.76038e-31)
(0.00981429 0.00848381 0)
(0.00996355 0.00828438 7.06277e-31)
(0.0101118 0.00807958 7.22159e-31)
(0.0102586 0.00786938 0)
(0.0104037 0.00765391 0)
(0.0105467 0.00743319 -7.61526e-31)
(0.0106873 0.00720739 2.24744e-31)
(0.0108253 0.0069766 -1.53351e-32)
(0.0109603 0.00674099 1.33072e-30)
(0.0110921 0.00650072 5.16943e-31)
(0.0112204 0.00625598 5.23189e-31)
(0.0113451 0.00600698 8.05954e-31)
(0.0114658 0.00575391 0)
(0.0115825 0.00549707 8.10346e-31)
(0.0116947 0.00523661 0)
(0.0118026 0.00497295 -8.07717e-31)
(0.0119056 0.00470618 4.79532e-31)
(0.012004 0.00443684 1.56499e-32)
(0.0120971 0.004165 -5.19555e-31)
(0.0121854 0.00389129 1.25436e-31)
(0.012268 0.00361575 -6.73145e-31)
(0.0123458 0.00333909 0)
(0.0124176 0.00306132 3.72065e-31)
(0.0124847 0.00278318 -7.35619e-31)
(0.0125453 0.00250467 -3.62302e-31)
(0.0126016 0.00222643 -3.60471e-31)
(0.0126511 0.0019485 3.568e-31)
(0.0126966 0.00167139 0)
(0.0127354 0.00139516 2.5016e-31)
(0.0127701 0.00112001 4.3301e-31)
(0.012799 0.000845994 -1.13178e-31)
(0.0128231 0.000573083 -1.55511e-32)
(0.0128422 0.000301766 -7.40648e-32)
(0.012856 3.27097e-05 0)
(-0.00126809 0.00265176 -1.05228e-32)
(-0.00159842 0.00288301 -6.96264e-32)
(-0.00114781 0.00428961 -2.84686e-31)
(-0.000531462 0.00573848 0)
(0.000244154 0.00785562 5.40697e-31)
(0.00140935 0.00936733 1.79971e-31)
(0.00205634 0.0103811 0)
(0.00256577 0.0121308 6.27758e-31)
(0.00443193 0.0130709 0)
(0.00471989 0.0102728 0)
(0.00416 0.00867889 -2.14056e-30)
(0.00425897 0.00614202 1.40999e-30)
(0.00359942 0.00306788 -2.59169e-32)
(0.00254076 0.000865196 1.72907e-30)
(0.00180537 -0.000208288 1.11127e-30)
(0.00154355 -5.01485e-06 1.90833e-30)
(0.00199177 0.00192062 3.41314e-30)
(0.0036295 0.00581441 5.56123e-30)
(0.00679182 0.0112279 3.32423e-32)
(0.0109103 0.0166292 -4.97566e-30)
(0.0143415 0.0201265 -4.29536e-30)
(0.0157813 0.0209173 -8.83839e-30)
(0.0152333 0.0196367 -7.8138e-30)
(0.0136004 0.0175203 -7.804e-31)
(0.011816 0.0155151 0)
(0.0103748 0.0139967 0)
(0.00937353 0.0129574 -5.21493e-31)
(0.0087312 0.0122624 4.83985e-31)
(0.00833839 0.011785 -4.15785e-33)
(0.00810959 0.0114383 -4.07469e-31)
(0.00798828 0.0111699 0)
(0.007939 0.0109486 0)
(0.00793974 0.0107564 1.70783e-31)
(0.00797629 0.0105817 2.34749e-31)
(0.00803936 0.0104175 0)
(0.00812238 0.0102592 0)
(0.00822074 0.0101035 -1.31408e-31)
(0.0083309 0.00994815 -1.22017e-31)
(0.00845025 0.00979157 -4.44956e-31)
(0.0085767 0.00963257 -8.25783e-39)
(0.00870865 0.00947029 -8.49128e-39)
(0.00884479 0.00930407 5.30852e-31)
(0.00898414 0.00913337 4.75751e-32)
(0.00912572 0.00895789 -5.34276e-31)
(0.00926893 0.00877725 0)
(0.00941322 0.00859133 0)
(0.00955759 0.00840002 0)
(0.00970187 0.00820328 -6.51466e-31)
(0.00984549 0.00800098 0)
(0.00998819 0.00779321 0)
(0.0101295 0.00757996 5.74437e-31)
(0.0102691 0.00736137 1.3942e-32)
(0.0104067 0.00713747 -5.66909e-31)
(0.0105419 0.00690846 -7.32175e-31)
(0.0106746 0.00667446 0)
(0.0108043 0.00643565 0)
(0.0109308 0.00619223 1.26576e-30)
(0.0110539 0.00594439 2.49978e-31)
(0.0111734 0.00569242 9.93111e-31)
(0.011289 0.00543648 1.26413e-30)
(0.0114005 0.00517695 -2.95961e-31)
(0.0115076 0.00491396 1.50867e-32)
(0.0116104 0.00464803 -9.56266e-31)
(0.0117082 0.00437921 -9.68359e-31)
(0.0118015 0.00410816 -9.96179e-31)
(0.0118895 0.0038349 -1.04262e-30)
(0.0119728 0.00356018 -1.56766e-30)
(0.0120503 0.003284 -7.07356e-33)
(0.0121233 0.00300714 3.2966e-31)
(0.01219 0.00272961 -3.46857e-31)
(0.0122524 0.00245215 -3.42254e-31)
(0.0123083 0.00217477 -3.33677e-31)
(0.0123601 0.00189808 3.31904e-31)
(0.0124054 0.0016222 0)
(0.0124466 0.00134742 -2.4791e-31)
(0.012482 0.00107391 -3.9613e-31)
(0.0125128 0.000801513 0)
(0.0125389 0.00053044 6.53897e-32)
(0.0125596 0.000261442 3.41394e-32)
(0.0125759 -4.98632e-06 1.51179e-32)
(-0.000925339 0.00317043 0)
(-0.00125375 0.00291301 -1.73701e-31)
(-0.00108289 0.00380172 9.61017e-32)
(-0.000627718 0.00514437 -1.04444e-31)
(6.59817e-05 0.0068944 9.87945e-31)
(0.00100708 0.00843009 -6.05523e-31)
(0.00179261 0.00969268 0)
(0.00256782 0.011063 0)
(0.00396124 0.0116808 6.147e-31)
(0.00454933 0.0100653 -6.73288e-31)
(0.00445468 0.00830386 -1.14576e-30)
(0.00432431 0.00591235 1.08894e-30)
(0.00372883 0.0032698 -9.08195e-31)
(0.00284044 0.00121994 -7.7876e-32)
(0.00207652 0.000145163 -3.23275e-30)
(0.00168802 0.000287714 -3.17546e-30)
(0.00195172 0.00196358 2.97482e-30)
(0.00324059 0.0053565 2.03406e-30)
(0.00581902 0.0101803 2.98551e-30)
(0.00938365 0.0153245 -6.9741e-31)
(0.0127538 0.0191526 4.55824e-30)
(0.0146626 0.0206257 4.0179e-30)
(0.0147506 0.0199437 -1.02024e-30)
(0.0135795 0.0181046 7.75706e-38)
(0.0119875 0.016091 -7.45588e-31)
(0.0105543 0.0144308 0)
(0.00948934 0.0132347 -4.18382e-31)
(0.00877617 0.0124162 -3.32863e-31)
(0.00832663 0.0118532 -5.45498e-31)
(0.00805658 0.0114503 5.1023e-31)
(0.00790521 0.011145 4.92219e-31)
(0.00783308 0.0108994 0)
(0.00781527 0.0106908 1.36565e-31)
(0.00783603 0.0105052 0)
(0.00788507 0.0103339 2.40271e-31)
(0.00795542 0.0101711 -1.04896e-30)
(0.00804207 0.0100129 3.08202e-31)
(0.00814138 0.0098566 1.40116e-32)
(0.00825068 0.00970009 -1.16219e-30)
(0.00836776 0.00954196 -1.54467e-39)
(0.00849101 0.00938119 -1.5836e-39)
(0.00861907 0.0092168 1.22656e-30)
(0.00875085 0.00904834 1.95324e-32)
(0.00888548 0.00887511 3.04965e-30)
(0.00902234 0.0086969 1.26792e-30)
(0.00916035 0.00851341 -5.61729e-31)
(0.0092992 0.00832454 0)
(0.00943829 0.00813007 -6.00176e-31)
(0.00957727 0.00793002 -6.16746e-31)
(0.00971563 0.00772431 -5.94633e-31)
(0.00985305 0.00751303 -5.96193e-31)
(0.00998913 0.00729622 5.7179e-31)
(0.0101236 0.00707398 5.72897e-31)
(0.010256 0.00684647 -6.86682e-31)
(0.0103861 0.0066138 0)
(0.0105137 0.00637621 -7.0655e-31)
(0.0106383 0.00613384 1.80986e-38)
(0.0107599 0.00588699 -7.214e-31)
(0.010878 0.00563581 -4.88354e-31)
(0.0109926 0.00538067 2.37548e-31)
(0.0111032 0.00512171 -2.59712e-38)
(0.0112098 0.00485941 -4.64133e-31)
(0.011312 0.00459388 -4.76544e-31)
(0.0114099 0.00432568 -7.25657e-31)
(0.0115028 0.00405494 7.20001e-31)
(0.0115914 0.0037823 0)
(0.0116745 0.00350787 1.80088e-31)
(0.0117531 0.00323236 9.29582e-31)
(0.011826 0.00295586 -3.35685e-31)
(0.0118943 0.0026791 -1.48987e-32)
(0.0119567 0.00240219 -6.83225e-32)
(0.0120147 0.00212573 0)
(0.0120667 0.0018499 0)
(0.0121142 0.0015751 0)
(0.0121564 0.00130155 1.35392e-31)
(0.0121939 0.00102926 -2.78118e-32)
(0.0122268 0.000758287 1.01376e-31)
(0.0122544 0.000488904 -8.02018e-32)
(0.0122778 0.000221909 2.43604e-39)
(0.0122963 -4.2153e-05 -9.89946e-33)
(-0.00063558 0.00363219 -2.94959e-33)
(-0.000976036 0.00306026 -1.06136e-31)
(-0.000965627 0.00359027 -7.66825e-32)
(-0.00065334 0.00472392 9.09287e-31)
(-7.21171e-05 0.00620968 8.40973e-31)
(0.000726851 0.00766348 6.08279e-31)
(0.00154865 0.00893881 1.49579e-30)
(0.00243183 0.010029 1.67305e-32)
(0.00357818 0.010414 7.853e-31)
(0.00428799 0.0093643 2.26567e-32)
(0.00444789 0.00772865 -6.892e-31)
(0.00431538 0.00560964 2.27319e-30)
(0.00381096 0.00337085 -7.49106e-31)
(0.00305353 0.00155952 2.59431e-30)
(0.00232231 0.000554016 3.56967e-31)
(0.00188071 0.000640189 -5.78479e-30)
(0.00200935 0.0020937 -1.08751e-30)
(0.0030236 0.00507417 0)
(0.00514721 0.00939023 0)
(0.00821456 0.0142135 2.19868e-30)
(0.011383 0.0181697 3.57639e-30)
(0.0135318 0.0201451 0)
(0.0141044 0.0200144 -6.86131e-31)
(0.0133712 0.0185138 -7.74586e-38)
(0.0120212 0.0165804 1.06511e-30)
(0.010653 0.0148408 1.15449e-30)
(0.00956029 0.0135172 0)
(0.00879315 0.0125845 2.64015e-38)
(0.00829381 0.0119376 -1.2777e-30)
(0.00798551 0.0114778 -1.10282e-30)
(0.00780608 0.0111351 1.12257e-30)
(0.00771284 0.0108648 1.15176e-30)
(0.00767821 0.0106398 1.08559e-30)
(0.0076848 0.0104433 1.25001e-30)
(0.00772127 0.0102648 2.00565e-31)
(0.00778013 0.0100975 0)
(0.00785604 0.00993667 0)
(0.00794538 0.00977916 -1.17306e-30)
(0.00804519 0.00962251 -8.76519e-31)
(0.00815346 0.00946508 -3.64988e-31)
(0.00826829 0.00930542 3.96764e-31)
(0.00838853 0.00914277 8.52218e-31)
(0.00851294 0.0089761 -1.29833e-30)
(0.00864077 0.00880499 0)
(0.00877095 0.0086289 0)
(0.00890297 0.00844761 -5.08741e-31)
(0.0090362 0.00826082 -1.79777e-30)
(0.00917015 0.00806842 -1.27436e-30)
(0.00930436 0.00787029 -2.3679e-30)
(0.00943836 0.00766641 -1.23434e-30)
(0.00957183 0.00745682 1.7874e-30)
(0.0097043 0.00724153 1.18565e-30)
(0.00983554 0.00702071 -6.29467e-31)
(0.00996509 0.00679442 0)
(0.0100928 0.00656289 -5.40964e-31)
(0.0102181 0.00632624 -1.20549e-30)
(0.010341 0.00608475 -1.74839e-38)
(0.0104609 0.00583857 -6.81857e-31)
(0.0105778 0.00558806 0)
(0.0106913 0.00533339 -4.76974e-31)
(0.0108013 0.00507494 -4.80326e-31)
(0.0109072 0.00481295 0)
(0.0110093 0.00454782 0)
(0.011107 0.00427984 -2.36109e-31)
(0.0112004 0.00400945 1.85106e-30)
(0.0112889 0.00373699 -1.16228e-30)
(0.011373 0.00346291 -1.19249e-30)
(0.0114519 0.0031876 8.7762e-31)
(0.0115261 0.00291152 2.96258e-31)
(0.0115951 0.00263507 6.37772e-31)
(0.0116591 0.00235868 3.03756e-31)
(0.0117181 0.00208274 -5.51954e-33)
(0.0117719 0.0018076 5.28173e-33)
(0.0118211 0.00153359 -1.14768e-30)
(0.0118651 0.00126088 -6.80641e-31)