/*--------------------------------*- C++ -*----------------------------------*\
  =========                 |
  \\      /  F ield         | OpenFOAM: The Open Source CFD Toolbox
   \\    /   O peration     | Website:  https://openfoam.org
    \\  /    A nd           | Version:  7
     \\/     M anipulation  |
\*---------------------------------------------------------------------------*/
FoamFile
{
    version     2.0;
    format      ascii;
    class       volVectorField;
    location    "20";
    object      Ur;
}
// * * * * * * * * * * * * * * * * * * * * * * * * * * * * * * * * * * * * * //

dimensions      [0 1 -1 0 0 0 0];

internalField   uniform (0 0 0);

boundaryField
{
    innerWall
    {
        type            calculated;
        value           nonuniform List<vector> 
320
(
(-0.000149646 -0.0152423 0)
(-0.000647482 -0.0219776 0)
(-0.00215685 -0.0439036 0)
(-0.00252527 -0.0366881 0)
(-0.00327346 -0.0369514 0)
(-0.00340087 -0.0313693 0)
(-0.00444949 -0.0346737 0)
(-0.00728752 -0.0491285 0)
(-0.00708572 -0.0420606 0)
(-0.00640939 -0.0339613 0)
(-0.00751011 -0.0359097 0)
(-0.00957198 -0.0416681 0)
(-0.00917589 -0.0366322 0)
(-0.0125 -0.0460472 0)
(-0.00898834 -0.0307128 0)
(-0.00497384 -0.0158352 0)
(-0.00479729 -0.0142858 0)
(-0.00505354 -0.0141237 0)
(-0.00532967 -0.0140212 0)
(-0.00560393 -0.0139139 0)
(-0.00587603 -0.0138012 0)
(-0.00614586 -0.0136831 0)
(-0.00641333 -0.0135598 0)
(-0.00667832 -0.0134313 0)
(-0.00694074 -0.0132976 0)
(-0.00720048 -0.0131588 0)
(-0.00745745 -0.0130149 0)
(-0.00771154 -0.0128659 0)
(-0.00796266 -0.012712 0)
(-0.00821071 -0.0125533 0)
(-0.0084556 -0.0123896 0)
(-0.00869722 -0.0122212 0)
(-0.00893549 -0.0120481 0)
(-0.00917032 -0.0118704 0)
(-0.00940161 -0.011688 0)
(-0.00962927 -0.0115012 0)
(-0.00985323 -0.0113099 0)
(-0.0100734 -0.0111143 0)
(-0.0102897 -0.0109143 0)
(-0.010502 -0.0107102 0)
(-0.0107102 -0.010502 0)
(-0.0109143 -0.0102897 0)
(-0.0111143 -0.0100734 0)
(-0.0113099 -0.00985323 0)
(-0.0115012 -0.00962927 0)
(-0.011688 -0.00940161 0)
(-0.0118704 -0.00917032 0)
(-0.0120481 -0.00893549 0)
(-0.0122212 -0.00869722 0)
(-0.0123896 -0.0084556 0)
(-0.0125533 -0.00821071 0)
(-0.012712 -0.00796266 0)
(-0.0128659 -0.00771154 0)
(-0.0130149 -0.00745745 0)
(-0.0131588 -0.00720048 0)
(-0.0132976 -0.00694074 0)
(-0.0134313 -0.00667832 0)
(-0.0135598 -0.00641333 0)
(-0.0136831 -0.00614586 0)
(-0.0138012 -0.00587603 0)
(-0.0139139 -0.00560393 0)
(-0.0140212 -0.00532967 0)
(-0.0141232 -0.00505335 0)
(-0.0142197 -0.00477509 0)
(-0.0143107 -0.00449498 0)
(-0.0143962 -0.00421314 0)
(-0.0144761 -0.00392968 0)
(-0.0145505 -0.00364471 0)
(-0.0146192 -0.00335832 0)
(-0.0146823 -0.00307065 0)
(-0.0147398 -0.00278179 0)
(-0.0147916 -0.00249185 0)
(-0.0148376 -0.00220096 0)
(-0.014878 -0.00190922 0)
(-0.0149126 -0.00161674 0)
(-0.0149415 -0.00132364 0)
(-0.0149646 -0.00103002 0)
(-0.0149819 -0.000736016 0)
(-0.0149935 -0.000441723 0)
(-0.0149993 -0.00014726 0)
(0.0149993 -0.00014726 0)
(0.0149935 -0.000441723 0)
(0.0149819 -0.000736016 0)
(0.0149646 -0.00103002 0)
(0.0149415 -0.00132364 0)
(0.0149126 -0.00161674 0)
(0.014878 -0.00190922 0)
(0.0148376 -0.00220096 0)
(0.0147916 -0.00249185 0)
(0.0147398 -0.00278179 0)
(0.0146823 -0.00307065 0)
(0.0146192 -0.00335832 0)
(0.0145505 -0.00364471 0)
(0.0144761 -0.00392968 0)
(0.0143962 -0.00421314 0)
(0.0143107 -0.00449498 0)
(0.0142197 -0.00477509 0)
(0.0141232 -0.00505335 0)
(0.0140212 -0.00532967 0)
(0.0139139 -0.00560395 0)
(0.0138249 -0.00588615 0)
(0.0141125 -0.00633871 0)
(0.0223824 -0.0105861 0)
(0.0465779 -0.0231595 0)
(0.0374128 -0.0195278 0)
(0.037462 -0.0204992 0)
(0.0380961 -0.0218289 0)
(0.0140815 -0.00844013 0)
(0.0127129 -0.00796318 0)
(0.0125533 -0.00821071 0)
(0.0123896 -0.0084556 0)
(0.0122212 -0.00869722 0)
(0.0120481 -0.00893549 0)
(0.0118704 -0.00917032 0)
(0.011688 -0.00940161 0)
(0.0115012 -0.00962927 0)
(0.0113099 -0.00985323 0)
(0.0111143 -0.0100734 0)
(0.0109143 -0.0102897 0)
(0.0107102 -0.010502 0)
(0.0105021 -0.0107104 0)
(0.0113951 -0.0120869 0)
(0.0356917 -0.0393798 0)
(0.0279834 -0.0321204 0)
(0.0228234 -0.0272602 0)
(0.0207345 -0.0257769 0)
(0.0242434 -0.0313814 0)
(0.0287837 -0.0388104 0)
(0.0223509 -0.0314072 0)
(0.0212326 -0.0311112 0)
(0.0183351 -0.0280323 0)
(0.0276045 -0.0440693 0)
(0.0219323 -0.0365919 0)
(0.0195812 -0.0341735 0)
(0.00773647 -0.0141383 0)
(0.00694103 -0.0132982 0)
(0.00667832 -0.0134313 0)
(0.00641333 -0.0135598 0)
(0.00614586 -0.0136831 0)
(0.00587603 -0.0138012 0)
(0.00560393 -0.0139139 0)
(0.00532967 -0.0140212 0)
(0.00505335 -0.0141232 0)
(0.00477509 -0.0142197 0)
(0.00449498 -0.0143107 0)
(0.00421314 -0.0143962 0)
(0.00392968 -0.0144761 0)
(0.00364471 -0.0145505 0)
(0.00335832 -0.0146192 0)
(0.00307065 -0.0146823 0)
(0.00278179 -0.0147398 0)
(0.00249185 -0.0147916 0)
(0.00220096 -0.0148376 0)
(0.00190922 -0.014878 0)
(0.00161674 -0.0149126 0)
(0.00132364 -0.0149415 0)
(0.00103002 -0.0149646 0)
(0.000736016 -0.0149819 0)
(0.000441723 -0.0149935 0)
(0.00014726 -0.0149993 0)
(0.00014726 0.0149993 0)
(0.000441723 0.0149935 0)
(0.000736016 0.0149819 0)
(0.00103002 0.0149646 0)
(0.00132364 0.0149415 0)
(0.00161674 0.0149126 0)
(0.00190922 0.014878 0)
(0.00220096 0.0148376 0)
(0.00249303 0.0147986 0)
(0.00298605 0.0158221 0)
(0.0084771 0.0405334 0)
(0.0105024 0.0457185 0)
(0.00927133 0.0370132 0)
(0.0108696 0.0400412 0)
(0.0131922 0.0450771 0)
(0.0112859 0.035931 0)
(0.0129977 0.0387055 0)
(0.0140822 0.039357 0)
(0.0135317 0.035599 0)
(0.0124231 0.0308452 0)
(0.0092688 0.0217699 0)
(0.00631778 0.0140659 0)
(0.00642574 0.0135861 0)
(0.00667836 0.0134314 0)
(0.00694074 0.0132976 0)
(0.00720048 0.0131588 0)
(0.00745745 0.0130149 0)
(0.00771154 0.0128659 0)
(0.00796266 0.012712 0)
(0.00821071 0.0125533 0)
(0.0084556 0.0123896 0)
(0.00869722 0.0122212 0)
(0.00893549 0.0120481 0)
(0.00917032 0.0118704 0)
(0.00940161 0.011688 0)
(0.00962927 0.0115012 0)
(0.00985323 0.0113099 0)
(0.0100734 0.0111143 0)
(0.0102897 0.0109143 0)
(0.010502 0.0107102 0)
(0.0107102 0.010502 0)
(0.0109143 0.0102897 0)
(0.0111143 0.0100734 0)
(0.0113099 0.00985323 0)
(0.0115012 0.00962927 0)
(0.011688 0.00940161 0)
(0.0118704 0.00917032 0)
(0.0120481 0.00893549 0)
(0.0122212 0.00869722 0)
(0.0123896 0.0084556 0)
(0.0125533 0.00821071 0)
(0.012712 0.00796266 0)
(0.0128659 0.00771154 0)
(0.0130149 0.00745745 0)
(0.0131588 0.00720048 0)
(0.0132976 0.00694074 0)
(0.0134313 0.00667832 0)
(0.0135598 0.00641333 0)
(0.0136831 0.00614586 0)
(0.0138012 0.00587603 0)
(0.0139139 0.00560393 0)
(0.0140212 0.00532967 0)
(0.0141232 0.00505335 0)
(0.0142197 0.00477509 0)
(0.0143107 0.00449498 0)
(0.0143962 0.00421314 0)
(0.0144761 0.00392968 0)
(0.0145505 0.00364471 0)
(0.0146192 0.00335832 0)
(0.0146823 0.00307065 0)
(0.0147398 0.00278179 0)
(0.0147916 0.00249185 0)
(0.0148376 0.00220096 0)
(0.014878 0.00190922 0)
(0.0149126 0.00161674 0)
(0.0149415 0.00132364 0)
(0.0149646 0.00103002 0)
(0.0149819 0.000736016 0)
(0.0149935 0.000441723 0)
(0.0149993 0.00014726 0)
(-0.0149993 0.00014726 0)
(-0.0149935 0.000441723 0)
(-0.0149819 0.000736016 0)
(-0.0149646 0.00103002 0)
(-0.0149415 0.00132364 0)
(-0.0149126 0.00161674 0)
(-0.014878 0.00190922 0)
(-0.0148376 0.00220096 0)
(-0.0147916 0.00249185 0)
(-0.0147398 0.00278179 0)
(-0.0146823 0.00307065 0)
(-0.0146192 0.00335832 0)
(-0.0145505 0.00364471 0)
(-0.0144761 0.00392968 0)
(-0.0143962 0.00421314 0)
(-0.0143107 0.00449498 0)
(-0.0142197 0.00477509 0)
(-0.0141232 0.00505335 0)
(-0.0140212 0.00532967 0)
(-0.0139139 0.00560393 0)
(-0.0138012 0.00587603 0)
(-0.0136831 0.00614586 0)
(-0.0135598 0.00641333 0)
(-0.0134313 0.00667832 0)
(-0.0132976 0.00694074 0)
(-0.0131588 0.00720048 0)
(-0.0130149 0.00745745 0)
(-0.0128659 0.00771154 0)
(-0.012712 0.00796266 0)
(-0.0125533 0.00821071 0)
(-0.0123896 0.0084556 0)
(-0.0127001 0.00903802 0)
(-0.0229878 0.0170489 0)
(-0.033947 0.0262254 0)
(-0.0269819 0.0217037 0)
(-0.0266036 0.0222736 0)
(-0.0350731 0.0305559 0)
(-0.0416468 0.0377464 0)
(-0.0241767 0.0227929 0)
(-0.0304368 0.029845 0)
(-0.0261186 0.0266365 0)
(-0.0220036 0.0233395 0)
(-0.010728 0.0118365 0)
(-0.00986468 0.011323 0)
(-0.00962939 0.0115013 0)
(-0.00940161 0.011688 0)
(-0.00917032 0.0118704 0)
(-0.00893549 0.0120481 0)
(-0.00869722 0.0122212 0)
(-0.0084556 0.0123896 0)
(-0.00821071 0.0125533 0)
(-0.00796266 0.012712 0)
(-0.00771154 0.0128659 0)
(-0.00745745 0.0130149 0)
(-0.00720048 0.0131588 0)
(-0.00694074 0.0132976 0)
(-0.00667832 0.0134313 0)
(-0.00641333 0.0135598 0)
(-0.00614586 0.0136831 0)
(-0.00587603 0.0138012 0)
(-0.00560393 0.0139139 0)
(-0.00532967 0.0140212 0)
(-0.00505335 0.0141232 0)
(-0.00477509 0.0142197 0)
(-0.00449498 0.0143107 0)
(-0.00421314 0.0143962 0)
(-0.00392968 0.0144761 0)
(-0.00364471 0.0145505 0)
(-0.00335832 0.0146192 0)
(-0.00307065 0.0146823 0)
(-0.00278179 0.0147398 0)
(-0.00249185 0.0147916 0)
(-0.00220096 0.0148376 0)
(-0.00190922 0.014878 0)
(-0.00161674 0.0149126 0)
(-0.00132364 0.0149415 0)
(-0.00103002 0.0149646 0)
(-0.000736016 0.0149819 0)
(-0.000441723 0.0149935 0)
(-0.00014726 0.0149993 0)
)
;
    }
    outerWall
    {
        type            calculated;
        value           uniform (0 0 0);
    }
    frontAndBack
    {
        type            empty;
    }
}


// ************************************************************************* //
