/*--------------------------------*- C++ -*----------------------------------*\
  =========                 |
  \\      /  F ield         | OpenFOAM: The Open Source CFD Toolbox
   \\    /   O peration     | Website:  https://openfoam.org
    \\  /    A nd           | Version:  7
     \\/     M anipulation  |
\*---------------------------------------------------------------------------*/
FoamFile
{
    version     2.0;
    format      ascii;
    class       volVectorField;
    location    "20";
    object      Us;
}
// * * * * * * * * * * * * * * * * * * * * * * * * * * * * * * * * * * * * * //

dimensions      [0 1 -1 0 0 0 0];

internalField   nonuniform List<vector> 
49920
(
(-1.17723e-10 -1.34662e-10 0)
(-7.32155e-11 -5.56822e-12 0)
(-4.93222e-11 3.05786e-11 0)
(-3.33026e-11 4.29141e-11 0)
(-1.9593e-11 4.69023e-11 0)
(-1.04955e-11 4.65805e-11 0)
(-3.7064e-12 4.67118e-11 0)
(2.25357e-12 4.5935e-11 0)
(8.0707e-12 4.76333e-11 0)
(1.58076e-11 4.95166e-11 0)
(2.49628e-11 4.83987e-11 0)
(3.6185e-11 4.32909e-11 0)
(4.85765e-11 3.18586e-11 0)
(5.94907e-11 1.11501e-11 0)
(6.06129e-11 -2.68792e-11 0)
(5.51008e-11 -1.20818e-10 0)
(-3.76439e-11 -2.18345e-10 0)
(5.50587e-10 1.62695e-09 0)
(1.44864e-08 1.29774e-08 0)
(5.04368e-08 3.26742e-08 0)
(1.06339e-07 5.63297e-08 0)
(1.7803e-07 8.0795e-08 0)
(2.61707e-07 1.03977e-07 0)
(3.54139e-07 1.24418e-07 0)
(4.52627e-07 1.41179e-07 0)
(5.5499e-07 1.53767e-07 0)
(6.59542e-07 1.62045e-07 0)
(7.6504e-07 1.66134e-07 0)
(8.70628e-07 1.66331e-07 0)
(9.75778e-07 1.63042e-07 0)
(1.08025e-06 1.56743e-07 0)
(1.18403e-06 1.47942e-07 0)
(1.28738e-06 1.37168e-07 0)
(1.39075e-06 1.24951e-07 0)
(1.49482e-06 1.1182e-07 0)
(1.60052e-06 9.82944e-08 0)
(1.70902e-06 8.48835e-08 0)
(1.82173e-06 7.20813e-08 0)
(1.9403e-06 6.03678e-08 0)
(2.06663e-06 5.02093e-08 0)
(2.20279e-06 4.20607e-08 0)
(2.35105e-06 3.6369e-08 0)
(2.51376e-06 3.35792e-08 0)
(2.69328e-06 3.41396e-08 0)
(2.89189e-06 3.85077e-08 0)
(3.11168e-06 4.71537e-08 0)
(3.35443e-06 6.0561e-08 0)
(3.62143e-06 7.92226e-08 0)
(3.9134e-06 1.0363e-07 0)
(4.23035e-06 1.34257e-07 0)
(4.57143e-06 1.71531e-07 0)
(4.9349e-06 2.15805e-07 0)
(5.31801e-06 2.67319e-07 0)
(5.71702e-06 3.26154e-07 0)
(6.12719e-06 3.92199e-07 0)
(6.54288e-06 4.65107e-07 0)
(6.95764e-06 5.44273e-07 0)
(7.36437e-06 6.28812e-07 0)
(7.75559e-06 7.17564e-07 0)
(8.12362e-06 8.09108e-07 0)
(8.46088e-06 9.01801e-07 0)
(8.7602e-06 9.93828e-07 0)
(9.01509e-06 1.08327e-06 0)
(9.22e-06 1.16818e-06 0)
(9.37055e-06 1.24667e-06 0)
(9.46374e-06 1.31696e-06 0)
(9.49802e-06 1.3775e-06 0)
(9.47341e-06 1.42698e-06 0)
(9.3914e-06 1.46439e-06 0)
(9.25489e-06 1.48908e-06 0)
(9.06806e-06 1.50072e-06 0)
(8.8361e-06 1.4993e-06 0)
(8.56501e-06 1.48516e-06 0)
(8.26131e-06 1.45891e-06 0)
(7.93178e-06 1.42138e-06 0)
(7.58319e-06 1.37363e-06 0)
(7.22208e-06 1.31682e-06 0)
(6.85454e-06 1.25222e-06 0)
(6.48607e-06 1.1811e-06 0)
(6.12149e-06 1.10475e-06 0)
(-1.29031e-07 3.70601e-08 0)
(-1.9005e-10 4.95022e-11 0)
(-1.15795e-10 8.4559e-11 0)
(-8.04285e-11 1.04287e-10 0)
(-5.04351e-11 1.18115e-10 0)
(-2.55433e-11 1.19249e-10 0)
(-5.31252e-12 1.19294e-10 0)
(8.02217e-12 1.15096e-10 0)
(1.8457e-11 1.20825e-10 0)
(3.88477e-11 1.31118e-10 0)
(6.48402e-11 1.26727e-10 0)
(9.20856e-11 1.10714e-10 0)
(1.18495e-10 7.99208e-11 0)
(1.40707e-10 3.15646e-11 0)
(1.59652e-10 -3.17479e-11 0)
(1.83615e-10 -1.39743e-10 0)
(1.75289e-10 -2.15033e-10 0)
(2.73152e-08 1.9862e-08 0)
(1.17746e-07 7.62298e-08 0)
(2.74097e-07 1.58353e-07 0)
(4.79235e-07 2.47452e-07 0)
(7.159e-07 3.30884e-07 0)
(9.71436e-07 4.02335e-07 0)
(1.23731e-06 4.59315e-07 0)
(1.50799e-06 5.01428e-07 0)
(1.78003e-06 5.29397e-07 0)
(2.05145e-06 5.44503e-07 0)
(2.32127e-06 5.48273e-07 0)
(2.58925e-06 5.4231e-07 0)
(2.85567e-06 5.28207e-07 0)
(3.12128e-06 5.07511e-07 0)
(3.38714e-06 4.81716e-07 0)
(3.65468e-06 4.52264e-07 0)
(3.92565e-06 4.20561e-07 0)
(4.20217e-06 3.8798e-07 0)
(4.48666e-06 3.55873e-07 0)
(4.78192e-06 3.25576e-07 0)
(5.09107e-06 2.98407e-07 0)
(5.4175e-06 2.75664e-07 0)
(5.76484e-06 2.58624e-07 0)
(6.13681e-06 2.48528e-07 0)
(6.53707e-06 2.46569e-07 0)
(6.96907e-06 2.53879e-07 0)
(7.43581e-06 2.71506e-07 0)
(7.93961e-06 3.00391e-07 0)
(8.48187e-06 3.41338e-07 0)
(9.06286e-06 3.94984e-07 0)
(9.68152e-06 4.61757e-07 0)
(1.03353e-05 5.41848e-07 0)
(1.10202e-05 6.35166e-07 0)
(1.17306e-05 7.4131e-07 0)
(1.24595e-05 8.59542e-07 0)
(1.31988e-05 9.88778e-07 0)
(1.3939e-05 1.12758e-06 0)
(1.46704e-05 1.27421e-06 0)
(1.53825e-05 1.42659e-06 0)
(1.60648e-05 1.58245e-06 0)
(1.67072e-05 1.73934e-06 0)
(1.73002e-05 1.89471e-06 0)
(1.78348e-05 2.046e-06 0)
(1.83034e-05 2.19073e-06 0)
(1.86994e-05 2.32657e-06 0)
(1.90177e-05 2.45138e-06 0)
(1.92544e-05 2.56327e-06 0)
(1.94071e-05 2.66066e-06 0)
(1.94747e-05 2.74223e-06 0)
(1.94573e-05 2.80697e-06 0)
(1.93566e-05 2.85418e-06 0)
(1.91753e-05 2.88339e-06 0)
(1.8917e-05 2.89439e-06 0)
(1.85867e-05 2.88722e-06 0)
(1.81899e-05 2.8621e-06 0)
(1.77332e-05 2.81945e-06 0)
(1.72236e-05 2.75987e-06 0)
(1.66688e-05 2.68411e-06 0)
(1.60766e-05 2.5931e-06 0)
(1.54551e-05 2.48788e-06 0)
(1.48121e-05 2.36963e-06 0)
(1.41556e-05 2.23962e-06 0)
(1.34927e-05 2.0992e-06 0)
(-6.14853e-08 1.58236e-07 0)
(3.70982e-09 1.18569e-07 0)
(-2.16724e-10 2.65192e-10 0)
(-1.24285e-10 1.75396e-10 0)
(-7.48391e-11 1.98444e-10 0)
(-3.24467e-11 1.99532e-10 0)
(3.17312e-12 2.08834e-10 0)
(1.61572e-11 1.88344e-10 0)
(1.34288e-11 1.98489e-10 0)
(4.87111e-11 1.96743e-10 0)
(9.30275e-11 1.88029e-10 0)
(1.35157e-10 1.62999e-10 0)
(1.80733e-10 1.23509e-10 0)
(2.31291e-10 5.72299e-11 0)
(2.95481e-10 -1.62269e-11 0)
(2.95512e-10 -1.30959e-10 0)
(4.71671e-08 3.65539e-08 0)
(1.94269e-07 1.46882e-07 0)
(4.50671e-07 3.14781e-07 0)
(7.86889e-07 4.96699e-07 0)
(1.16888e-06 6.61439e-07 0)
(1.5725e-06 7.96324e-07 0)
(1.98349e-06 8.99264e-07 0)
(2.39424e-06 9.72567e-07 0)
(2.80118e-06 1.01996e-06 0)
(3.20311e-06 1.04535e-06 0)
(3.6002e-06 1.05241e-06 0)
(3.99341e-06 1.04442e-06 0)
(4.38421e-06 1.02431e-06 0)
(4.77442e-06 9.94711e-07 0)
(5.16612e-06 9.58021e-07 0)
(5.56165e-06 9.16478e-07 0)
(5.96362e-06 8.7221e-07 0)
(6.3749e-06 8.27277e-07 0)
(6.7986e-06 7.83698e-07 0)
(7.23812e-06 7.43467e-07 0)
(7.69702e-06 7.08551e-07 0)
(8.17904e-06 6.80884e-07 0)
(8.68789e-06 6.6234e-07 0)
(9.2272e-06 6.54697e-07 0)
(9.80024e-06 6.596e-07 0)
(1.04097e-05 6.785e-07 0)
(1.10576e-05 7.12605e-07 0)
(1.17448e-05 7.62823e-07 0)
(1.24708e-05 8.29703e-07 0)
(1.32339e-05 9.13398e-07 0)
(1.40307e-05 1.01363e-06 0)
(1.48562e-05 1.12967e-06 0)
(1.57039e-05 1.26035e-06 0)
(1.65658e-05 1.40406e-06 0)
(1.74331e-05 1.55882e-06 0)
(1.82958e-05 1.72231e-06 0)
(1.91438e-05 1.89196e-06 0)
(1.99667e-05 2.06502e-06 0)
(2.07543e-05 2.23865e-06 0)
(2.14971e-05 2.41001e-06 0)
(2.21865e-05 2.57638e-06 0)
(2.28147e-05 2.73516e-06 0)
(2.33752e-05 2.88403e-06 0)
(2.38628e-05 3.02094e-06 0)
(2.42734e-05 3.14415e-06 0)
(2.46039e-05 3.25226e-06 0)
(2.48526e-05 3.3442e-06 0)
(2.50185e-05 3.4192e-06 0)
(2.51016e-05 3.47677e-06 0)
(2.51027e-05 3.51667e-06 0)
(2.50231e-05 3.53886e-06 0)
(2.48649e-05 3.54345e-06 0)
(2.46304e-05 3.53067e-06 0)
(2.43228e-05 3.50082e-06 0)
(2.39457e-05 3.45428e-06 0)
(2.3503e-05 3.39147e-06 0)
(2.29994e-05 3.31282e-06 0)
(2.24398e-05 3.2188e-06 0)
(2.18299e-05 3.10994e-06 0)
(2.11756e-05 2.98678e-06 0)
(2.04832e-05 2.84994e-06 0)
(1.97594e-05 2.70011e-06 0)
(1.90109e-05 2.53806e-06 0)
(1.82446e-05 2.36465e-06 0)
(1.34707e-08 4.78223e-07 0)
(3.10507e-08 2.47475e-07 0)
(5.2225e-09 4.28619e-09 0)
(-4.06005e-11 4.50595e-10 0)
(-3.78978e-10 4.50164e-09 0)
(3.51284e-09 4.42686e-08 0)
(4.88342e-09 3.48071e-08 0)
(6.35867e-09 3.6537e-08 0)
(-2.13595e-10 5.4191e-09 0)
(4.19638e-11 2.74983e-10 0)
(1.17192e-10 2.546e-10 0)
(1.82349e-10 2.20593e-10 0)
(2.99528e-10 2.09519e-10 0)
(4.65887e-10 1.65306e-10 0)
(4.52288e-10 1.19822e-11 0)
(8.95132e-08 7.46691e-08 0)
(3.27944e-07 2.72183e-07 0)
(7.10399e-07 5.55983e-07 0)
(1.18786e-06 8.53055e-07 0)
(1.71047e-06 1.11193e-06 0)
(2.24604e-06 1.31452e-06 0)
(2.77829e-06 1.46207e-06 0)
(3.30068e-06 1.56253e-06 0)
(3.81179e-06 1.62468e-06 0)
(4.31266e-06 1.65626e-06 0)
(4.80544e-06 1.66362e-06 0)
(5.29275e-06 1.65193e-06 0)
(5.77739e-06 1.62545e-06 0)
(6.26225e-06 1.58777e-06 0)
(6.75028e-06 1.54204e-06 0)
(7.24452e-06 1.49111e-06 0)
(7.74812e-06 1.43763e-06 0)
(8.26434e-06 1.38414e-06 0)
(8.7966e-06 1.3331e-06 0)
(9.34835e-06 1.28695e-06 0)
(9.9231e-06 1.24804e-06 0)
(1.05243e-05 1.21869e-06 0)
(1.11551e-05 1.2011e-06 0)
(1.18183e-05 1.19728e-06 0)
(1.25162e-05 1.20903e-06 0)
(1.32501e-05 1.23783e-06 0)
(1.40203e-05 1.28476e-06 0)
(1.48258e-05 1.35043e-06 0)
(1.56644e-05 1.43492e-06 0)
(1.65321e-05 1.53774e-06 0)
(1.74237e-05 1.65784e-06 0)
(1.83326e-05 1.79359e-06 0)
(1.92506e-05 1.94286e-06 0)
(2.01692e-05 2.1031e-06 0)
(2.10788e-05 2.27141e-06 0)
(2.19697e-05 2.44468e-06 0)
(2.28324e-05 2.6197e-06 0)
(2.36579e-05 2.79326e-06 0)
(2.44377e-05 2.9623e-06 0)
(2.51643e-05 3.12395e-06 0)
(2.58315e-05 3.27564e-06 0)
(2.6434e-05 3.41514e-06 0)
(2.69678e-05 3.54061e-06 0)
(2.74299e-05 3.65058e-06 0)
(2.78183e-05 3.74395e-06 0)
(2.8132e-05 3.82002e-06 0)
(2.83707e-05 3.87836e-06 0)
(2.85346e-05 3.91886e-06 0)
(2.86244e-05 3.94164e-06 0)
(2.86412e-05 3.94699e-06 0)
(2.85863e-05 3.93534e-06 0)
(2.84614e-05 3.90722e-06 0)
(2.82681e-05 3.86319e-06 0)
(2.80084e-05 3.80385e-06 0)
(2.76844e-05 3.72978e-06 0)
(2.72983e-05 3.6415e-06 0)
(2.68526e-05 3.53953e-06 0)
(2.63503e-05 3.4243e-06 0)
(2.57945e-05 3.29621e-06 0)
(2.51887e-05 3.15563e-06 0)
(2.4537e-05 3.00288e-06 0)
(2.38438e-05 2.83831e-06 0)
(2.31138e-05 2.66226e-06 0)
(2.23522e-05 2.47512e-06 0)
(2.15646e-05 2.27733e-06 0)
(1.56162e-07 1.14041e-06 0)
(1.65151e-07 7.30509e-07 0)
(1.01134e-07 3.10819e-07 0)
(6.44246e-10 2.13211e-09 0)
(-2.05008e-08 1.27786e-08 0)
(-3.0333e-09 6.47093e-08 0)
(1.27e-08 4.56132e-08 0)
(2.58313e-08 4.55797e-08 0)
(1.9189e-08 7.4157e-09 0)
(2.33555e-09 3.95666e-09 0)
(6.51829e-10 1.16592e-09 0)
(4.17061e-10 7.31953e-10 0)
(7.64003e-10 1.29041e-09 0)
(6.76418e-10 2.39108e-10 0)
(1.85201e-07 1.67989e-07 0)
(5.63741e-07 5.12216e-07 0)
(1.09807e-06 9.41879e-07 0)
(1.71764e-06 1.35803e-06 0)
(2.36412e-06 1.70282e-06 0)
(3.00529e-06 1.9614e-06 0)
(3.62864e-06 2.14211e-06 0)
(4.23209e-06 2.26003e-06 0)
(4.81802e-06 2.32944e-06 0)
(5.39029e-06 2.36184e-06 0)
(5.95308e-06 2.36599e-06 0)
(6.51041e-06 2.34865e-06 0)
(7.06605e-06 2.31508e-06 0)
(7.62356e-06 2.26958e-06 0)
(8.18638e-06 2.21581e-06 0)
(8.75784e-06 2.157e-06 0)
(9.34127e-06 2.09614e-06 0)
(9.93998e-06 2.03604e-06 0)
(1.05573e-05 1.97945e-06 0)
(1.11964e-05 1.92901e-06 0)
(1.18604e-05 1.88729e-06 0)
(1.25521e-05 1.85676e-06 0)
(1.3274e-05 1.83971e-06 0)
(1.40278e-05 1.83819e-06 0)
(1.48145e-05 1.85395e-06 0)
(1.56341e-05 1.88829e-06 0)
(1.64854e-05 1.94202e-06 0)
(1.73659e-05 2.01537e-06 0)
(1.82717e-05 2.10795e-06 0)
(1.91975e-05 2.21869e-06 0)
(2.0137e-05 2.34592e-06 0)
(2.10824e-05 2.48736e-06 0)
(2.20255e-05 2.64025e-06 0)
(2.29573e-05 2.80146e-06 0)
(2.38689e-05 2.96763e-06 0)
(2.47516e-05 3.13528e-06 0)
(2.55971e-05 3.30097e-06 0)
(2.63979e-05 3.46145e-06 0)
(2.71474e-05 3.61371e-06 0)
(2.78404e-05 3.75509e-06 0)
(2.84723e-05 3.88332e-06 0)
(2.904e-05 3.99658e-06 0)
(2.95413e-05 4.09343e-06 0)
(2.99749e-05 4.17288e-06 0)
(3.03401e-05 4.2343e-06 0)
(3.06372e-05 4.27741e-06 0)
(3.08665e-05 4.3022e-06 0)
(3.10291e-05 4.30893e-06 0)
(3.1126e-05 4.29802e-06 0)
(3.11586e-05 4.27007e-06 0)
(3.11281e-05 4.22575e-06 0)
(3.10358e-05 4.16578e-06 0)
(3.08832e-05 4.09093e-06 0)
(3.06715e-05 4.00194e-06 0)
(3.04019e-05 3.89952e-06 0)
(3.00759e-05 3.78433e-06 0)
(2.96947e-05 3.65697e-06 0)
(2.92599e-05 3.51794e-06 0)
(2.87731e-05 3.3677e-06 0)
(2.82363e-05 3.2066e-06 0)
(2.76516e-05 3.03493e-06 0)
(2.70215e-05 2.85293e-06 0)
(2.63489e-05 2.66081e-06 0)
(2.56372e-05 2.45873e-06 0)
(2.48901e-05 2.24687e-06 0)
(2.41117e-05 2.02546e-06 0)
(3.43919e-07 2.22409e-06 0)
(3.91878e-07 1.76803e-06 0)
(3.63405e-07 1.28919e-06 0)
(2.49209e-07 8.41315e-07 0)
(1.56141e-07 6.43831e-07 0)
(1.51581e-07 5.43627e-07 0)
(1.67879e-07 4.46014e-07 0)
(1.73549e-07 3.522e-07 0)
(1.52402e-07 2.38509e-07 0)
(8.50948e-08 1.13739e-07 0)
(3.06983e-09 1.05799e-09 0)
(8.76741e-10 1.12606e-09 0)
(8.81487e-08 7.10308e-08 0)
(4.4278e-07 4.3986e-07 0)
(9.93163e-07 9.85578e-07 0)
(1.67022e-06 1.55747e-06 0)
(2.39863e-06 2.06002e-06 0)
(3.12696e-06 2.45356e-06 0)
(3.83204e-06 2.73776e-06 0)
(4.50903e-06 2.93004e-06 0)
(5.16128e-06 3.05107e-06 0)
(5.79457e-06 3.11863e-06 0)
(6.41481e-06 3.14633e-06 0)
(7.02726e-06 3.14421e-06 0)
(7.63652e-06 3.11977e-06 0)
(8.2466e-06 3.07875e-06 0)
(8.86116e-06 3.02577e-06 0)
(9.48357e-06 2.96471e-06 0)
(1.01171e-05 2.89898e-06 0)
(1.07647e-05 2.83172e-06 0)
(1.14297e-05 2.76588e-06 0)
(1.21148e-05 2.70431e-06 0)
(1.28228e-05 2.64974e-06 0)
(1.35563e-05 2.60479e-06 0)
(1.43173e-05 2.57195e-06 0)
(1.51074e-05 2.55348e-06 0)
(1.59274e-05 2.55132e-06 0)
(1.67772e-05 2.56706e-06 0)
(1.76557e-05 2.60177e-06 0)
(1.85605e-05 2.65597e-06 0)
(1.94879e-05 2.72955e-06 0)
(2.04333e-05 2.8217e-06 0)
(2.13904e-05 2.93096e-06 0)
(2.23524e-05 3.05524e-06 0)
(2.33115e-05 3.19189e-06 0)
(2.42594e-05 3.33783e-06 0)
(2.51877e-05 3.48967e-06 0)
(2.60884e-05 3.64389e-06 0)
(2.69538e-05 3.79696e-06 0)
(2.77769e-05 3.94548e-06 0)
(2.85517e-05 4.08631e-06 0)
(2.92732e-05 4.21665e-06 0)
(2.99375e-05 4.33411e-06 0)
(3.05417e-05 4.43673e-06 0)
(3.10839e-05 4.52297e-06 0)
(3.1563e-05 4.59175e-06 0)
(3.19787e-05 4.64236e-06 0)
(3.23313e-05 4.67445e-06 0)
(3.26213e-05 4.68798e-06 0)
(3.28499e-05 4.68314e-06 0)
(3.30182e-05 4.66036e-06 0)
(3.31274e-05 4.62021e-06 0)
(3.3179e-05 4.56335e-06 0)
(3.31741e-05 4.49056e-06 0)
(3.31139e-05 4.40263e-06 0)
(3.29996e-05 4.30035e-06 0)
(3.28322e-05 4.18453e-06 0)
(3.26124e-05 4.05593e-06 0)
(3.23413e-05 3.91524e-06 0)
(3.20194e-05 3.76313e-06 0)
(3.16476e-05 3.60015e-06 0)
(3.12267e-05 3.42681e-06 0)
(3.07577e-05 3.24352e-06 0)
(3.02415e-05 3.05062e-06 0)
(2.96795e-05 2.84837e-06 0)
(2.90732e-05 2.63699e-06 0)
(2.84245e-05 2.41661e-06 0)
(2.77357e-05 2.18735e-06 0)
(2.70093e-05 1.94932e-06 0)
(2.62484e-05 1.70261e-06 0)
(5.22755e-07 3.61488e-06 0)
(6.41217e-07 3.22438e-06 0)
(7.00706e-07 2.81401e-06 0)
(6.88294e-07 2.41032e-06 0)
(6.53879e-07 2.07547e-06 0)
(6.60449e-07 1.80798e-06 0)
(6.94039e-07 1.57843e-06 0)
(7.27638e-07 1.35862e-06 0)
(7.48117e-07 1.14027e-06 0)
(7.39574e-07 9.30344e-07 0)
(7.3141e-07 8.095e-07 0)
(8.55909e-07 9.19077e-07 0)
(1.19069e-06 1.29235e-06 0)
(1.77916e-06 1.89074e-06 0)
(2.48944e-06 2.49043e-06 0)
(3.23734e-06 2.99101e-06 0)
(3.97744e-06 3.36975e-06 0)
(4.69334e-06 3.6372e-06 0)
(5.38417e-06 3.81449e-06 0)
(6.05509e-06 3.92276e-06 0)
(6.71249e-06 3.97935e-06 0)
(7.36216e-06 3.99739e-06 0)
(8.00897e-06 3.98654e-06 0)
(8.65697e-06 3.95406e-06 0)
(9.30966e-06 3.90552e-06 0)
(9.97017e-06 3.84545e-06 0)
(1.06414e-05 3.77768e-06 0)
(1.1326e-05 3.70561e-06 0)
(1.20268e-05 3.63239e-06 0)
(1.27462e-05 3.56097e-06 0)
(1.34867e-05 3.4942e-06 0)
(1.42504e-05 3.43481e-06 0)
(1.50391e-05 3.38538e-06 0)
(1.58542e-05 3.34833e-06 0)
(1.66965e-05 3.3258e-06 0)
(1.75659e-05 3.31961e-06 0)
(1.84615e-05 3.33115e-06 0)
(1.93814e-05 3.36128e-06 0)
(2.03224e-05 3.41028e-06 0)
(2.12803e-05 3.47776e-06 0)
(2.22496e-05 3.56266e-06 0)
(2.32243e-05 3.66329e-06 0)
(2.41971e-05 3.77733e-06 0)
(2.51606e-05 3.90198e-06 0)
(2.6107e-05 4.03406e-06 0)
(2.70287e-05 4.17015e-06 0)
(2.79183e-05 4.30676e-06 0)
(2.87694e-05 4.44047e-06 0)
(2.95759e-05 4.56803e-06 0)
(3.03332e-05 4.68652e-06 0)
(3.10373e-05 4.79337e-06 0)
(3.16853e-05 4.88642e-06 0)
(3.22752e-05 4.96396e-06 0)
(3.2806e-05 5.0247e-06 0)
(3.32772e-05 5.06776e-06 0)
(3.36889e-05 5.0926e-06 0)
(3.40419e-05 5.09902e-06 0)
(3.4337e-05 5.08709e-06 0)
(3.45753e-05 5.05709e-06 0)
(3.47582e-05 5.00948e-06 0)
(3.48869e-05 4.94483e-06 0)
(3.49627e-05 4.86384e-06 0)
(3.49867e-05 4.76723e-06 0)
(3.496e-05 4.65577e-06 0)
(3.48836e-05 4.53022e-06 0)
(3.47583e-05 4.39135e-06 0)
(3.45847e-05 4.23988e-06 0)
(3.43634e-05 4.07649e-06 0)
(3.40948e-05 3.90182e-06 0)
(3.37795e-05 3.71645e-06 0)
(3.34176e-05 3.52089e-06 0)
(3.30097e-05 3.31559e-06 0)
(3.25562e-05 3.10093e-06 0)
(3.20576e-05 2.87722e-06 0)
(3.15146e-05 2.64472e-06 0)
(3.09283e-05 2.40362e-06 0)
(3.02998e-05 2.15407e-06 0)
(2.96305e-05 1.89619e-06 0)
(2.89224e-05 1.63005e-06 0)
(2.81777e-05 1.35575e-06 0)
(6.73574e-07 5.11456e-06 0)
(8.73145e-07 4.81219e-06 0)
(1.03742e-06 4.49568e-06 0)
(1.16315e-06 4.17303e-06 0)
(1.26751e-06 3.85209e-06 0)
(1.3779e-06 3.5509e-06 0)
(1.50341e-06 3.27684e-06 0)
(1.64031e-06 3.02815e-06 0)
(1.78653e-06 2.81668e-06 0)
(1.94423e-06 2.67801e-06 0)
(2.14165e-06 2.68723e-06 0)
(2.45001e-06 2.90386e-06 0)
(2.91808e-06 3.29585e-06 0)
(3.51669e-06 3.74229e-06 0)
(4.17918e-06 4.13164e-06 0)
(4.86053e-06 4.43069e-06 0)
(5.54049e-06 4.64276e-06 0)
(6.21371e-06 4.78224e-06 0)
(6.88143e-06 4.86453e-06 0)
(7.54693e-06 4.90273e-06 0)
(8.21364e-06 4.90715e-06 0)
(8.88463e-06 4.88567e-06 0)
(9.56254e-06 4.84439e-06 0)
(1.02497e-05 4.78823e-06 0)
(1.09485e-05 4.72126e-06 0)
(1.16608e-05 4.64704e-06 0)
(1.23888e-05 4.56883e-06 0)
(1.31345e-05 4.48962e-06 0)
(1.38999e-05 4.41231e-06 0)
(1.46866e-05 4.33967e-06 0)
(1.54964e-05 4.27433e-06 0)
(1.63302e-05 4.21881e-06 0)
(1.7189e-05 4.1754e-06 0)
(1.80727e-05 4.14612e-06 0)
(1.89806e-05 4.13266e-06 0)
(1.99113e-05 4.13622e-06 0)
(2.08622e-05 4.15753e-06 0)
(2.18297e-05 4.19666e-06 0)
(2.28093e-05 4.25309e-06 0)
(2.37955e-05 4.32563e-06 0)
(2.4782e-05 4.41248e-06 0)
(2.57622e-05 4.51128e-06 0)
(2.67288e-05 4.61922e-06 0)
(2.76748e-05 4.73317e-06 0)
(2.85931e-05 4.84982e-06 0)
(2.94775e-05 4.96581e-06 0)
(3.0322e-05 5.07789e-06 0)
(3.11219e-05 5.18304e-06 0)
(3.1873e-05 5.27853e-06 0)
(3.25722e-05 5.36201e-06 0)
(3.32173e-05 5.43153e-06 0)
(3.38069e-05 5.48557e-06 0)
(3.43403e-05 5.52298e-06 0)
(3.48174e-05 5.54301e-06 0)
(3.52385e-05 5.54523e-06 0)
(3.56045e-05 5.5295e-06 0)
(3.59162e-05 5.49592e-06 0)
(3.61748e-05 5.44477e-06 0)
(3.63815e-05 5.37647e-06 0)
(3.65374e-05 5.29158e-06 0)
(3.66437e-05 5.1907e-06 0)
(3.67014e-05 5.07448e-06 0)
(3.67114e-05 4.94361e-06 0)
(3.66746e-05 4.79877e-06 0)
(3.65915e-05 4.64061e-06 0)
(3.64626e-05 4.46978e-06 0)
(3.62885e-05 4.28689e-06 0)
(3.60693e-05 4.0925e-06 0)
(3.58053e-05 3.88715e-06 0)
(3.54967e-05 3.6713e-06 0)
(3.51435e-05 3.44541e-06 0)
(3.47459e-05 3.20984e-06 0)
(3.43041e-05 2.96495e-06 0)
(3.38184e-05 2.71101e-06 0)
(3.32891e-05 2.44827e-06 0)
(3.27168e-05 2.17694e-06 0)
(3.21024e-05 1.89719e-06 0)
(3.14467e-05 1.60915e-06 0)
(3.07511e-05 1.31295e-06 0)
(3.00174e-05 1.00869e-06 0)
(8.04078e-07 6.59408e-06 0)
(1.08362e-06 6.3575e-06 0)
(1.3467e-06 6.11086e-06 0)
(1.59432e-06 5.85682e-06 0)
(1.83314e-06 5.59827e-06 0)
(2.07385e-06 5.34634e-06 0)
(2.32529e-06 5.11494e-06 0)
(2.59278e-06 4.91876e-06 0)
(2.88115e-06 4.77888e-06 0)
(3.19844e-06 4.72527e-06 0)
(3.56118e-06 4.78495e-06 0)
(3.99202e-06 4.95247e-06 0)
(4.50053e-06 5.18149e-06 0)
(5.06929e-06 5.40852e-06 0)
(5.67714e-06 5.59523e-06 0)
(6.308e-06 5.73164e-06 0)
(6.95344e-06 5.82062e-06 0)
(7.61014e-06 5.86899e-06 0)
(8.27744e-06 5.88394e-06 0)
(8.95574e-06 5.87186e-06 0)
(9.64585e-06 5.8381e-06 0)
(1.03488e-05 5.78717e-06 0)
(1.10656e-05 5.72295e-06 0)
(1.17974e-05 5.64885e-06 0)
(1.25456e-05 5.56801e-06 0)
(1.33114e-05 5.48338e-06 0)
(1.40962e-05 5.39777e-06 0)
(1.49014e-05 5.31391e-06 0)
(1.5728e-05 5.23443e-06 0)
(1.65771e-05 5.16185e-06 0)
(1.74493e-05 5.09855e-06 0)
(1.83448e-05 5.04672e-06 0)
(1.9263e-05 5.00826e-06 0)
(2.02028e-05 4.9847e-06 0)
(2.11624e-05 4.97716e-06 0)
(2.21387e-05 4.98623e-06 0)
(2.31282e-05 5.01191e-06 0)
(2.4126e-05 5.05362e-06 0)
(2.5127e-05 5.11014e-06 0)
(2.61249e-05 5.17968e-06 0)
(2.71136e-05 5.25995e-06 0)
(2.80863e-05 5.34824e-06 0)
(2.90364e-05 5.44156e-06 0)
(2.99579e-05 5.53677e-06 0)
(3.08448e-05 5.63071e-06 0)
(3.16923e-05 5.72033e-06 0)
(3.24959e-05 5.80281e-06 0)
(3.32522e-05 5.87563e-06 0)
(3.39586e-05 5.93662e-06 0)
(3.46133e-05 5.98398e-06 0)
(3.52152e-05 6.01633e-06 0)
(3.57638e-05 6.03263e-06 0)
(3.6259e-05 6.03219e-06 0)
(3.67014e-05 6.01463e-06 0)
(3.70915e-05 5.97981e-06 0)
(3.74303e-05 5.92781e-06 0)
(3.77187e-05 5.85887e-06 0)
(3.79578e-05 5.77336e-06 0)
(3.81486e-05 5.67175e-06 0)
(3.8292e-05 5.55454e-06 0)
(3.83888e-05 5.42228e-06 0)
(3.84397e-05 5.27554e-06 0)
(3.84455e-05 5.11487e-06 0)
(3.84065e-05 4.94081e-06 0)
(3.83232e-05 4.75389e-06 0)
(3.81958e-05 4.55459e-06 0)
(3.80245e-05 4.34339e-06 0)
(3.78093e-05 4.12072e-06 0)
(3.75504e-05 3.88698e-06 0)
(3.72476e-05 3.64255e-06 0)
(3.6901e-05 3.38778e-06 0)
(3.65106e-05 3.12297e-06 0)
(3.60764e-05 2.84844e-06 0)
(3.55985e-05 2.56443e-06 0)
(3.50771e-05 2.27119e-06 0)
(3.45127e-05 1.96893e-06 0)
(3.39056e-05 1.65787e-06 0)
(3.32568e-05 1.33816e-06 0)
(3.25671e-05 1.00999e-06 0)
(3.18378e-05 6.73526e-07 0)
(9.21986e-07 8.01583e-06 0)
(1.27508e-06 7.82029e-06 0)
(1.62318e-06 7.61813e-06 0)
(1.96813e-06 7.41219e-06 0)
(2.31368e-06 7.20676e-06 0)
(2.66509e-06 7.00964e-06 0)
(3.02806e-06 6.83214e-06 0)
(3.40796e-06 6.68803e-06 0)
(3.80999e-06 6.59207e-06 0)
(4.23999e-06 6.5564e-06 0)
(4.70432e-06 6.582e-06 0)
(5.2076e-06 6.65264e-06 0)
(5.74978e-06 6.74124e-06 0)
(6.3262e-06 6.82291e-06 0)
(6.93206e-06 6.88414e-06 0)
(7.56293e-06 6.92055e-06 0)
(8.21559e-06 6.9323e-06 0)
(8.88796e-06 6.92148e-06 0)
(9.57885e-06 6.89081e-06 0)
(1.02876e-05 6.84317e-06 0)
(1.1014e-05 6.78137e-06 0)
(1.1758e-05 6.70815e-06 0)
(1.25201e-05 6.62616e-06 0)
(1.33008e-05 6.53802e-06 0)
(1.41008e-05 6.44628e-06 0)
(1.49207e-05 6.35349e-06 0)
(1.57615e-05 6.26214e-06 0)
(1.66237e-05 6.1747e-06 0)
(1.75077e-05 6.09353e-06 0)
(1.84138e-05 6.02088e-06 0)
(1.93417e-05 5.95879e-06 0)
(2.02905e-05 5.90906e-06 0)
(2.12587e-05 5.87313e-06 0)
(2.22441e-05 5.85202e-06 0)
(2.32437e-05 5.84626e-06 0)
(2.42538e-05 5.85585e-06 0)
(2.52697e-05 5.88021e-06 0)
(2.62863e-05 5.91818e-06 0)
(2.7298e-05 5.96808e-06 0)
(2.82987e-05 6.02774e-06 0)
(2.92824e-05 6.09462e-06 0)
(3.0243e-05 6.16593e-06 0)
(3.11748e-05 6.23873e-06 0)
(3.20728e-05 6.31008e-06 0)
(3.29324e-05 6.37714e-06 0)
(3.37498e-05 6.43729e-06 0)
(3.45218e-05 6.48818e-06 0)
(3.52463e-05 6.52779e-06 0)
(3.59216e-05 6.55445e-06 0)
(3.65467e-05 6.56687e-06 0)
(3.71212e-05 6.56407e-06 0)
(3.76451e-05 6.54538e-06 0)
(3.81187e-05 6.51044e-06 0)
(3.85426e-05 6.45908e-06 0)
(3.89175e-05 6.39133e-06 0)
(3.92442e-05 6.30737e-06 0)
(3.95235e-05 6.20748e-06 0)
(3.97561e-05 6.09203e-06 0)
(3.99428e-05 5.96141e-06 0)
(4.00843e-05 5.81605e-06 0)
(4.0181e-05 5.65637e-06 0)
(4.02333e-05 5.4828e-06 0)
(4.02415e-05 5.29575e-06 0)
(4.02059e-05 5.09559e-06 0)
(4.01266e-05 4.8827e-06 0)
(4.00036e-05 4.65741e-06 0)
(3.98369e-05 4.42004e-06 0)
(3.96265e-05 4.17088e-06 0)
(3.93722e-05 3.91023e-06 0)
(3.90739e-05 3.63836e-06 0)
(3.87316e-05 3.35552e-06 0)
(3.83451e-05 3.06197e-06 0)
(3.79145e-05 2.75796e-06 0)
(3.74397e-05 2.44372e-06 0)
(3.6921e-05 2.1195e-06 0)
(3.63585e-05 1.78552e-06 0)
(3.57528e-05 1.44201e-06 0)
(3.51043e-05 1.08919e-06 0)
(3.4414e-05 7.27305e-07 0)
(3.36827e-05 3.56573e-07 0)
(1.02946e-06 9.38708e-06 0)
(1.44904e-06 9.21604e-06 0)
(1.87009e-06 9.04087e-06 0)
(2.29429e-06 8.86481e-06 0)
(2.72424e-06 8.69224e-06 0)
(3.16321e-06 8.52905e-06 0)
(3.61485e-06 8.38273e-06 0)
(4.08284e-06 8.26149e-06 0)
(4.57066e-06 8.17216e-06 0)
(5.08134e-06 8.1174e-06 0)
(5.61705e-06 8.09293e-06 0)
(6.17877e-06 8.08804e-06 0)
(6.76652e-06 8.0899e-06 0)
(7.38e-06 8.08824e-06 0)
(8.01877e-06 8.07692e-06 0)
(8.68192e-06 8.05302e-06 0)
(9.36838e-06 8.01558e-06 0)
(1.00771e-05 7.96481e-06 0)
(1.08071e-05 7.90162e-06 0)
(1.15579e-05 7.82738e-06 0)
(1.23289e-05 7.74376e-06 0)
(1.31201e-05 7.65264e-06 0)
(1.39316e-05 7.55606e-06 0)
(1.47635e-05 7.45614e-06 0)
(1.56162e-05 7.35509e-06 0)
(1.64899e-05 7.25514e-06 0)
(1.73849e-05 7.15855e-06 0)
(1.83012e-05 7.06748e-06 0)
(1.92387e-05 6.98404e-06 0)
(2.01967e-05 6.91014e-06 0)
(2.11741e-05 6.84745e-06 0)
(2.21692e-05 6.79734e-06 0)
(2.31797e-05 6.76079e-06 0)
(2.42025e-05 6.73832e-06 0)
(2.5234e-05 6.72994e-06 0)
(2.62696e-05 6.73515e-06 0)
(2.73047e-05 6.7529e-06 0)
(2.83337e-05 6.78166e-06 0)
(2.93512e-05 6.81944e-06 0)
(3.03514e-05 6.86392e-06 0)
(3.1329e-05 6.91251e-06 0)
(3.22787e-05 6.96251e-06 0)
(3.31958e-05 7.0112e-06 0)
(3.40762e-05 7.05596e-06 0)
(3.49163e-05 7.09433e-06 0)
(3.57134e-05 7.12413e-06 0)
(3.64653e-05 7.14346e-06 0)
(3.71706e-05 7.15076e-06 0)
(3.78283e-05 7.14477e-06 0)
(3.84379e-05 7.12457e-06 0)
(3.89993e-05 7.0895e-06 0)
(3.95128e-05 7.03915e-06 0)
(3.99786e-05 6.97332e-06 0)
(4.03974e-05 6.89198e-06 0)
(4.07697e-05 6.79523e-06 0)
(4.1096e-05 6.68325e-06 0)
(4.13769e-05 6.55629e-06 0)
(4.16129e-05 6.41463e-06 0)
(4.18043e-05 6.25856e-06 0)
(4.19515e-05 6.08838e-06 0)
(4.20546e-05 5.90437e-06 0)
(4.21138e-05 5.70678e-06 0)
(4.21291e-05 5.49588e-06 0)
(4.21004e-05 5.27187e-06 0)
(4.20277e-05 5.03496e-06 0)
(4.19108e-05 4.78534e-06 0)
(4.17496e-05 4.52319e-06 0)
(4.15439e-05 4.24869e-06 0)
(4.12934e-05 3.962e-06 0)
(4.09981e-05 3.6633e-06 0)
(4.06578e-05 3.35277e-06 0)
(4.02724e-05 3.03061e-06 0)
(3.98419e-05 2.69702e-06 0)
(3.93662e-05 2.35221e-06 0)
(3.88455e-05 1.99641e-06 0)
(3.82801e-05 1.62986e-06 0)
(3.76703e-05 1.25282e-06 0)
(3.70166e-05 8.65556e-07 0)
(3.63197e-05 4.68345e-07 0)
(3.55805e-05 6.149e-08 0)
(1.12602e-06 1.07245e-05 0)
(1.60653e-06 1.05678e-05 0)
(2.09226e-06 1.04082e-05 0)
(2.58461e-06 1.02486e-05 0)
(3.08547e-06 1.00928e-05 0)
(3.59707e-06 9.94483e-06 0)
(4.12183e-06 9.80925e-06 0)
(4.66213e-06 9.69025e-06 0)
(5.22009e-06 9.59048e-06 0)
(5.79736e-06 9.50983e-06 0)
(6.39511e-06 9.44493e-06 0)
(7.01412e-06 9.3901e-06 0)
(7.65508e-06 9.33918e-06 0)
(8.31869e-06 9.28708e-06 0)
(9.00542e-06 9.23024e-06 0)
(9.71534e-06 9.16645e-06 0)
(1.04482e-05 9.09457e-06 0)
(1.12035e-05 9.01428e-06 0)
(1.1981e-05 8.9259e-06 0)
(1.278e-05 8.83023e-06 0)
(1.36005e-05 8.72843e-06 0)
(1.44422e-05 8.62199e-06 0)
(1.53051e-05 8.51257e-06 0)
(1.61892e-05 8.40202e-06 0)
(1.70946e-05 8.29227e-06 0)
(1.8021e-05 8.18531e-06 0)
(1.89684e-05 8.08313e-06 0)
(1.99361e-05 7.98764e-06 0)
(2.09234e-05 7.90061e-06 0)
(2.1929e-05 7.82362e-06 0)
(2.2951e-05 7.75797e-06 0)
(2.39871e-05 7.70461e-06 0)
(2.50344e-05 7.66408e-06 0)
(2.60891e-05 7.63645e-06 0)
(2.71472e-05 7.62131e-06 0)
(2.82041e-05 7.61777e-06 0)
(2.92547e-05 7.62447e-06 0)
(3.0294e-05 7.63964e-06 0)
(3.13166e-05 7.66118e-06 0)
(3.23176e-05 7.68675e-06 0)
(3.3292e-05 7.71388e-06 0)
(3.42356e-05 7.74007e-06 0)
(3.51444e-05 7.76289e-06 0)
(3.60152e-05 7.78007e-06 0)
(3.68454e-05 7.78956e-06 0)
(3.7633e-05 7.78957e-06 0)
(3.83764e-05 7.77861e-06 0)
(3.90746e-05 7.75548e-06 0)
(3.97271e-05 7.71925e-06 0)
(4.03337e-05 7.66926e-06 0)
(4.08943e-05 7.60507e-06 0)
(4.14091e-05 7.52643e-06 0)
(4.18785e-05 7.43322e-06 0)
(4.23028e-05 7.32545e-06 0)
(4.26823e-05 7.2032e-06 0)
(4.30172e-05 7.06661e-06 0)
(4.33079e-05 6.91584e-06 0)
(4.35544e-05 6.75104e-06 0)
(4.37569e-05 6.57237e-06 0)
(4.39152e-05 6.37998e-06 0)
(4.40294e-05 6.17399e-06 0)
(4.40993e-05 5.9545e-06 0)
(4.41246e-05 5.72159e-06 0)
(4.41052e-05 5.47533e-06 0)
(4.40407e-05 5.21576e-06 0)
(4.39308e-05 4.94294e-06 0)
(4.37754e-05 4.65693e-06 0)
(4.35741e-05 4.35777e-06 0)
(4.33267e-05 4.04554e-06 0)
(4.3033e-05 3.72032e-06 0)
(4.26928e-05 3.38222e-06 0)
(4.23061e-05 3.03139e-06 0)
(4.18727e-05 2.66796e-06 0)
(4.13928e-05 2.29214e-06 0)
(4.08665e-05 1.90414e-06 0)
(4.02939e-05 1.5042e-06 0)
(3.96756e-05 1.0926e-06 0)
(3.90118e-05 6.69641e-07 0)
(3.83034e-05 2.35649e-07 0)
(3.7551e-05 -2.09014e-07 0)
(1.2105e-06 1.20419e-05 0)
(1.74801e-06 1.18929e-05 0)
(2.29323e-06 1.17415e-05 0)
(2.84725e-06 1.15898e-05 0)
(3.41144e-06 1.14406e-05 0)
(3.98742e-06 1.12968e-05 0)
(4.57684e-06 1.1161e-05 0)
(5.18131e-06 1.10355e-05 0)
(5.80226e-06 1.09212e-05 0)
(6.44087e-06 1.08178e-05 0)
(7.09811e-06 1.07232e-05 0)
(7.77486e-06 1.06345e-05 0)
(8.472e-06 1.05484e-05 0)
(9.19035e-06 1.04619e-05 0)
(9.93052e-06 1.03729e-05 0)
(1.06928e-05 1.02795e-05 0)
(1.14774e-05 1.01811e-05 0)
(1.22842e-05 1.00771e-05 0)
(1.3113e-05 9.9678e-06 0)
(1.39637e-05 9.85378e-06 0)
(1.4836e-05 9.73599e-06 0)
(1.57299e-05 9.6157e-06 0)
(1.66452e-05 9.49436e-06 0)
(1.75817e-05 9.37359e-06 0)
(1.85392e-05 9.25512e-06 0)
(1.95173e-05 9.14071e-06 0)
(2.05152e-05 9.03208e-06 0)
(2.15319e-05 8.93086e-06 0)
(2.25662e-05 8.83854e-06 0)
(2.36161e-05 8.75634e-06 0)
(2.46794e-05 8.6852e-06 0)
(2.5753e-05 8.62568e-06 0)
(2.68337e-05 8.57793e-06 0)
(2.79174e-05 8.54168e-06 0)
(2.89999e-05 8.51619e-06 0)
(3.00766e-05 8.50031e-06 0)
(3.11426e-05 8.49247e-06 0)
(3.21931e-05 8.49084e-06 0)
(3.32233e-05 8.4933e-06 0)
(3.42287e-05 8.49762e-06 0)
(3.52053e-05 8.50153e-06 0)
(3.61494e-05 8.50278e-06 0)
(3.70579e-05 8.49927e-06 0)
(3.79282e-05 8.48909e-06 0)
(3.87584e-05 8.47054e-06 0)
(3.95468e-05 8.44219e-06 0)
(4.02924e-05 8.40287e-06 0)
(4.09946e-05 8.35167e-06 0)
(4.16528e-05 8.2879e-06 0)
(4.22669e-05 8.21107e-06 0)
(4.2837e-05 8.12088e-06 0)
(4.3363e-05 8.01712e-06 0)
(4.3845e-05 7.89972e-06 0)
(4.42831e-05 7.76866e-06 0)
(4.46774e-05 7.62395e-06 0)
(4.50278e-05 7.46563e-06 0)
(4.53344e-05 7.29374e-06 0)
(4.55968e-05 7.10831e-06 0)
(4.58149e-05 6.90933e-06 0)
(4.59884e-05 6.69679e-06 0)
(4.6117e-05 6.47065e-06 0)
(4.62002e-05 6.23086e-06 0)
(4.62377e-05 5.97734e-06 0)
(4.62291e-05 5.71001e-06 0)
(4.61739e-05 5.42878e-06 0)
(4.60718e-05 5.13358e-06 0)
(4.59223e-05 4.82433e-06 0)
(4.57252e-05 4.50099e-06 0)
(4.54802e-05 4.16353e-06 0)
(4.5187e-05 3.81194e-06 0)
(4.48455e-05 3.44628e-06 0)
(4.44555e-05 3.06662e-06 0)
(4.4017e-05 2.67306e-06 0)
(4.35302e-05 2.26577e-06 0)
(4.29951e-05 1.84494e-06 0)
(4.24121e-05 1.41082e-06 0)
(4.17814e-05 9.63689e-07 0)
(4.11035e-05 5.03878e-07 0)
(4.03792e-05 3.17552e-08 0)
(3.96092e-05 -4.52266e-07 0)
(1.28145e-06 1.33488e-05 0)
(1.87336e-06 1.32034e-05 0)
(2.47481e-06 1.30552e-05 0)
(3.08665e-06 1.29061e-05 0)
(3.70991e-06 1.2758e-05 0)
(4.34576e-06 1.26127e-05 0)
(4.99542e-06 1.24721e-05 0)
(5.66007e-06 1.23374e-05 0)
(6.34079e-06 1.22092e-05 0)
(7.03855e-06 1.2087e-05 0)
(7.75425e-06 1.19699e-05 0)
(8.48874e-06 1.18562e-05 0)
(9.24288e-06 1.17441e-05 0)