/*--------------------------------*- C++ -*----------------------------------*\
  =========                 |
  \\      /  F ield         | OpenFOAM: The Open Source CFD Toolbox
   \\    /   O peration     | Website:  https://openfoam.org
    \\  /    A nd           | Version:  7
     \\/     M anipulation  |
\*---------------------------------------------------------------------------*/
FoamFile
{
    version     2.0;
    format      ascii;
    class       volScalarField;
    location    "2500";
    object      alpha.wetting;
}
// * * * * * * * * * * * * * * * * * * * * * * * * * * * * * * * * * * * * * //

dimensions      [0 0 0 0 0 0 0];

internalField   nonuniform List<scalar> 
160000
(
0.527592
0.527592
0.425455
0.442298
0.416773
0.407181
0.483173
0.58514
0.493963
0.485535
0.470784
0.451257
0.434954
0.513711
0.496732
0.457084
0.457084
0.491954
0.573396
0.573395
0.437501
0.433896
0.507851
0.497639
0.396568
0.396568
0.539291
0.5393
0.539292
0.539301
0.539288
0.415755
0.415752
0.415754
0.415752
0.421059
0.568413
0.568415
0.568416
0.568418
0.387594
0.387594
0.417222
0.558942
0.558944
0.558946
0.558948
0.426732
0.426732
0.426732
0.426732
0.568769
0.568773
0.568793
0.568771
0.568798
0.491487
0.466301
0.466302
0.502118
0.50214
0.502118
0.502137
0.502118
0.502136
0.476975
0.443337
0.443337
0.443337
0.513603
0.516192
0.516181
0.516201
0.516187
0.51621
0.516193
0.516208
0.516196
0.516212
0.5162
0.516205
0.50293
0.492818
0.492819
0.500573
0.50057
0.488279
0.476898
0.476901
0.469138
0.469148
0.506457
0.506491
0.506457
0.506487
0.506483
0.512148
0.51214
0.512148
0.51214
0.512157
0.507022
0.502196
0.502194
0.513324
0.484637
0.484638
0.525092
0.525128
0.525092
0.525133
0.525102
0.525144
0.525102
0.506805
0.487789
0.48779
0.544297
0.544297
0.544319
0.544304
0.544314
0.544766
0.54477
0.544774
0.544776
0.477646
0.458911
0.458952
0.458913
0.458952
0.458944
0.553161
0.553158
0.545252
0.467975
0.468002
0.467967
0.468001
0.467992
0.502442
0.479197
0.479199
0.526777
0.526715
0.526784
0.526715
0.526812
0.526715
0.514126
0.511339
0.509909
0.505586
0.497757
0.497769
0.529032
0.529065
0.529032
0.508578
0.486189
0.486187
0.486185
0.456837
0.456836
0.456837
0.518241
0.518239
0.518247
0.518243
0.518268
0.518236
0.518278
0.47103
0.485661
0.485067
0.485067
0.517237
0.500372
0.500378
0.50038
0.500381
0.513224
0.51319
0.514035
0.546437
0.565514
0.531048
0.492135
0.49214
0.525531
0.482383
0.409515
0.39352
0.390629
0.390655
0.390802
0.511413
0.377701
0.350021
0.349898
0.350014
0.349942
0.350031
0.401406
0.533504
0.53386
0.520204
0.465679
0.465643
0.465684
0.465649
0.465697
0.465679
0.467697
0.477814
0.477822
0.477833
0.512278
0.512262
0.498467
0.465236
0.465263
0.465248
0.50965
0.583672
0.586281
0.586224
0.586284
0.507657
0.478388
0.478348
0.546231
0.571197
0.57118
0.563977
0.497333
0.463764
0.469367
0.469343
0.483615
0.483629
0.507293
0.563272
0.57125
0.566576
0.565641
0.565666
0.565641
0.476461
0.242874
0.236273
0.236214
0.23647
0.288257
0.385416
0.449185
0.449159
0.449195
0.520651
0.419074
0.419156
0.419116
0.419162
0.422896
0.541273
0.541237
0.520998
0.521007
0.58087
0.580906
0.575407
0.438262
0.438156
0.438241
0.438208
0.490697
0.594887
0.594985
0.594862
0.477721
0.45813
0.488401
0.488401
0.486227
0.434859
0.435013
0.434889
0.434992
0.451068
0.510909
0.511021
0.511024
0.616591
0.619303
0.619335
0.619366
0.546788
0.546802
0.59112
0.531558
0.302254
0.16917
0.168421
0.16917
0.168633
0.169176
0.169289
0.199883
0.235465
0.31848
0.416961
0.455496
0.522158
0.524334
0.48691
0.412028
0.411865
0.412015
0.411977
0.477412
0.52421
0.548814
0.61301
0.613021
0.559743
0.415767
0.416072
0.41587
0.416158
0.415951
0.416167
0.416138
0.416247
0.416183
0.416258
0.416272
0.41634
0.504125
0.438838
0.334625
0.334655
0.334655
0.334655
0.334655
0.616388
0.639304
0.639483
0.639277
0.479794
0.446881
0.447079
0.447011
0.491921
0.547971
0.548068
0.547974
0.548073
0.508526
0.501188
0.501187
0.501188
0.530187
0.554625
0.554626
0.554876
0.554643
0.554836
0.554661
0.554992
0.480584
0.473205
0.473063
0.473187
0.473128
0.473187
0.473147
0.4732
0.508745
0.519548
0.541373
0.541376
0.541379
0.548222
0.548209
0.548198
0.548188
0.507919
0.505121
0.50512
0.510896
0.507565
0.485449
0.4767
0.386678
0.339795
0.254559
0.170496
0.170593
0.170607
0.170636
0.459007
0.459169
0.577473
0.416472
0.41647
0.425668
0.476408
0.476406
0.480182
0.480593
0.483533
0.496619
0.517939
0.517948
0.517939
0.504559
0.457084
0.498882
0.498885
0.434951
0.434952
0.507851
0.507851
0.507851
0.442801
0.539288
0.5393
0.539292
0.539301
0.539288
0.494958
0.427423
0.416945
0.415752
0.415754
0.568403
0.568404
0.509425
0.568416
0.472792
0.387594
0.387594
0.411206
0.554323
0.558944
0.558946
0.558947
0.483603
0.43956
0.426732
0.426732
0.544921
0.534112
0.518751
0.518775
0.568766
0.546086
0.494379
0.502118
0.502129
0.502118
0.50214
0.502118
0.502137
0.502118
0.47714
0.502628
0.513592
0.513595
0.513596
0.461194
0.455665
0.455659
0.496198
0.472206
0.471948
0.471938
0.471949
0.511699
0.518333
0.509234
0.489585
0.500865
0.501915
0.501915
0.494907
0.488273
0.506448
0.506456
0.506479
0.506456
0.506482
0.506457
0.506492
0.499618
0.509456
0.50945
0.508366
0.461674
0.460694
0.460694
0.460694
0.512394
0.564556
0.525576
0.513409
0.513408
0.485007
0.483225
0.483253
0.483225
0.483252
0.524701
0.529999
0.544279
0.544282
0.544291
0.54429
0.544319
0.544297
0.544326
0.494648
0.489098
0.489098
0.489097
0.498418
0.481554
0.487269
0.486836
0.458952
0.45893
0.473516
0.553158
0.553169
0.553158
0.553177
0.565995
0.513283
0.476731
0.503848
0.526714
0.526713
0.526753
0.526714
0.526786
0.526715
0.503262
0.491322
0.491347
0.497434
0.478287
0.478298
0.506949
0.529037
0.529031
0.529061
0.529037
0.529055
0.494653
0.501747
0.501754
0.50176
0.456837
0.456837
0.460403
0.51822
0.514636
0.503927
0.518252
0.45397
0.454005
0.453964
0.454005
0.513068
0.513099
0.545837
0.54316
0.52234
0.527866
0.501121
0.516225
0.493961
0.493991
0.528381
0.577457
0.577465
0.548758
0.510094
0.58347
0.583452
0.583431
0.374386
0.294721
0.362359
0.409627
0.511457
0.511411
0.511496
0.349843
0.350004
0.349983
0.369904
0.3966
0.449813
0.53385
0.533831
0.527535
0.465634
0.465676
0.466694
0.471192
0.46952
0.487127
0.532326
0.535804
0.519053
0.54039
0.48979
0.465262
0.465234
0.46526
0.465251
0.493059
0.566428
0.586257
0.586224
0.586301
0.586218
0.586325
0.586208
0.586287
0.586196
0.586288
0.466699
0.466825
0.484457
0.463749
0.463749
0.463749
0.463758
0.463757
0.517239
0.587747
0.587746
0.587746
0.646474
0.646405
0.466282
0.235766
0.236126
0.235917
0.236281
0.35012
0.417335
0.434756
0.447777
0.447781
0.520604
0.520625
0.419161
0.419116
0.419148
0.436736
0.520841
0.541527
0.520657
0.520656
0.58087
0.580906
0.580871
0.444573
0.438138
0.438241
0.438156
0.438241
0.5491
0.594985
0.594865
0.562223
0.435132
0.458115
0.488401
0.475307
0.434887
0.43503
0.434873
0.435017
0.434985
0.443847
0.45869
0.481354
0.583863
0.616536
0.575538
0.575524
0.744024
0.749267
0.666228
0.750791
0.75091
0.324387
0.168373
0.168985
0.168845
0.195172
0.2583
0.320672
0.380937
0.431643
0.476047
0.508541
0.524254
0.524334
0.524254
0.513013
0.411827
0.411989
0.411965
0.462136
0.535093
0.580988
0.613008
0.61301
0.613197
0.604052
0.416072
0.415862
0.416072
0.41602
0.416158
0.446282
0.504282
0.48551
0.47663
0.475749
0.435471
0.44213
0.517938
0.518154
0.44529
0.461457
0.489736
0.400066
0.485248
0.639277
0.639456
0.639184
0.447079
0.446868
0.447056
0.446968
0.447079
0.501127
0.548026
0.547973
0.548031
0.54798
0.548009
0.547983
0.548017
0.547996
0.554342
0.554612
0.554789
0.554626
0.554927
0.553353
0.475414
0.475355
0.475414
0.490775
0.49585
0.492193
0.478009
0.49326
0.493273
0.530904
0.530921
0.530931
0.541355
0.540101
0.540099
0.548329
0.5348
0.534743
0.548179
0.508108
0.510285
0.559778
0.559729
0.536826
0.536841
0.536833
0.449397
0.439936
0.373008
0.183277
0.170598
0.170634
0.170641
0.459007
0.498815
0.577473
0.577473
0.567135
0.473082
0.518474
0.518472
0.494234
0.510798
0.510801
0.510803
0.512736
0.517939
0.517949
0.517938
0.517951
0.447033
0.449038
0.48621
0.486211
0.484958
0.484956
0.494663
0.539285
0.53929
0.539288
0.539303
0.539288
0.531753
0.504682
0.498794
0.463822
0.415756
0.415754
0.523753
0.538556
0.491626
0.491628
0.494755
0.52181
0.519416
0.495738
0.514927
0.45049
0.43862
0.465744
0.487932
0.487934
0.487932
0.47753
0.477526
0.50488
0.544231
0.56281
0.568767
0.565846
0.482115
0.4643
0.464299
0.48236
0.502118
0.502138
0.41439
0.444234
0.444237
0.444233
0.444239
0.458384
0.513595
0.513589
0.512437
0.455665
0.455664
0.518304
0.518321
0.518334
0.518328
0.51834
0.518334
0.521874
0.466935
0.458359
0.458359
0.50192
0.503056
0.521884
0.47308
0.472065
0.476166
0.487752
0.480193
0.480195
0.479252
0.479266
0.498179
0.509456
0.509443
0.500028
0.488758
0.544687
0.557595
0.514925
0.564564
0.570677
0.483296
0.472397
0.472398
0.518278
0.518278
0.51828
0.518281
0.518284
0.509343
0.520714
0.520711
0.537987
0.526884
0.467897
0.451785
0.451934
0.497618
0.500198
0.500195
0.493558
0.493556
0.503208
0.509165
0.509165
0.509166
0.531895
0.531898
0.531904
0.531168
0.53117
0.531168
0.566005
0.565995
0.513366
0.497768
0.526706
0.47634
0.476309
0.512349
0.521903
0.52188
0.521883
0.494374
0.491322
0.492263
0.505884
0.505872
0.508838
0.508829
0.48096
0.480957
0.529051
0.487112
0.467549
0.467551
0.487269
0.53416
0.534203
0.534159
0.499936
0.482793
0.482793
0.503937
0.56451
0.483202
0.453893
0.454005
0.453903
0.454005
0.453991
0.554212
0.554209
0.55422
0.554209
0.554219
0.517986
0.468093
0.504285
0.547184
0.549242
0.57748
0.583524
0.583509
0.58349
0.583473
0.272619
0.204268
0.264266
0.395463
0.468859
0.511411
0.51149
0.511422
0.492709
0.411139
0.411667
0.441069
0.497117
0.53299
0.509364
0.467759
0.465683
0.465697
0.469547
0.482168
0.483369
0.492686
0.534069
0.545995
0.546015
0.546005
0.546018
0.546016
0.467299
0.465262
0.4849
0.553698
0.586197
0.58624
0.586218
0.586281
0.586214
0.58623
0.586208
0.586303
0.586197
0.586201
0.503815
0.412274
0.494477
0.541859
0.479135
0.46558
0.52499
0.546985
0.54698
0.546986
0.546981
0.586547
0.646501
0.646461
0.646596
0.257717
0.236107
0.235732
0.236126
0.327739
0.417613
0.455376
0.457334
0.468926
0.501198
0.5207
0.520693
0.489914
0.419161
0.422693
0.497029
0.541527
0.541532
0.541537
0.560985
0.580878
0.579693
0.44623
0.444476
0.532801
0.536231
0.536254
0.532553
0.579265
0.594888
0.595032
0.490372
0.435105
0.435013
0.435081
0.43494
0.435056
0.434995
0.458942
0.505033
0.523578
0.529131
0.529133
0.528522
0.526643
0.53736
0.662852
0.75086
0.750886
0.751051
0.750989
0.751133
0.750791
0.502533
0.16921
0.168934
0.242585
0.355779
0.474517
0.546393
0.513508
0.466701
0.482783
0.524056
0.524282
0.524254
0.523569
0.421952
0.412031
0.411989
0.494147
0.565534
0.576184
0.612933
0.61295
0.613159
0.612985
0.42167
0.415901
0.416072
0.439983
0.445333
0.428266
0.473031
0.522345
0.522347
0.522346
0.526335
0.514388
0.54312
0.618898
0.633761
0.633725
0.633764
0.57276
0.559217
0.596604
0.596659
0.547745
0.475029
0.446835
0.447079
0.446963
0.470473
0.521217
0.539634
0.539583
0.522982
0.522977
0.547986
0.543691
0.514604
0.514614
0.51663
0.554598
0.554699
0.554612
0.554862
0.522071
0.541649
0.573945
0.54784
0.589678
0.656586
0.656537
0.656659
0.584332
0.452713
0.451476
0.451619
0.451539
0.488655
0.541189
0.528537
0.545892
0.555966
0.555892
0.55493
0.54816
0.559811
0.559793
0.559786
0.512238
0.511232
0.536833
0.536826
0.529293
0.492612
0.355249
0.19287
0.170632
0.170642
0.17064
0.478961
0.497392
0.537518
0.539342
0.524025
0.519736
0.518475
0.518474
0.483048
0.461787
0.461787
0.464966
0.47232
0.513446
0.517935
0.472477
0.452269
0.447037
0.468718
0.481911
0.486826
0.486827
0.486828
0.494661
0.487549
0.487548
0.536612
0.525282
0.427494
0.420484
0.50571
0.525109
0.528447
0.530331
0.531058
0.531069
0.491626
0.491627
0.554158
0.554147
0.538662
0.493096
0.485333
0.486139
0.451985
0.438622
0.438619
0.438622
0.459031
0.487936
0.487934
0.487955
0.480559
0.483338
0.446569
0.446568
0.449168
0.471184
0.498461
0.502125
0.502117
0.502131
0.418264
0.407836
0.45428
0.492363
0.514904
0.580214
0.580235
0.499159
0.48787
0.487871
0.516962
0.557754
0.473257
0.427451
0.427435
0.427451
0.427436
0.4598
0.521882
0.521884
0.521887
0.521887
0.521909
0.521887
0.521912
0.521884
0.472075
0.44772
0.447719
0.482113
0.482105
0.479266
0.498576
0.498572
0.403554
0.422425
0.498485
0.498471
0.47916
0.602888
0.602882
0.584589
0.593074
0.565654
0.50552
0.474785
0.491438
0.480526
0.478984
0.518283
0.487833
0.467367
0.516199
0.537977
0.537982
0.536446
0.458172
0.45178
0.451775
0.439677
0.439673
0.439677
0.503205
0.503206
0.503206
0.495735
0.489632
0.496204
0.484473
0.502386
0.506049
0.575594
0.629659
0.629654
0.613051
0.49429
0.457353
0.457308
0.457353
0.457309
0.521314
0.521892
0.521929
0.521892
0.521938
0.515599
0.519804
0.520699
0.48155
0.463632
0.463632
0.476767
0.512452
0.534114
0.534115
0.534115
0.53391
0.534176
0.53416
0.534224
0.53416
0.534193
0.453313
0.483426
0.577245
0.623669
0.623759
0.623682
0.62377
0.570701
0.57072
0.570693
0.489156
0.485115
0.485137
0.48512
0.51858
0.552893
0.468093
0.468096
0.483944
0.55014
0.570153
0.583543
0.583545
0.583528
0.58351
0.272716
0.182396
0.204151
0.38547
0.462283
0.457888
0.455437
0.511422
0.511487
0.511422
0.511441
0.492099
0.480591
0.500888
0.558207
0.567171
0.558414
0.49093
0.465694
0.469168
0.468057
0.468056
0.510791
0.545995
0.546013
0.546005
0.546021
0.546016
0.546022
0.52152
0.52473
0.576737
0.586177
0.586218
0.586197
0.58395
0.495361
0.495407
0.503477
0.533981
0.563768
0.586186
0.539484
0.42206
0.412018
0.553545
0.609287
0.609288
0.609288
0.605239
0.511568
0.489425
0.489426
0.566642
0.646304
0.646517
0.646652
0.642741
0.236081
0.235719
0.235979
0.294618
0.392267
0.43667
0.440327
0.466021
0.504445
0.520731
0.520714
0.5207
0.507528
0.469901
0.495591
0.541494
0.5415
0.541192
0.472002
0.459361
0.580895
0.580988
0.580895
0.580988
0.498674
0.493552
0.493556
0.508398
0.594888
0.59503
0.594889
0.594956
0.471034
0.435105
0.435045
0.435081
0.457668
0.477316
0.477313
0.477321
0.492891
0.52285
0.499239
0.499241
0.499239
0.630881
0.750831
0.750886
0.75102
0.751082
0.540962
0.606654
0.72194
0.704252
0.56474
0.464254
0.497043
0.560033
0.590807
0.591575
0.59157
0.558524
0.516753
0.483758
0.483783
0.522444
0.556397
0.522148
0.454714
0.42661
0.426626
0.460001
0.582701
0.612883
0.613098
0.505218
0.416165
0.416076
0.416125
0.432857
0.487415
0.537112
0.521219
0.489284
0.48823
0.518287
0.55992
0.633723
0.633813
0.633725
0.633852
0.633725
0.633851
0.568677
0.535916
0.535917
0.58898
0.596604
0.558146
0.446993
0.447099
0.447021
0.447079
0.463916
0.479684
0.497132
0.525523
0.525506
0.522974
0.523001
0.544827
0.545822
0.545831
0.545851
0.545851
0.500644
0.500778
0.511234
0.459754
0.445852
0.580798
0.617065
0.656537
0.656537
0.656659
0.656537
0.6395
0.512529
0.451619
0.451485
0.451619
0.506933
0.513758
0.506525
0.506522
0.555892
0.556052
0.555911
0.556042
0.55982
0.535295
0.496273
0.45878
0.457923
0.457923
0.49008
0.529297
0.50864
0.449401
0.375775
0.258662
0.17064
0.170655
0.486949
0.551206
0.542302
0.494265
0.491303
0.486773
0.482075
0.483006
0.448267
0.448268
0.465515
0.464966
0.50526
0.459397
0.459402
0.495905
0.49591
0.495911
0.495914
0.471512
0.471514
0.473832
0.478401
0.481247
0.481245
0.496701
0.536607
0.505125
0.410678
0.396347
0.39205
0.392051
0.474386
0.392416
0.498916
0.55416
0.554154
0.55417
0.554154
0.516117
0.510309
0.505135
0.468083
0.468085
0.498231
0.49982
0.474122
0.477084
0.477075
0.477091
0.487941
0.482054
0.459963
0.459964
0.499459
0.499464
0.47996
0.488393
0.47536
0.475353
0.496198
0.434725
0.392896
0.392896
0.392897
0.3929
0.392902
0.551771
0.580221
0.58025
0.580225
0.580244
0.58022
0.566335
0.537188
0.460066
0.427451
0.428203
0.427451
0.427448
0.427451
0.520051
0.521887
0.521894
0.521891
0.504509
0.504494
0.511535
0.511531
0.511529
0.476085
0.476084
0.499408
0.499395
0.49905
0.474454
0.336797
0.336794
0.336797
0.336801
0.336808
0.470558
0.60292
0.60291
0.60296
0.602901
0.602968
0.5613
0.53809
0.502752
0.458184
0.470203
0.477052
0.454448
0.454431
0.454448
0.507947
0.536436
0.498628
0.491625
0.489398
0.459203
0.463672
0.49418
0.474716
0.467974
0.467975
0.488465
0.489632
0.480339
0.407905
0.325208
0.325182
0.3252
0.545724
0.63477
0.634758
0.634752
0.634743
0.624155
0.533677
0.459041
0.458272
0.458292
0.50717
0.509763
0.509747
0.520698
0.520699
0.520701
0.520706
0.522422
0.52296
0.52297
0.473363
0.458947
0.458947
0.458948
0.485819
0.53416
0.534241
0.53416
0.354397
0.306045
0.306045
0.306063
0.306063
0.560155
0.623682
0.623759
0.620683
0.594181
0.544904
0.544914
0.557678
0.514882
0.485227
0.493736
0.509799
0.548268
0.548258
0.469718
0.446955
0.446955
0.53208
0.583586
0.583568
0.583548
0.312597
0.182202
0.182349
0.305971
0.43464
0.483427
0.454731
0.454679
0.47152
0.508649
0.492904
0.488401
0.393287
0.410162
0.487485
0.560097
0.567148
0.567191
0.528539
0.487674
0.488525
0.507034
0.541245
0.545986
0.546003
0.545995
0.48217
0.475705
0.515085
0.563153
0.576279
0.576294
0.576308
0.536779
0.52131
0.49228
0.482239
0.48224
0.498311
0.536942
0.543752
0.538946
0.464814
0.369045
0.369047
0.369048
0.531619
0.609288
0.609288
0.609288
0.627278
0.646384
0.646545
0.646432
0.646476
0.64647
0.646685
0.646461
0.461722
0.235728
0.235984
0.261925
0.349246
0.436053
0.483283
0.50361
0.521768
0.52174
0.520747
0.518334
0.516484
0.489427
0.474873
0.477188
0.504666
0.492639
0.343259
0.341144
0.341144
0.580948
0.580895
0.529769
0.493551
0.493551
0.493552
0.528438
0.594874
0.595029
0.594888
0.595024
0.530152
0.435142
0.435089
0.457837
0.48414
0.471814
0.471824
0.502978
0.503982
0.503991
0.503996
0.499251
0.500284
0.596085
0.750615
0.750658
0.750804
0.509107
0.3011
0.301029
0.302463
0.403864
0.303479
0.421004
0.548739
0.579281
0.56267
0.549301
0.5493
0.549301
0.558709
0.584735
0.595259
0.603639
0.603586
0.603539
0.59779
0.585023
0.576909
0.567622
0.580895
0.582612
0.484844
0.416043
0.416214
0.416108
0.416168
0.429669
0.487341
0.53744
0.537508
0.471812
0.342858
0.342868
0.342868
0.34287
0.453614
0.579358
0.629722
0.633725
0.633838
0.596325
0.606436
0.613027
0.613055
0.598951
0.453325
0.447187
0.447201
0.486042
0.510739
0.506641
0.536039
0.561869
0.549023
0.498231
0.498233
0.498231
0.526597
0.545166
0.545821
0.545826
0.545835
0.531651
0.469322
0.375331
0.279486
0.279485
0.279486
0.460016
0.606439
0.619858
0.649405
0.656537
0.656659
0.553167
0.512648
0.52695
0.594297
0.551694
0.534806
0.555834
0.55591
0.555859
0.555993
0.555882
0.499317
0.520617
0.569483
0.569448
0.564391
0.528164
0.495962
0.457896
0.457963
0.45794
0.457965
0.495089
0.441757
0.300129
0.170689
0.170683
0.453036
0.556259
0.501486
0.474076
0.475216
0.51245
0.482077
0.482075
0.490259
0.505259
0.505254
0.505261
0.505254
0.503487
0.503483
0.47884
0.478835
0.490593
0.495915
0.496497
0.514139
0.476345
0.43038
0.43038
0.492581
0.467693
0.467669
0.46767
0.474645
0.450673
0.392047
0.392049
0.392052
0.392052
0.535493
0.554164
0.554173
0.55416
0.554184
0.554154
0.553586
0.543244
0.493311
0.500529
0.500526
0.500524
0.476205
0.476206
0.485597
0.4856
0.458234
0.45824
0.488101
0.488102
0.488101
0.49946
0.499467
0.49946
0.486073
0.486069
0.461044
0.446722
0.414188
0.392896
0.3929
0.392901
0.392902
0.449587
0.580244
0.580223
0.580249
0.545864
0.495985
0.495966
0.529289
0.529281
0.480933
0.446745
0.433073
0.464073
0.499931
0.49993
0.478943
0.504328
0.531144
0.531146
0.531149
0.531151
0.467194
0.445775
0.445777
0.499407
0.499398
0.482928
0.429033
0.348252
0.336794
0.336788
0.336794
0.3368
0.336803
0.561045
0.602914
0.602957
0.602906
0.602949
0.568082
0.564722
0.564708
0.478316
0.443703
0.443709
0.462154
0.520882
0.516925
0.454431
0.454459
0.492477
0.551
0.550977
0.551023
0.550974
0.551018
0.550973
0.546609
0.489125
0.487467
0.482234
0.434983
0.325861
0.325203
0.325165
0.32519
0.325182
0.581361
0.634768
0.634872
0.634768
0.634768
0.609873
0.527073
0.484747
0.517599
0.478695
0.478699
0.488279
0.520688
0.520693
0.479883
0.479893
0.491685
0.522618
0.52297
0.522979
0.51905
0.461759
0.458944
0.505399
0.53416
0.534223
0.53416
0.534216
0.333115
0.306023
0.30605
0.306045
0.306063
0.479204
0.621789
0.623696
0.596021
0.594182
0.604444
0.604438
0.59726
0.517503
0.513805
0.511827
0.542923
0.548258
0.521269
0.46769
0.467702
0.583678
0.583627
0.583606
0.583586
0.259428
0.182013
0.182151
0.30539
0.436126
0.523769
0.545209
0.490448
0.454667
0.454679
0.470903
0.411662
0.376171
0.376171
0.397241
0.486247
0.558604
0.567166
0.567152
0.561602
0.5407
0.530941
0.529839
0.545632
0.54599
0.537783
0.478923
0.475705
0.475706
0.507757
0.551078
0.499159
0.464656
0.464655
0.464656
0.478772
0.520953
0.543592
0.543735
0.543744
0.543752
0.543759
0.48609
0.369033
0.369047
0.369047
0.369047
0.502195
0.599467
0.599432
0.632778
0.646384
0.646584
0.646384
0.646544
0.646435
0.646685
0.369863
0.298121
0.298136
0.288276
0.296466
0.338118
0.39172
0.463554
0.535498
0.544254
0.54422
0.503706
0.476941
0.476977
0.476948
0.483247
0.538525
0.544261
0.544208
0.390351
0.341144
0.341144
0.341144
0.58074
0.575642
0.493551
0.493551
0.493552
0.504294
0.579274
0.59498
0.594874
0.59503
0.551952
0.469602
0.459027
0.503562
0.551502
0.551553
0.551572
0.551553
0.52876
0.479577
0.482492
0.535481
0.574822
0.599685
0.699381
0.717799
0.301132
0.300851
0.301053
0.3009
0.3011
0.301072
0.301147
0.301164
0.362224
0.530176
0.579291
0.579269
0.549293
0.549301
0.5493
0.596502
0.604363
0.604292
0.604351
0.464879
0.445984
0.44597
0.445993
0.454051
0.51675
0.571867
0.577127
0.540934
0.441144
0.416129
0.416218
0.424579
0.492597
0.53744
0.537492
0.53744
0.46235
0.342845
0.342867
0.342868
0.342868
0.440748
0.587161
0.591933
0.591939
0.591933
0.59255
0.614103
0.604544
0.602296
0.602308
0.602295
0.516622
0.447207
0.449919
0.525884
0.562714
0.562695
0.561881
0.561869
0.503105
0.498231
0.498233
0.49999
0.498109
0.496851
0.49685
0.5076
0.514357
0.40432
0.279408
0.279483
0.279486
0.279485
0.365745
0.556771
0.656561
0.656537
0.656561
0.656537
0.656707
0.656533
0.656636
0.650586
0.549535
0.482836
0.471347
0.471358
0.471375
0.471369
0.498472
0.498454
0.498454
0.563591
0.56951
0.569448
0.569493
0.569414
0.543766
0.540451
0.480132
0.504493
0.504493
0.504493
0.358461
0.171046
0.170689
0.499864
0.500152
0.474076
0.474079
0.512925
0.512453
0.482075
0.505254
0.50526
0.505254
0.50526
0.505254
0.479889
0.473728
0.473729
0.473728
0.49871
0.506924
0.507425
0.514139
0.51414
0.466412
0.466407
0.502002
0.502
0.50201
0.500377
0.489958
0.478017
0.478499
0.392733
0.392052
0.392051
0.392054
0.554163
0.55419
0.554164
0.554185
0.554154
0.554172
0.554154
0.554156
0.495869
0.500647
0.486319
0.480389
0.48039
0.485597
0.4856
0.4856
0.485605
0.485602
0.488103
0.488105
0.488107
0.499463
0.499461
0.471588
0.461229
0.461049
0.461046
0.482457
0.428384
0.3929
0.392901
0.493703
0.405935
0.580227
0.580227
0.580255
0.580229
0.580275
0.580229
0.580266
0.517327
0.488671
0.488674
0.47212
0.434149
0.435593
0.435594
0.435598
0.478944
0.531137
0.531139
0.512347
0.481565
0.477324
0.477324
0.476352
0.445775
0.499398
0.499418
0.463258
0.39666
0.392274
0.486162
0.486165
0.352613
0.343759
0.336808
0.602375
0.602949
0.602907
0.602951
0.6029
0.531642
0.53162
0.564699
0.505179
0.443692
0.48955
0.520882
0.520883
0.520883
0.454588
0.494236
0.550996
0.550977
0.551021
0.473288
0.470415
0.470399
0.550985
0.550956
0.488121
0.484856
0.492933
0.468853
0.437296
0.360482
0.325209
0.325192
0.3252
0.579951
0.634854
0.634775
0.634889
0.598173
0.527073
0.527081
0.53617
0.536163
0.536158
0.535622
0.449726
0.449031
0.449034
0.45458
0.513687
0.517861
0.517902
0.517897
0.52365
0.458946
0.458944
0.458946
0.522944
0.534184
0.53416
0.534241
0.53416
0.409979
0.334284
0.306045
0.306063
0.306063
0.530583
0.623696
0.623705
0.62371
0.623719
0.604445
0.604444
0.604434
0.556139
0.51426
0.497698
0.479626
0.463233
0.463244
0.469312
0.585115
0.627275
0.532319
0.18157
0.181771
0.181685
0.181956
0.291127
0.393721
0.474255
0.543871
0.545197
0.545209
0.539888
0.484249
0.466478
0.393488
0.376172
0.376171
0.376172
0.435934
0.517197
0.56654
0.567194
0.567161
0.567206
0.546676
0.544904
0.54562
0.485903
0.458901
0.471462
0.478908
0.475705
0.487025
0.535625
0.535794
0.53583
0.512992
0.505286
0.49461
0.49461
0.538703
0.543744
0.54375
0.543758
0.54376
0.51015
0.393272
0.369047
0.369047
0.369048
0.534636
0.63611
0.644519
0.646349
0.646584
0.646384
0.646663
0.646375
0.646536
0.541271
0.375842
0.298114
0.298121
0.318744
0.354768
0.388324
0.436379
0.506072
0.544218
0.54422
0.544273
0.544221
0.544303
0.54422
0.544306
0.544216
0.544311
0.544215
0.527521
0.37604
0.341141
0.341144
0.341144
0.43054
0.488488
0.499519
0.541915
0.56377
0.568022
0.593616
0.594862
0.594983
0.594864
0.59492
0.585028
0.518854
0.487023
0.487029
0.489977
0.507559
0.479208
0.465442
0.465445
0.482747
0.524386
0.535603
0.582509
0.699227
0.575012
0.300857
0.30106
0.300894
0.30106
0.328409
0.328404
0.367332
0.326857
0.384915
0.483178
0.531077
0.57422
0.583209
0.583215
0.596412
0.604382
0.604307
0.541625
0.445958
0.445982
0.445968
0.445984
0.491244
0.546599
0.555775
0.555781
0.550744
0.550738
0.55078
0.537435
0.483368
0.456042
0.476896
0.533279
0.53744
0.537511
0.444193
0.342827
0.342862
0.342868
0.34287
0.414839
0.581218
0.614191
0.592105
0.591947
0.606044
0.614192
0.614103
0.614157
0.614103
0.590756
0.514256
0.447278
0.447339
0.50447
0.562785
0.562714
0.56139
0.503162
0.503155
0.514732
0.545984
0.546056
0.545984
0.528909
0.543695
0.548403
0.548402
0.529225
0.442551
0.279483
0.279485
0.279486
0.454652
0.608256
0.608136
0.615866
0.64651
0.656586
0.656538
0.656734
0.593996
0.56087
0.560896
0.560874
0.485924
0.471375
0.471369
0.537733
0.55329
0.535687
0.532502
0.569552
0.569465
0.477111
0.473491
0.473268
0.473489
0.473337
0.473489
0.473459
0.504493
0.465721
0.323278
0.170704
0.170689
0.473456
0.490441
0.481939
0.512925
0.512926
0.485668
0.485517
0.505255
0.498872
0.497595
0.500885
0.479663
0.487489
0.487488
0.486548
0.486511
0.498707
0.480648
0.480645
0.48071
0.514142
0.50339
0.517886
0.484686
0.48469
0.502
0.50201
0.48947
0.494302
0.482944
0.423165
0.409429
0.482693
0.517835
0.554153
0.548058
0.526171
0.526163
0.553378
0.553368
0.55416
0.554149
0.553928
0.55115
0.551065
0.507374
0.507034
0.481892
0.468662
0.468666
0.478582
0.465593
0.460964
0.460964
0.473609
0.473607
0.499469
0.499463
0.499471
0.499464
0.499476
0.483095
0.464818
0.425279
0.443612
0.531504
0.580229
0.580224
0.580256
0.580228
0.580282
0.580229
0.501618
0.501593
0.502695
0.509483
0.50948
0.509483
0.50736
0.510614
0.496108
0.484646
0.457722
0.457724
0.459353
0.459353
0.504992
0.48599
0.46269
0.462708
0.482742
0.499404
0.499398
0.499419
0.499397
0.499417
0.476047
0.486162
0.486181
0.486162
0.416915
0.542935
0.555818
0.555819
0.570226
0.594235
0.551456
0.546177
0.481817
0.443692
0.443692
0.443692
0.450464
0.492344
0.520889
0.521054
0.521053
0.488399
0.488402
0.502357
0.519265
0.505427
0.510347
0.507815
0.448502
0.4485
0.448498
0.492964
0.492944
0.492964
0.395245
0.384855
0.552411
0.634798
0.634886
0.634783
0.634887
0.634775
0.5881
0.550249
0.550247
0.550237
0.517483
0.510237
0.449031
0.449031
0.449031
0.523786
0.523761
0.510439
0.499015
0.499002
0.524581
0.524641
0.511358
0.459066
0.486549
0.513334
0.527869
0.534202
0.53416
0.514119
0.453539
0.517387
0.517376
0.517384
0.482587
0.617172
0.617184
0.586334
0.586341
0.629689
0.629688
0.544175
0.511881
0.511878
0.511878
0.463229
0.463228
0.463229
0.530686
0.6425
0.642744
0.627578
0.181313
0.181643
0.181516
0.181797
0.29419
0.428382
0.502148
0.509731
0.509715
0.528111
0.545197
0.545201
0.539414
0.493756
0.466036
0.435391
0.411404
0.436536
0.475595
0.532585
0.566786
0.567161
0.567213
0.567161
0.542363
0.455817
0.455814
0.455814
0.458252
0.49091
0.520126
0.529411
0.535802
0.535794
0.535868
0.535794
0.535847
0.5167
0.526515
0.538684
0.538682
0.528932
0.528925
0.540685
0.550575
0.550548
0.504975
0.478511
0.533428
0.567605
0.567628
0.567647
0.59991
0.646378
0.581392
0.502351
0.502246
0.525374
0.542663
0.542128
0.505682
0.471627
0.436321
0.414886
0.414736
0.430114
0.449168
0.469273
0.489751
0.526793
0.54422
0.544288
0.54422
0.544299
0.544216
0.54431
0.544215
0.509133
0.432805
0.429138
0.437922
0.437981
0.413933
0.417766
0.418263
0.504376
0.541926
0.541697
0.541676
0.546101
0.587453
0.594862
0.594353
0.570616
0.557283
0.553052
0.534975
0.51358
0.510298
0.505651
0.484031
0.501417
0.527488
0.527503
0.52752
0.527538
0.578547
0.699049
0.594278
0.301067
0.300906
0.301034
0.301011
0.314401
0.373031
0.484579
0.528615
0.52862
0.528622
0.52862
0.528621
0.582034
0.604307
0.604402
0.604317
0.604445
0.588751
0.472699
0.44597
0.480379
0.487431
0.48744
0.487432
0.487451
0.525289
0.550738
0.550791
0.550731
0.550801
0.517199
0.500097
0.52878
0.537436
0.537508
0.421639
0.389408
0.389372
0.440661
0.500597
0.521952
0.608192
0.614187
0.614111
0.61425
0.61411
0.614198
0.61411
0.551867
0.484017
0.484032
0.484041
0.462578
0.447339
0.47619
0.544288
0.562818
0.562132
0.561925
0.519105
0.517963
0.545983
0.546056
0.545984
0.529984
0.47885
0.478857
0.497594
0.548403
0.548396
0.523029
0.435102
0.392904
0.413147
0.595215
0.656531
0.656605
0.652868
0.656586
0.656538
0.656735
0.656538
0.628414
0.557238
0.55726
0.517863
0.471402
0.471382
0.552979
0.55329
0.553384
0.56945
0.569546
0.56949
0.569536
0.523164
0.557723
0.557682
0.555399
0.513649
0.518069
0.51806
0.501175
0.360717
0.19842
0.170733
0.170704
0.449337
0.488375
0.465699
0.483559
0.515811
0.515809
0.495445
0.498326
0.476526
0.497595
0.497597
0.479665
0.487488
0.457827
0.457824
0.498702
0.498706
0.480645
0.500582
0.523132
0.523132
0.523132
0.523132
0.523132
0.492188
0.502009
0.499084
0.489474
0.494302
0.443558
0.409526
0.409431
0.431621
0.431614
0.554142
0.554141
0.554133
0.554133
0.554123
0.554135
0.49425
0.46711
0.487936
0.507433
0.462264
0.462265
0.462264
0.462265
0.505772
0.50578
0.481565
0.481131
0.505544
0.464396
0.464395
0.499466
0.499462
0.499474
0.499464
0.499478
0.452702
0.430331
0.396721
0.346696
0.346704
0.346706
0.346707
0.579742
0.580226
0.580259
0.580228
0.580263
0.554628
0.531543
0.531544
0.482869
0.47582
0.475813
0.516228
0.53498
0.53498
0.457887
0.457724
0.487157
0.504561
0.504118
0.525248
0.525251
0.495455
0.462691
0.46271
0.491652
0.499407
0.499396
0.499414
0.452295
0.385712
0.385708
0.385712