/*--------------------------------*- C++ -*----------------------------------*\
  =========                 |
  \\      /  F ield         | OpenFOAM: The Open Source CFD Toolbox
   \\    /   O peration     | Website:  https://openfoam.org
    \\  /    A nd           | Version:  7
     \\/     M anipulation  |
\*---------------------------------------------------------------------------*/
FoamFile
{
    version     2.0;
    format      ascii;
    class       surfaceScalarField;
    location    "2500";
    object      alphaPhi;
}
// * * * * * * * * * * * * * * * * * * * * * * * * * * * * * * * * * * * * * //

dimensions      [0 3 -1 0 0 0 0];

internalField   nonuniform List<scalar> 
319200
(
2.28696e-17
7.7462e-17
7.5512e-17
5.53146e-17
5.98408e-17
-1.68833e-17
1.40723e-16
6.09616e-17
1.57789e-16
7.97894e-17
1.77719e-16
6.57098e-17
2.25692e-16
9.63545e-17
3.0328e-16
7.40549e-17
3.06102e-16
3.5139e-17
3.61388e-16
3.1911e-17
3.83103e-16
7.40833e-17
4.28054e-16
1.92679e-17
4.21432e-16
1.00385e-16
3.10859e-16
1.12665e-16
2.67752e-16
4.78412e-17
3.20452e-16
2.89703e-17
3.27739e-16
7.10802e-17
3.94171e-16
5.51354e-17
5.27095e-16
1.39884e-17
6.52741e-16
1.55786e-17
5.75023e-16
1.35591e-17
6.35226e-16
2.9918e-17
7.55216e-16
-1.44027e-17
7.76587e-16
-3.72538e-17
8.66746e-16
6.61614e-18
8.26763e-16
1.42685e-16
7.48957e-16
1.63136e-16
3.68056e-16
8.09697e-17
7.37065e-16
1.27191e-16
2.60732e-16
2.39748e-17
8.02767e-16
-3.93301e-17
6.51996e-16
-5.02529e-17
9.94047e-16
-1.10588e-17
9.39618e-16
6.06329e-17
1.0732e-15
6.50325e-17
1.13836e-15
9.82131e-17
1.12773e-15
4.74065e-17
9.97605e-16
1.69306e-16
7.9861e-16
2.29859e-16
7.96354e-16
3.60059e-17
9.05394e-16
-1.80818e-17
9.69985e-16
2.44004e-17
1.09826e-15
1.09036e-16
1.00598e-15
1.17084e-16
9.26924e-16
9.66286e-17
9.35219e-16
2.20963e-17
9.56638e-16
-1.9244e-18
1.01242e-15
3.03944e-17
1.05264e-15
5.59146e-17
1.14283e-15
-2.13468e-18
1.39455e-15
-1.57827e-16
1.21158e-15
-6.64375e-18
1.88756e-15
2.45039e-16
6.75335e-16
5.22907e-17
1.89214e-15
7.50217e-17
5.36167e-16
6.70929e-17
3.36932e-16
1.52192e-17
3.05921e-16
9.12868e-17
3.52189e-16
-1.66551e-17
1.09849e-15
-9.29534e-17
-6.22158e-17
1.14885e-17
8.75004e-16
1.88021e-16
6.49689e-17
6.09293e-17
9.03859e-16
5.0699e-17
3.85315e-16
-1.06538e-16
6.72575e-16
-7.00736e-17
6.72145e-16
9.08489e-17
5.85305e-16
1.90105e-16
4.50082e-16
2.06783e-16
5.60672e-16
-9.23517e-17
-1.01432e-16
-1.44574e-16
7.41843e-16
-1.06337e-16
-1.15884e-16
-5.73249e-17
1.16543e-15
4.20396e-17
6.93029e-17
4.43213e-17
8.02116e-16
2.01703e-17
1.63093e-16
-2.30718e-17
1.02376e-15
-9.87715e-18
2.49588e-16
1.21961e-17
6.19102e-16
-1.62663e-17
3.09541e-16
-8.39278e-17
7.46314e-16
4.95034e-17
6.78745e-16
1.83848e-16
4.46469e-16
2.43504e-16
3.13568e-16
1.13777e-16
4.07116e-16
-1.12312e-16
2.33256e-16
-5.54565e-17
5.06426e-16
-4.22364e-17
4.8986e-16
-4.75271e-17
9.99803e-16
4.48535e-17
7.40345e-16
-9.86834e-17
1.9709e-15
-8.97137e-17
2.30764e-16
-3.42384e-17
1.95152e-15
7.5499e-17
4.56283e-16
6.97712e-17
7.03675e-16
8.02333e-17
3.37579e-16
5.3016e-17
7.10444e-16
8.54493e-17
4.10087e-16
1.33131e-18
1.17964e-15
2.74409e-17
4.67326e-16
-1.36919e-18
9.16821e-16
-9.21088e-17
7.88975e-16
8.05561e-17
6.58664e-16
8.94052e-17
7.77765e-16
-1.56157e-16
7.95969e-16
-1.61934e-17
7.40834e-16
6.08693e-17
1.5687e-15
-6.78685e-17
4.07703e-17
-1.41348e-16
2.12959e-15
-9.89005e-17
1.97277e-16
-1.32617e-16
1.6952e-15
-1.29388e-16
-3.58794e-16
-3.04715e-17
1.22002e-15
1.56088e-16
1.03486e-15
8.47728e-17
9.98444e-16
3.19976e-17
1.00855e-15
1.18408e-17
8.78479e-16
-8.12224e-17
1.61503e-15
1.32199e-16
4.1868e-16
1.91462e-16
8.13136e-16
-1.51121e-16
7.85117e-16
-2.70392e-16
1.00052e-15
-2.62031e-16
1.20431e-15
-2.44028e-16
1.41527e-15
-2.65899e-16
1.43751e-15
-7.34386e-17
7.57813e-16
8.763e-17
2.50473e-15
1.42723e-16
1.65153e-15
-4.83518e-17
3.53994e-15
2.89503e-17
1.83583e-15
7.20932e-17
2.00788e-15
1.96173e-16
1.84766e-15
-1.63843e-16
2.81615e-15
-2.66641e-16
1.20023e-15
-2.91654e-17
2.2274e-15
3.50063e-16
8.27518e-16
-2.82361e-17
2.90644e-15
-4.18541e-16
1.56229e-15
-2.55689e-17
2.01412e-15
-3.6841e-17
1.93297e-15
6.98673e-17
1.71128e-15
1.83146e-16
1.69806e-15
-5.35095e-18
-6.73059e-16
-5.21609e-16
3.64001e-15
-2.53544e-16
3.83597e-16
-9.32209e-18
5.08226e-15
1.49743e-16
3.87674e-16
1.06163e-16
3.69212e-15
5.49114e-16
1.10723e-15
5.25611e-16
7.6618e-16
-5.08387e-18
8.94821e-16
-3.5371e-16
9.81042e-16
-6.07876e-17
1.46192e-15
7.1609e-17
1.08283e-15
-2.59101e-17
2.0482e-15
-2.17338e-16
9.72262e-16
-4.12734e-16
2.70131e-15
-1.39956e-16
1.32048e-15
8.88391e-17
1.25687e-15
2.27272e-16
1.18488e-15
2.16662e-16
1.3785e-15
-4.17072e-17
1.66217e-15
-2.19923e-16
1.75951e-15
-2.24974e-17
1.66849e-15
1.48135e-16
1.10764e-15
2.24663e-16
1.16198e-15
1.4077e-16
9.03202e-16
-3.58917e-17
1.93298e-15
-1.6321e-16
9.26693e-16
-1.93293e-16
2.91181e-15
-8.23227e-17
1.44328e-16
2.95422e-17
1.36271e-15
8.02709e-17
1.53076e-15
1.68571e-16
1.64366e-15
-4.31658e-17
1.49226e-15
1.99159e-16
1.86299e-15
-2.89742e-16
2.439e-15
-4.59111e-16
2.74739e-15
-1.57591e-16
2.69544e-15
1.71284e-16
2.65533e-15
1.40473e-16
5.70291e-16
2.34203e-16
1.76656e-15
7.47697e-16
1.28372e-15
5.28642e-16
9.99422e-16
2.3764e-16
9.49696e-16
-6.71673e-17
8.85074e-16
-9.90021e-17
8.6006e-16
7.48299e-17
5.86456e-16
1.08296e-16
1.89191e-16
-8.83462e-17
2.41928e-18
-6.71516e-16
-1.60908e-16
8.279e-18
-3.32242e-16
1.08082e-15
-4.27559e-16
1.50398e-15
2.50773e-18
1.0806e-15
1.19213e-15
-2.61919e-16
1.52134e-15
-6.89952e-16
2.83499e-15
2.31002e-15
-6.02844e-15
-3.00853e-16
3.26889e-15
2.49681e-15
-1.67268e-15
-1.73012e-16
2.13151e-15
2.03757e-15
3.33278e-15
9.78316e-16
4.02909e-15
4.70866e-16
4.3011e-15
-1.92081e-17
3.27168e-15
-4.22851e-16
6.32548e-15
2.04932e-15
3.75826e-15
-2.82758e-16
5.89955e-15
3.86138e-16
4.00141e-15
-1.23715e-17
5.67231e-15
9.99479e-16
3.54085e-15
2.49285e-16
4.1062e-15
7.40268e-16
4.3771e-15
6.08401e-16
4.36963e-15
6.07231e-16
4.34025e-15
6.28121e-16
4.65887e-15
1.85836e-16
4.54077e-15
-7.58651e-17
5.02629e-15
4.80226e-16
4.35551e-15
1.01732e-15
5.31903e-15
6.41264e-16
3.54163e-15
1.03669e-15
3.64408e-15
6.82554e-16
3.85371e-15
2.7487e-16
3.66917e-15
1.41021e-16
1.45572e-15
-7.08821e-17
4.11369e-15
1.93767e-16
1.69789e-15
-1.29678e-16
2.44608e-15
-1.1767e-16
2.83449e-16
1.68499e-16
1.56448e-15
8.51812e-17
1.23828e-15
2.61305e-16
7.14296e-16
6.69326e-17
3.8359e-16
-2.1035e-16
3.044e-16
-2.79073e-16
1.01843e-15
-2.05884e-16
1.05403e-15
1.06415e-17
8.16434e-16
-1.07312e-16
2.09454e-15
-1.00227e-16
3.34736e-15
3.98506e-17
2.58967e-15
2.2043e-16
2.31806e-15
5.29682e-16
2.07169e-15
2.25977e-16
2.2756e-15
-4.1351e-16
2.82571e-15
-3.11649e-16
1.74339e-15
2.38702e-17
6.7058e-16
-7.39668e-17
-1.92161e-15
1.42679e-15
-1.1405e-14
5.23954e-15
-6.54134e-15
6.29075e-15
-2.01677e-14
1.35933e-15
-5.01148e-15
2.13391e-15
-1.10984e-15
9.97167e-16
1.04181e-15
1.19908e-15
2.42763e-15
7.41454e-16
2.353e-15
5.15493e-16
3.32046e-15
6.92418e-16
4.22845e-15
-7.34851e-16
4.54671e-15
-1.71829e-15
7.81441e-15
6.66906e-16
3.94617e-15
1.03523e-15
5.46831e-15
1.32725e-15
2.54011e-15
8.69315e-16
3.31948e-15
3.13133e-16
3.71322e-15
-4.38307e-16
4.2316e-15
-5.75667e-16
4.62657e-15
-1.70497e-16
5.17184e-15
-4.21768e-16
7.30122e-15
-6.36616e-16
5.02174e-15
1.9874e-16
5.24022e-15
7.36654e-16
1.08815e-16
3.98426e-17
5.11724e-15
2.42051e-16
1.58839e-15
2.9489e-16
3.64347e-15
1.35574e-16
4.52768e-15
-1.59215e-16
8.18454e-15
-5.92062e-16
1.85346e-15
-5.39543e-16
6.6707e-15
6.0823e-16
1.01335e-15
5.00904e-16
1.82269e-15
2.17408e-16
2.18685e-15
3.16374e-17
2.22722e-15
3.80401e-16
-2.54154e-15
5.57127e-16
6.1767e-15
4.77878e-16
1.26169e-15
-1.13805e-15
8.56e-15
-6.26995e-16
5.92999e-15
-6.19118e-16
6.63662e-15
2.08265e-17
5.61961e-15
1.28766e-15
4.42373e-15
1.39362e-15
4.12224e-15
4.46522e-16
4.33482e-15
-9.16778e-16
4.22592e-15
-1.19163e-15
3.79756e-15
-9.2979e-16
2.44596e-15
-5.78819e-17
2.64758e-15
-8.66504e-16
2.2029e-15
-2.20706e-17
1.81268e-15
2.42724e-16
1.6231e-15
1.27309e-15
-1.06964e-14
1.91039e-14
-5.36251e-14
1.83704e-14
-4.01253e-15
9.67134e-15
-4.5452e-14
1.93483e-16
-8.80953e-15
1.93857e-15
-1.06496e-14
5.80374e-16
-5.44357e-15
5.5483e-16
-1.46707e-15
6.01468e-16
1.56429e-15
5.95622e-16
4.42668e-15
3.35821e-16
5.97641e-15
1.04347e-15
6.62964e-15
8.66801e-16
6.94369e-15
1.84943e-16
3.405e-15
-1.52458e-16
1.11574e-14
5.86565e-16
6.93672e-17
-4.07646e-16
9.39118e-15
8.86978e-16
3.41217e-15
6.78721e-16
6.1978e-15
2.39626e-16
7.2118e-15
1.68011e-16
8.10174e-15
-1.86073e-16
8.56977e-15
-3.43386e-16
6.91502e-15
1.51317e-17
1.31673e-14
-2.22864e-16
-1.59255e-14
7.50433e-15
6.09614e-15
4.1543e-15
-6.54092e-15
-2.68189e-16
9.83102e-15
4.40885e-16
-5.49797e-15
2.44159e-17
5.40869e-15
8.64708e-16
1.16865e-15
1.53506e-16
6.05149e-15
2.91192e-16
2.49909e-15
4.68315e-16
5.96006e-15
-4.28897e-17
5.56025e-15
-2.16407e-17
8.42039e-15
3.1977e-16
8.87679e-15
-5.03043e-16
1.08027e-14
-8.7106e-16
9.29787e-15
6.03802e-16
8.82811e-15
5.47784e-16
8.06422e-15
7.73667e-16
8.15511e-15
-5.52986e-17
8.33868e-15
-1.73109e-16
8.71725e-15
-3.41068e-16
7.59656e-15
3.57907e-16
1.41328e-14
1.34795e-15
4.01417e-15
-1.17862e-16
6.23042e-15
5.10419e-15
1.83641e-15
1.8537e-15
1.26305e-14
-2.2927e-17
4.49259e-15
3.17512e-16
7.84921e-15
6.77175e-16
7.86751e-15
9.6688e-16
8.43844e-15
4.10229e-16
4.05534e-15
-2.23037e-16
8.372e-15
2.50668e-16
3.3448e-15
2.68889e-16
8.03884e-15
2.32735e-16
7.80351e-15
2.61225e-16
7.28139e-15
5.54723e-16
6.90395e-15
3.99269e-16
7.12457e-15
2.11164e-17
6.80075e-15
-1.95144e-16
9.26082e-15
-2.13083e-16
-1.39605e-15
-1.66112e-15
1.26448e-14
9.73712e-16
3.89335e-15
-4.83064e-16
2.34285e-14
-1.33392e-16
2.37261e-15
8.48568e-16
5.97749e-15
7.43683e-16
1.15076e-15
-8.15958e-16
8.77852e-15
-1.03975e-15
7.57663e-15
-1.62311e-15
1.05994e-14
2.38627e-16
7.54933e-15
1.01399e-15
8.95479e-15
1.31716e-15
4.92869e-15
2.34055e-15
4.14915e-15
1.18444e-15
3.82318e-15
5.65889e-16
3.35908e-15
3.56307e-16
3.03243e-15
2.12633e-16
2.736e-15
1.8481e-16
3.37712e-15
-9.88807e-16
4.49083e-15
-1.50445e-15
5.06285e-15
-9.74862e-16
5.05572e-15
-4.02083e-16
5.30488e-15
-2.86862e-16
4.48276e-15
6.54561e-16
3.48424e-15
1.0914e-15
3.23569e-15
1.12336e-16
3.31993e-15
-1.96877e-16
3.33987e-15
-2.3815e-17
3.98415e-15
-5.27457e-16
4.64061e-15
-4.2363e-16
5.78957e-15
-7.66894e-16
7.09143e-15
-6.41962e-16
7.08366e-15
-2.15434e-18
8.02635e-15
-4.64093e-16
1.02425e-14
-5.8613e-16
1.37656e-16
2.84658e-18
1.40979e-16
1.11073e-17
4.54645e-17
5.5846e-17
7.68362e-17
6.62311e-17
3.13743e-17
1.26485e-16
3.44916e-17
1.84869e-16
8.26294e-17
1.49967e-16
8.77612e-17
1.70491e-16
1.26085e-17
1.84436e-16
7.13931e-17
2.16652e-16
4.32087e-17
2.38949e-16
4.99222e-17
2.8806e-16
2.05825e-17
3.72414e-16
1.35771e-16
7.35127e-17
7.3626e-17
4.69911e-16
2.65304e-16
2.42076e-16
7.24808e-17
4.06867e-16
-1.46457e-17
3.83118e-16
1.72988e-17
2.95733e-16
4.8034e-17
3.50816e-16
2.69459e-18
3.8376e-16
2.98395e-17
4.74335e-16
4.2942e-17
5.46851e-16
2.72206e-17
5.23477e-16
9.86201e-17
4.83084e-16
5.81309e-17
6.76673e-16
7.99108e-17
1.93385e-16
8.02803e-17
6.36105e-16
2.30728e-16
1.97878e-16
4.10904e-17
1.20443e-15
1.08687e-16
2.40824e-16
5.85143e-17
1.46423e-16
4.24305e-17
2.07729e-16
3.39195e-17
5.09783e-16
2.71382e-17
6.28821e-16
2.28318e-17
6.75406e-16
8.84274e-17
6.47241e-16
1.14547e-16
5.7734e-16
1.06215e-16
7.34273e-16
1.08284e-16
5.70638e-16
3.09504e-17
5.90107e-16
5.30858e-17
6.51152e-16
4.74751e-17
6.65945e-16
1.20025e-16
6.38223e-16
1.53897e-16
7.06674e-16
5.32217e-17
7.10781e-16
3.63065e-17
6.1688e-16
1.21987e-16
4.45409e-16
9.1415e-17
3.43273e-16
4.98746e-17
4.73144e-16
-2.78861e-17
4.43887e-16
-3.78216e-17
4.99784e-16
-1.54535e-18
2.76655e-16
1.19887e-17
1.66031e-15
3.46296e-17
6.74319e-16
1.89558e-16
8.50387e-16
2.06637e-16
3.33382e-16
1.2251e-16
3.57125e-16
1.22898e-16
6.81056e-16
-3.01589e-17
2.45283e-16
-5.12136e-17
9.68588e-16
9.18799e-17
1.04264e-16
9.2418e-17
9.7397e-16
1.32533e-16
3.25403e-16
2.01039e-18
1.12671e-15
5.52869e-17
3.18691e-16
-1.48888e-17
4.58869e-16
-8.69612e-17
7.53707e-16
-8.26169e-17
1.04269e-15
-5.34595e-17
9.21862e-16
5.94654e-17
7.06444e-16
1.95897e-16
2.39925e-16
8.05694e-17
4.22423e-16
7.80221e-17
3.81395e-16
6.59516e-17
5.27347e-16
3.55945e-17
2.58382e-17
6.60154e-17
4.61207e-16
1.21749e-16
4.59073e-16
5.82036e-17
6.35045e-16
-1.29492e-16
5.19025e-16
-5.51078e-17
4.6358e-16
8.45329e-17
5.21785e-16
5.37123e-17
7.99685e-16
-3.42993e-18
1.17802e-15
-4.88644e-17
1.18334e-15
2.10859e-16
7.83891e-16
1.67803e-16
6.10896e-16
2.1338e-16
3.91926e-16
-6.17096e-17
8.97453e-16
-1.16521e-16
-1.59267e-17
-1.18317e-16
1.23635e-15
-1.30762e-17
1.26465e-16
-1.2454e-16
2.06205e-15
5.17443e-17
3.09529e-16
9.08009e-17
6.08136e-16
2.27656e-16
1.38293e-16
6.8909e-17
4.6377e-16
1.13811e-16
3.23174e-16
6.63455e-17
3.90242e-16
-3.83577e-17
5.01344e-16
-4.35615e-17
5.64243e-16
-9.58322e-18
5.17921e-16
7.96431e-18
8.96222e-16
-1.77494e-16
9.95104e-16
3.67226e-17
6.05188e-16
8.72619e-17
6.9433e-16
-1.34327e-16
8.4606e-16
-1.24834e-16
-7.64562e-17
1.20165e-17
1.14517e-15
8.67897e-17
-2.70303e-16
-2.01645e-18
1.02481e-15
-2.62883e-17
5.64724e-16
4.62767e-18
7.12564e-16
-1.05536e-16
8.83503e-16
-7.87746e-18
8.32513e-16
-7.05347e-18
9.39804e-16
-4.47799e-17
7.34974e-16
-8.51868e-17
1.33305e-15
-1.6341e-16
3.73141e-16
-2.25675e-16
2.05283e-15
-1.57186e-16
3.36266e-16
8.45004e-17
4.73365e-16
9.38408e-17
4.72893e-16
-1.29075e-16
4.34431e-16
-1.82999e-16
4.68934e-16
-1.78953e-16
6.14443e-16
-1.16431e-16
9.06606e-16
-1.49004e-17
1.2599e-15
-5.01558e-17
2.39444e-15
-8.27738e-17
7.18069e-16
6.78723e-17
1.72759e-15
4.87314e-17
2.59279e-15
-5.91865e-16
3.57558e-15
-4.7146e-16
2.77206e-15
5.89395e-18
3.30842e-15
7.72417e-17
3.23735e-15
-2.06436e-16
2.67862e-15
5.01275e-16
1.71947e-15
3.35558e-16
1.66545e-15
-2.15006e-17
1.75631e-15
-1.37309e-17
1.52499e-15
2.41614e-16
2.5005e-15
1.95206e-16
8.89885e-16
-2.56669e-16
3.83352e-15
3.92912e-17
6.46159e-17
-8.40479e-17
1.96644e-15
-1.75284e-16
1.14572e-15
-6.77862e-17
2.35683e-15
2.69794e-17
1.85659e-15
-2.11969e-18
2.29212e-15
-9.53217e-17
2.73852e-15
-1.53031e-17
1.69937e-15
2.93704e-16
1.37424e-15
3.09618e-16
9.44515e-16
2.92598e-17
2.56611e-15
-4.5766e-16
1.10159e-15
-1.57684e-16
1.97615e-15
-1.39856e-16
8.93361e-16
-1.22091e-16
1.4518e-15
-1.41222e-16
1.4647e-15
-5.15048e-20
1.35583e-15
1.14112e-16
9.88468e-16
1.02404e-16
7.82836e-16
5.46607e-17
8.18283e-16
8.58694e-18
1.12278e-15
-1.15103e-16
1.5656e-15
-1.1287e-16
1.48865e-15
1.35147e-16
1.13466e-15
2.69072e-16
5.6465e-16
1.80008e-16
1.87504e-15
2.30059e-16
-1.21048e-15
-2.84911e-16
1.0244e-15
-2.48046e-16
1.61417e-15
-6.43142e-16
3.71865e-15
-2.75324e-16
1.88821e-15
4.82886e-16
1.5408e-15
7.11522e-16
1.2096e-15
7.64001e-17
1.09276e-15
-3.40519e-16
1.19041e-15
-1.81248e-16
1.47942e-15
-6.41849e-18
1.81133e-15
-1.25041e-16
2.87786e-15
3.64557e-16
2.29356e-15
7.08606e-16
2.49299e-15
4.39334e-16
2.03523e-15
3.76409e-16
1.30803e-15
3.52111e-16
9.55464e-16
1.7688e-16
8.66858e-16
7.06758e-18
5.2613e-16
-4.06687e-16
4.73926e-16
-1.08035e-15
-1.12553e-15
-2.51191e-16
-3.38233e-15
3.54007e-15
-4.82005e-16
1.9841e-15
2.08746e-15
1.52896e-15
2.83869e-15
7.78291e-16
-8.70794e-17
1.75306e-16
3.89577e-16
4.16649e-15
-7.6134e-15
3.88552e-15
4.15743e-15
3.34163e-15
1.38345e-15
-7.37254e-16
4.41752e-15
1.51645e-15
5.66015e-15
1.1e-15
6.57733e-15
6.16791e-16
7.63004e-15
3.79595e-16
6.05574e-15
6.52298e-16
6.25903e-15
1.1972e-15
5.2331e-15
2.4824e-15
7.80192e-15
1.59793e-17
6.94302e-15
-2.04496e-16
7.0894e-15
9.01208e-16
6.97803e-15
1.01059e-15
7.30524e-15
4.47874e-16
7.76682e-15
5.26278e-16
7.77295e-15
8.06564e-16
7.2604e-15
8.74203e-16
7.12491e-15
5.09414e-16
6.95355e-15
4.14397e-16
6.27396e-15
3.02246e-16
4.73224e-15
6.77307e-16
5.99769e-15
1.00799e-15
5.11353e-15
6.67627e-16
5.92228e-15
6.38485e-16
6.5885e-15
4.11797e-16
7.08953e-15
1.21625e-16
5.6542e-15
-2.89484e-18
7.75887e-15
5.49009e-16
3.39451e-15
4.69481e-16
6.35637e-15
5.17382e-16
9.09958e-16
-2.83938e-16
5.7029e-15
-2.07505e-16
1.88327e-15
-2.4771e-16
6.71716e-15
-2.93796e-16
5.82102e-16
-8.2372e-17
6.55775e-15
4.38918e-16
2.0895e-15
-3.41415e-16
2.51268e-15
-7.4335e-16
3.26936e-15
-3.77572e-16
3.26525e-15
-3.7401e-17
3.16007e-15
3.31401e-16
2.9193e-15
2.88985e-16
3.52405e-15
-3.7084e-17
4.37377e-15
-9.61472e-17
3.70785e-15
9.66773e-17
3.59214e-15
-2.18631e-16
3.96108e-15
-7.07325e-16
9.69063e-16
-3.33431e-16
8.61293e-15
1.4163e-16
-4.03523e-14
2.01463e-14
-1.51309e-14
2.19385e-14
-2.6886e-14
1.95222e-15
-3.95185e-15
2.38801e-15
1.54263e-15
1.07101e-15
4.4285e-15
1.38614e-15
5.08853e-15
1.87558e-15
5.25978e-15
1.05126e-15
5.61051e-15
5.97573e-16
6.36139e-15
3.43298e-16
6.20764e-15
-8.76327e-16
6.7041e-15
-5.81914e-16
4.07992e-15
2.79002e-16
6.70152e-15
1.06804e-15
5.85995e-15
8.4394e-16
6.92407e-15
8.12267e-16
7.62643e-15
3.42338e-16
6.7794e-15
2.15591e-16
5.87793e-15
-2.32105e-17
6.3748e-15
-9.29279e-16
9.13448e-15
-1.87118e-15
7.60704e-15
-1.00617e-15
8.97745e-15
1.02722e-15
1.47882e-15
6.30795e-16
6.64388e-15
6.7131e-16
1.78345e-15
9.2617e-16
5.03686e-15
7.07842e-16
5.23645e-15
-1.93862e-16
6.38673e-15
-6.5511e-16
1.41904e-15
-7.51973e-16
7.60415e-15
9.91081e-18
3.50278e-16
7.25105e-16
1.20771e-15
5.75188e-16
2.14399e-15
3.61607e-16
2.60488e-15
1.31995e-17
-1.65075e-15
6.55903e-17
7.92463e-15
3.89335e-16
3.81102e-16
1.78623e-16
6.82014e-15
-5.643e-17
4.12688e-15
-8.69517e-16
5.33846e-15
-6.05078e-16
6.21495e-15
-4.7214e-16
7.20593e-15
6.99172e-16
7.6617e-15
1.40417e-15
8.44911e-15
-9.22111e-18
7.48339e-15
-7.14677e-16
5.19521e-15
-2.89091e-16
3.70588e-15
-5.8363e-16
2.83459e-15
-2.36137e-15
9.92974e-16
-3.30957e-15
-1.18025e-15
-1.65275e-16
-4.29202e-15
8.47803e-16
-3.78851e-14
1.49671e-14
-6.55103e-14
4.59266e-14
3.73636e-15
1.34245e-14
-2.348e-14
-6.80744e-16
-4.42329e-15
1.35934e-15
1.16852e-15
7.3945e-17
5.37868e-15
1.97203e-17
7.9522e-15
2.6145e-16
9.24955e-15
1.33793e-15
9.97522e-15
1.4546e-15
1.03327e-14
9.42819e-16
1.07112e-14
1.16049e-15
1.13103e-14
6.13269e-16
8.38816e-15
-3.99359e-16
1.22182e-14
1.42066e-16
1.91789e-15
1.91761e-15
9.1267e-15
2.00049e-15
5.71877e-15
5.39888e-16
8.31541e-15
3.48555e-16
9.50898e-15
1.26321e-16
1.04322e-14
2.43815e-16
1.07679e-14
-1.62573e-16
9.99106e-15
-1.56846e-15
1.80759e-14
-1.7053e-15
2.92746e-15
4.19534e-16
4.24417e-15
1.37791e-14
-7.15419e-15
-7.05447e-16
4.55968e-15
-3.27586e-16
4.60279e-15
6.92814e-16
1.03733e-14
1.43759e-15
7.2594e-15
1.00314e-15
7.96717e-15
1.03019e-15
8.30878e-15
7.3729e-16
8.43425e-15
5.74983e-16
8.65913e-15
-4.04837e-16
8.25863e-15
2.11769e-16
8.13193e-15
9.71941e-17
9.09185e-15
-7.82131e-16
9.48794e-15
-4.81873e-16
9.46118e-15
6.33019e-16
9.33426e-15
8.52804e-16
9.91618e-15
8.21995e-16
8.45814e-15
1.25557e-15
6.74935e-15
5.77348e-16
5.48563e-15
-9.99757e-17
8.05793e-15
5.36873e-16
-2.64528e-16
5.27541e-16
3.67934e-15
2.37871e-15
1.89414e-15
1.8048e-15
1.36965e-14
3.82344e-16
5.73357e-15
-1.57406e-16
1.03032e-14
3.92223e-16
1.02401e-14
5.32629e-16
1.12732e-14
5.4191e-16
9.03624e-15
1.77435e-16
1.18482e-14
1.16952e-15
8.58368e-15
1.06595e-15
8.69089e-15
5.24034e-16
7.7064e-15
2.99536e-17
8.9351e-15
1.91595e-16
7.97009e-15
3.30334e-16
8.83073e-15
4.52424e-16
8.22263e-15
4.06487e-16
9.01276e-15
-4.52587e-16
3.15048e-15
-2.39585e-15
1.69802e-14
-2.76133e-16
1.04149e-15
9.90313e-16
1.09918e-14
-4.86376e-16
8.09162e-15
-4.14669e-16
1.04998e-14
9.91269e-16
7.78419e-15
1.11361e-15
7.6816e-15
-5.21427e-16
7.79752e-15
-2.28384e-15
7.52545e-15
-1.44679e-15
7.4316e-15
1.37137e-16
8.53519e-15
5.22868e-16
8.98446e-15
4.61078e-16
1.08359e-14
1.29905e-15
9.88989e-15
2.06604e-15
8.15654e-15
1.95414e-15
8.40529e-15
-5.82328e-18
8.66817e-15
-1.50537e-16
8.8496e-15
-7.59858e-17
8.57521e-15
-1.15385e-16
4.71909e-15
-1.05685e-15
6.83163e-15
-1.11383e-15
6.30632e-15
-2.72322e-16
4.88077e-15
6.54561e-16
5.56466e-15
1.88603e-16
7.05141e-15
-6.39274e-16
7.17571e-15
-3.38875e-16
6.71189e-15
5.73471e-19
6.86151e-15
-4.78435e-16
6.23949e-15
-2.28772e-16
5.64877e-15
4.09944e-17
6.12477e-15
-1.00693e-15
6.15984e-15
-3.00205e-16
5.90466e-15
3.63465e-16
6.65131e-15
8.28852e-17
6.88732e-15
-5.16032e-16
-2.10387e-16
2.4556e-17
1.62541e-16
1.52559e-17
6.57341e-17
8.15354e-17
1.54622e-16
8.74754e-17
1.45448e-16
6.62914e-17
3.51152e-17
6.75607e-17
3.1564e-17
1.106e-16
7.26613e-17
1.37871e-16
5.08797e-17
1.34022e-16
5.01786e-17
1.47457e-16
4.97448e-17
1.38444e-16
7.85348e-17
1.29422e-16
4.73224e-17
1.51385e-16
1.03186e-16
5.30266e-16
2.28835e-16
2.49841e-16
7.27662e-17
7.3965e-16
1.96887e-16
6.85098e-17
6.81134e-17
1.07787e-16
1.73273e-16
1.23516e-16
9.06051e-17
1.27673e-16
9.5565e-17
1.36361e-16
1.10577e-16
1.8622e-16
2.87484e-17
1.88472e-16
7.04918e-17
2.00899e-16
1.14135e-16
2.79022e-16
5.22614e-17
1.79281e-16
4.98322e-17
5.32393e-16
1.48916e-16
8.61556e-17
7.21959e-17
8.63281e-16
2.56559e-16
2.57359e-16
1.73998e-16
1.77437e-16
1.07168e-16
1.53937e-16
9.37637e-17
1.25699e-16
8.37114e-17
5.35806e-17
1.75885e-16
1.81791e-16
5.79644e-17
2.72323e-16
4.70237e-17
2.93901e-16
1.17295e-16
2.8482e-16
1.70386e-16
3.05175e-16
1.2379e-16
2.567e-16
1.19798e-16
2.79545e-16
4.03747e-17
2.65506e-16
4.85863e-17
3.22391e-16
4.1923e-17
4.13231e-16
1.78164e-17
2.41579e-16
-2.20105e-17
3.06497e-16
1.36816e-16
4.04199e-16
9.25002e-17
6.07252e-16
7.22615e-17
5.99227e-16
4.87742e-17
6.42398e-16
1.81239e-16
2.83871e-16
1.43067e-16
3.29942e-16
2.78381e-17
3.09848e-16
5.65876e-17
3.08078e-16
8.14715e-17
3.6638e-16
4.41518e-17
2.29357e-16
-2.15285e-17
3.86579e-16
1.45889e-17
7.17355e-16
1.83836e-17
5.49095e-16
1.09649e-16
4.644e-16
1.61464e-16
4.59241e-16
1.05196e-16
1.11199e-15
1.78558e-16
3.30674e-16
1.10701e-17
3.89454e-16
4.547e-17
7.24426e-16
3.57565e-17
5.39686e-16
6.7221e-17
6.82864e-16
1.07521e-16
5.01634e-16
3.7754e-17
5.06709e-16
1.83482e-17
6.38484e-16
-4.6598e-17
8.92512e-16
-4.3195e-17
8.19493e-16
8.5749e-17
5.36739e-16
1.42224e-16
6.80288e-16
2.21408e-16
6.63655e-16
2.57901e-17
1.16715e-15
-8.05354e-17
8.6904e-16
-5.86997e-17
1.42233e-15
-7.6524e-17
7.33941e-16
2.18494e-17
5.92163e-16
1.34814e-16
6.92084e-16
3.4587e-17
7.71634e-16
-9.18385e-17
8.58776e-16
-4.00646e-17
7.01023e-16
1.64579e-16
8.3585e-16
1.65658e-16
9.35406e-16
1.06291e-16
1.77615e-15
2.03978e-16
7.02739e-16
-1.83223e-17
7.73269e-16
1.08454e-16
6.62002e-16
-5.28609e-17
5.05107e-16
-3.82233e-17
6.6209e-16
-2.08797e-17
7.39629e-16
-2.88172e-17
1.37901e-15
1.29606e-16
9.40869e-16
1.7065e-16
9.97266e-16
8.93824e-17
7.59521e-16
-7.4949e-17
1.07003e-15
1.25443e-16
6.15246e-16
2.29823e-16
6.37321e-16
9.46295e-18
9.24393e-16
-3.06615e-16
8.39742e-16
-1.57327e-16
7.45025e-16
-1.15877e-16
9.0577e-16
-8.40912e-17
8.83606e-16
4.15341e-18
6.38484e-16
-3.06173e-17
6.28862e-16
-7.8424e-17
7.88208e-16
-1.05487e-16
9.62509e-16
-6.81866e-17
1.00824e-15
5.13451e-17
8.0202e-16
1.98753e-16
8.34968e-16
2.21469e-16
7.11856e-16
-7.30853e-17
9.09187e-16
-1.34075e-16
9.93395e-16
-8.87934e-17
9.23462e-16
-2.34475e-17
8.53343e-16
-5.66947e-17
5.32141e-16
-1.19907e-16
9.76616e-17
-1.58053e-16
3.45634e-16
-9.16317e-17
7.16997e-16
-3.09442e-17
9.5736e-16
-1.39759e-17
8.47095e-16
-4.69112e-17
8.60003e-16
8.90895e-18
6.77804e-16
-1.04955e-16
8.97468e-16
-2.55999e-16
1.25142e-15
-3.07534e-16
1.47635e-15
-2.13517e-16
1.45072e-15
6.40264e-18
1.68604e-15
-1.09516e-16
1.7841e-15
-2.42263e-16
1.36455e-15
-2.21595e-16
8.94086e-16
-2.09837e-16
1.26955e-15
-3.25102e-16
1.53485e-15
-2.46941e-16
1.49855e-15
-1.27885e-16
1.82871e-15
1.46603e-16
1.96316e-15
1.75738e-16
1.67577e-15
1.0243e-16
1.87364e-15
-3.10372e-16
2.8512e-15
-5.25273e-16
6.12929e-16
-3.72674e-17
1.8362e-15
4.79033e-16
1.5815e-15
2.64802e-16
1.17797e-15
3.23315e-16
9.08552e-16
-1.04475e-16
1.18526e-15
-4.13504e-16
6.56366e-16
-1.33175e-16
1.42171e-15
2.18709e-16
1.38427e-15
-4.7466e-17
1.02485e-15
-1.87504e-16
2.03049e-15
-8.5653e-17
2.32614e-15
-4.77947e-16
2.98348e-15
-8.40677e-17
1.72776e-15
3.28152e-16
1.4029e-15
3.38799e-16
1.14703e-15
4.45003e-17
1.18602e-15
-2.20421e-16
1.03693e-15
-2.83399e-17
9.90983e-16
1.5964e-17
1.22239e-15
-9.92432e-17
2.09263e-15
9.73098e-17
2.70503e-16
-7.04552e-17
2.47651e-15
-1.10522e-16
1.65396e-15
-5.61385e-17
1.4176e-15
2.83114e-17
1.5639e-15
1.88794e-17
1.65331e-15
3.13645e-17
1.68101e-15
-1.67073e-16
-1.20199e-15
-7.8886e-16
4.76506e-15
-4.67637e-16
-5.86825e-16
6.44582e-17
3.402e-15
3.01585e-16
9.41898e-16
-1.54265e-16
2.1725e-15
-2.06966e-16
2.74026e-15
-1.53591e-17
3.09609e-15
3.35499e-16
1.97832e-15
3.12928e-16
1.9411e-15
3.77907e-16
1.31747e-15
2.43159e-16
1.64591e-15
-5.00967e-17
1.73087e-15
2.06703e-17
2.1874e-15
3.75591e-16
2.19098e-15
5.01454e-16
2.17455e-15
3.48029e-16
1.94074e-15
2.79966e-16
1.29473e-15
-1.36454e-17
7.78982e-16
-4.24053e-16
-1.39643e-16
-6.16459e-16
-3.59593e-15
9.3542e-16
-1.37258e-14
2.09591e-15
-3.54002e-15
1.59903e-15
3.19547e-15
1.32665e-15
5.39909e-15
1.80519e-15
5.10239e-15
1.91154e-15
3.90448e-15
2.14057e-15
7.80335e-16
2.29157e-15
5.95844e-15
3.11442e-15
6.32201e-15
-4.92656e-16
6.26366e-15
1.22771e-15
7.24657e-15
5.97711e-17
8.23458e-15
6.36557e-16
8.9626e-15
6.40611e-16
8.41499e-15
7.0579e-16
6.57818e-15
1.03058e-15
6.17347e-15
7.62966e-16
8.68366e-15
1.3158e-15
8.50962e-15
-4.86445e-16
8.28496e-15
1.06648e-15
8.12404e-15
1.21082e-15
8.49374e-15
5.44305e-16
8.89232e-15
2.3595e-16
9.0804e-15
7.05332e-16
9.17206e-15
9.83597e-16
8.48066e-15
8.23484e-16
8.46204e-15
9.15826e-16
7.5736e-15
8.0873e-16
6.92816e-15
8.31392e-16
7.08006e-15
8.13426e-16
6.71605e-15
6.19879e-16
7.01208e-15
9.42478e-16
7.26647e-15
9.73559e-16
7.17189e-15
4.1605e-16
5.53978e-15
-1.04238e-16
7.3785e-15
2.38646e-16
4.63006e-15
3.29034e-16
5.82191e-15
3.57421e-16
4.83998e-15
1.9056e-16
7.56581e-15
7.2065e-16
2.30138e-15
2.53066e-16
3.59381e-15
-4.13066e-16
2.64851e-15
-5.3993e-16
2.55039e-15
-2.62455e-16
3.64296e-15
-3.98384e-16
4.36597e-15
-3.25374e-16
3.02953e-15
2.83883e-16
2.37515e-15
-1.66424e-16
3.21263e-15
-7.9216e-16
4.69827e-15
-8.83886e-16
5.57995e-15
-5.79212e-16
6.03145e-15
-1.82337e-16
5.57727e-15
1.61394e-16
5.38733e-15
6.06801e-16
4.80576e-15
2.56366e-16
2.27181e-15
2.33268e-17
8.59377e-15
6.62651e-17
-1.43897e-14
1.03409e-14
-1.67728e-14
3.89923e-14
-2.71863e-14
2.42058e-15
3.30452e-16
1.36482e-15
2.29256e-15
4.45989e-16
5.66016e-15
7.45403e-16
6.68984e-15
1.68444e-15
7.38528e-15
1.03861e-15
7.44776e-15
7.8897e-16
7.69263e-15
7.17105e-16
8.24643e-15
2.11024e-16
7.5425e-15
-5.11184e-16
6.01493e-15
1.71057e-16
7.49066e-15
1.38878e-15
6.30658e-15
8.13817e-16
7.41556e-15
9.43454e-16
8.60012e-15
7.54794e-16
8.62456e-15
1.37925e-16
8.53614e-15
1.08885e-16
7.82495e-15
5.03307e-16
6.93158e-15
-1.20295e-16
4.58606e-15
-1.09498e-15
1.4115e-15
-6.05493e-16
3.02957e-15
-2.82581e-17
3.80853e-15
-1.92247e-16
4.80997e-15
5.06443e-16
6.82977e-15
1.19047e-15
6.00221e-15
7.06292e-16
6.86951e-15
-2.43279e-16
7.8384e-15
-1.17889e-15
1.26143e-14
-7.15516e-16
3.92681e-15
-3.20897e-16
5.19168e-15
6.31381e-16
1.78356e-15
4.92983e-16
6.11614e-15
6.95103e-16
1.40587e-15
2.71313e-16
8.12582e-15
7.40391e-16
3.12329e-15
-1.50001e-16
6.05163e-15
-2.8578e-16
6.79789e-15
-2.37113e-16
6.90095e-15
-3.11129e-17
6.85383e-15
-1.93665e-16
7.77297e-15
-1.12746e-15
9.7613e-15
-1.10638e-15
1.02655e-14
1.17544e-15
9.47154e-15
1.13063e-15
9.77815e-15
-7.03806e-16
9.6642e-15
-6.56711e-16
3.62358e-15
-2.10522e-15
1.05835e-15
-1.39583e-15
-1.02689e-14
-2.54128e-15
-8.04478e-15
1.15157e-15
-3.90312e-14
9.20699e-15
-4.68417e-14
3.41093e-14
-1.01822e-14
1.81336e-14
-1.4593e-14
-1.92553e-15
-1.74723e-16
-1.87266e-15
6.21124e-15
-1.68657e-15
1.05682e-14
-5.24681e-16
1.28248e-14
9.3818e-16
1.26326e-14
1.60064e-15
1.10153e-14
1.69176e-15
1.04905e-14
1.16864e-15
1.06777e-14
1.21371e-15
1.06041e-14
1.36638e-15
9.2873e-15
7.25343e-16
1.23606e-14
2.00269e-16
6.76951e-15
5.10847e-16
9.94165e-15
9.40329e-16
8.46976e-15
6.23128e-16
9.54013e-15
1.02373e-15
9.90339e-15
1.61493e-15
9.97336e-15
5.52712e-16
1.10752e-14
-1.17997e-15
1.08362e-14
-1.60433e-15
1.75889e-14
-9.29361e-16
-1.44283e-15
4.13069e-15
4.33803e-15
6.75969e-15
-3.53593e-15
2.73996e-15
7.93636e-15
-6.55782e-16
7.29945e-15
-4.12613e-16
8.8372e-15
-2.27822e-16
1.03045e-14
-1.61389e-17
1.08696e-14
8.96476e-16
1.11838e-14
1.69996e-15
1.02474e-14
1.62663e-15
1.00264e-14
7.57425e-16
1.04137e-14
-8.27568e-16
1.1295e-14
-1.001e-15
1.17618e-14
-8.44701e-17
1.25149e-14
-1.44197e-15
1.30305e-14
-4.2451e-16
1.19145e-14
1.72491e-16
1.42689e-14
1.6372e-15
1.15535e-14
1.13779e-15
1.12408e-14
2.60587e-16
9.31916e-15
1.38152e-15
7.43483e-15
1.23154e-15
5.6923e-15
-5.13311e-16
5.66622e-15
-3.8645e-16
-3.25673e-16
1.04077e-15
1.31389e-14
1.40492e-15
5.12851e-15
-1.03148e-15
9.75759e-15
-2.79754e-16
1.15154e-14
-5.01597e-16
1.28237e-14
1.04891e-16
9.73618e-15
9.15879e-16
1.11512e-14
1.28226e-15
1.16766e-14
6.1839e-16
1.219e-14
6.21435e-16
1.11353e-14
1.11293e-15
9.24414e-15
1.69158e-15
8.26585e-15
6.74597e-16
9.06683e-15
-8.94118e-16
1.05227e-14
-9.14506e-16
1.14546e-14
-4.44055e-16
6.10453e-15
7.64686e-17
1.43813e-14
4.1744e-16
1.47562e-15
-8.88061e-18
5.71467e-15
5.0259e-16
8.10828e-15
-2.45887e-15
9.32458e-15
-6.44234e-16
1.09076e-14
-2.58253e-17
1.36854e-14
-8.50501e-16
1.23504e-14
-1.39149e-15
1.62994e-14
-2.57829e-16
1.03228e-14
-1.39507e-15
8.77672e-15
1.12891e-16
4.85162e-15
5.02684e-16
1.0869e-14
1.21241e-15
5.55739e-15
5.00355e-16
8.64096e-15
2.22001e-15
8.42888e-15
2.45293e-15
7.65503e-15
7.13604e-16
7.24737e-15
-1.43854e-16
6.6976e-15
1.33773e-16
3.84712e-15
-1.48253e-15
1.03926e-14
-1.23957e-15
6.1167e-15
-1.62655e-15
6.48042e-15
-9.72884e-16
7.08053e-15
-2.44489e-16
7.17552e-15
-1.5947e-16
6.11857e-15
1.0966e-16
4.98004e-15
9.10895e-17
5.65035e-15
-1.03781e-15
5.92198e-15
-1.0618e-15
5.87642e-15
-5.1411e-16
6.11844e-15
-3.4319e-16
5.41544e-15
-2.08018e-16
5.09588e-15
2.10596e-16
6.25357e-15
5.51146e-17
6.57785e-15
1.01868e-16
5.65479e-15
3.58936e-16
2.3978e-16
3.38648e-17
2.28786e-16
9.53215e-18
1.05912e-16
1.60579e-17
-1.14729e-17
7.6874e-18
2.31132e-17
-4.26252e-19
1.51331e-17
1.67868e-17
2.4742e-17
4.18713e-17
1.1158e-16
8.94211e-17
3.64163e-17
4.31981e-17
2.23712e-17
8.46297e-17
5.53382e-17
1.12822e-16
8.65777e-17
9.86827e-17