/*--------------------------------*- C++ -*----------------------------------*\
  =========                 |
  \\      /  F ield         | OpenFOAM: The Open Source CFD Toolbox
   \\    /   O peration     | Website:  https://openfoam.org
    \\  /    A nd           | Version:  7
     \\/     M anipulation  |
\*---------------------------------------------------------------------------*/
FoamFile
{
    version     2.0;
    format      ascii;
    class       volScalarField;
    location    "2500";
    object      epss;
}
// * * * * * * * * * * * * * * * * * * * * * * * * * * * * * * * * * * * * * //

dimensions      [0 0 0 0 0 0 0];

internalField   nonuniform List<scalar> 
160000
(
0.550383
0.516209
0.540213
0.500964
0.469473
0.542424
0.477539
0.551918
0.521615
0.449926
0.479677
0.519274
0.456589
0.46372
0.5696
0.529224
0.561365
0.556193
0.481615
0.488851
0.504139
0.521992
0.499907
0.46174
0.484232
0.452651
0.450093
0.497878
0.477894
0.535338
0.538118
0.490859
0.411516
0.482987
0.500542
0.474185
0.463065
0.422087
0.550242
0.501377
0.500398
0.501757
0.471278
0.531277
0.468595
0.471611
0.488291
0.544673
0.481469
0.534505
0.496391
0.416311
0.460108
0.492314
0.426803
0.535072
0.432429
0.554185
0.571495
0.531767
0.382804
0.508974
0.514779
0.538509
0.568502
0.434941
0.477382
0.45447
0.586379
0.653691
0.438525
0.552154
0.453672
0.526722
0.475678
0.499075
0.465805
0.510569
0.44153
0.495985
0.433216
0.403906
0.474511
0.504762
0.508293
0.517782
0.516129
0.560809
0.520788
0.4704
0.564953
0.444238
0.422357
0.438548
0.478869
0.557078
0.49842
0.527581
0.520908
0.566313
0.505468
0.597881
0.46681
0.525753
0.572503
0.485812
0.580433
0.490296
0.466779
0.468689
0.434459
0.552961
0.443636
0.518292
0.541155
0.506147
0.557742
0.521089
0.450826
0.478901
0.498269
0.538474
0.48309
0.463834
0.448273
0.399224
0.425701
0.52613
0.500268
0.492971
0.53117
0.567404
0.508181
0.413183
0.463333
0.490242
0.544278
0.506748
0.55465
0.603388
0.500965
0.460954
0.619645
0.492385
0.412761
0.484703
0.482014
0.490147
0.507069
0.55885
0.582381
0.526704
0.578345
0.485779
0.59014
0.500319
0.4992
0.434114
0.483179
0.471393
0.533569
0.509177
0.538519
0.454239
0.58658
0.490076
0.489158
0.548373
0.513526
0.549671
0.436506
0.401569
0.515069
0.414646
0.47604
0.549637
0.513204
0.505657
0.425864
0.437344
0.590052
0.463828
0.554689
0.588871
0.576385
0.562726
0.54155
0.551219
0.583822
0.514298
0.483321
0.501286
0.451835
0.397694
0.33142
0.582254
0.565399
0.363018
0.221893
0.183345
0.232258
0.309934
0.400191
0.512354
0.552769
0.447043
0.341228
0.32166
0.363672
0.404637
0.416961
0.410152
0.446154
0.488733
0.470103
0.472208
0.538798
0.517395
0.414796
0.380754
0.392857
0.452153
0.604801
0.637355
0.613641
0.566163
0.483651
0.580589
0.49218
0.51558
0.636936
0.544806
0.569473
0.490461
0.498406
0.486262
0.56636
0.506889
0.577586
0.522314
0.556022
0.588924
0.544711
0.568058
0.524682
0.536072
0.49747
0.489196
0.326796
0.238198
0.215487
0.282128
0.401017
0.48764
0.535456
0.497072
0.510326
0.625407
0.596398
0.374696
0.241238
0.351768
0.507282
0.623577
0.604471
0.491667
0.479553
0.616773
0.562537
0.375941
0.45139
0.518489
0.479374
0.502218
0.579821
0.634116
0.570286
0.404954
0.432921
0.472393
0.546651
0.546784
0.518052
0.467866
0.448481
0.475945
0.449321
0.542478
0.551153
0.533525
0.536241
0.669369
0.587097
0.534923
0.510723
0.489162
0.462417
0.600464
0.504811
0.549622
0.42079
0.227872
0.156021
0.179942
0.242214
0.302964
0.362244
0.411699
0.465922
0.506343
0.511189
0.55491
0.583632
0.507539
0.417689
0.357
0.351899
0.479923
0.605428
0.603276
0.63111
0.625465
0.616409
0.466532
0.324784
0.27679
0.316814
0.379091
0.403219
0.420056
0.478383
0.485177
0.482206
0.504831
0.506158
0.50706
0.533006
0.519934
0.413608
0.420852
0.573945
0.583882
0.543673
0.561477
0.46095
0.487759
0.467629
0.400178
0.388151
0.421739
0.460514
0.533022
0.536341
0.538375
0.494316
0.48847
0.486565
0.487934
0.49213
0.541846
0.57159
0.576244
0.534979
0.553543
0.474011
0.437617
0.487603
0.390668
0.381216
0.469291
0.517517
0.496569
0.500699
0.411079
0.518994
0.453072
0.535169
0.537747
0.567461
0.551094
0.527073
0.537334
0.547008
0.49085
0.474721
0.473183
0.455396
0.465387
0.505199
0.524344
0.497141
0.526989
0.483851
0.512369
0.564676
0.440239
0.487542
0.603029
0.408397
0.460025
0.422226
0.569656
0.512639
0.547919
0.562319
0.533396
0.482274
0.51356
0.507634
0.493328
0.478509
0.528049
0.509863
0.491646
0.449003
0.541789
0.538127
0.415788
0.426663
0.47111
0.526809
0.509059
0.464759
0.466862
0.562032
0.509829
0.404036
0.423016
0.495428
0.451828
0.480414
0.522827
0.496612
0.523143
0.556813
0.465358
0.423115
0.639103
0.477533
0.420908
0.492552
0.537955
0.472364
0.557146
0.472275
0.422715
0.4938
0.558566
0.491266
0.438479
0.517481
0.486532
0.51967
0.397324
0.577941
0.493438
0.465839
0.540615
0.517892
0.510019
0.503858
0.480652
0.537423
0.548317
0.493876
0.507916
0.561795
0.448959
0.453532
0.412667
0.425031
0.471848
0.56284
0.511453
0.518275
0.472052
0.517434
0.516029
0.524934
0.449265
0.464975
0.496855
0.493411
0.495874
0.408656
0.406591
0.535819
0.517254
0.500979
0.465469
0.436563
0.472434
0.409168
0.446041
0.537274
0.481888
0.504018
0.483361
0.491554
0.550384
0.477884
0.502695
0.568332
0.4216
0.478465
0.538847
0.459763
0.428318
0.474728
0.465866
0.483557
0.562028
0.536028
0.545995
0.522555
0.51158
0.51082
0.483325
0.468116
0.416385
0.420783
0.493279
0.498556
0.497325
0.508667
0.496527
0.504846
0.541281
0.498168
0.529762
0.542704
0.616627
0.435309
0.400507
0.457985
0.568678
0.416933
0.521629
0.578131
0.545525
0.498267
0.466909
0.483156
0.460775
0.452494
0.543173
0.49182
0.520436
0.536874
0.58441
0.436994
0.568972
0.565212
0.517207
0.506923
0.458745
0.520949
0.469411
0.544676
0.48505
0.49858
0.468306
0.497103
0.5184
0.538037
0.493415
0.44773
0.522532
0.493667
0.497148
0.490009
0.503416
0.579289
0.433212
0.508999
0.500495
0.487411
0.520391
0.496807
0.529076
0.544027
0.510801
0.56342
0.622978
0.506203
0.525196
0.517688
0.581781
0.519523
0.407358
0.328817
0.316916
0.352968
0.361013
0.473837
0.493749
0.290327
0.181563
0.191224
0.28369
0.375866
0.449798
0.514106
0.538907
0.466675
0.361482
0.34184
0.408354
0.484373
0.516648
0.51111
0.529769
0.568613
0.557167
0.534607
0.557532
0.561211
0.513806
0.481486
0.534638
0.600757
0.673085
0.664473
0.623
0.55592
0.50668
0.468983
0.542047
0.487114
0.514536
0.510431
0.514506
0.414173
0.399979
0.544266
0.55711
0.523065
0.50876
0.577456
0.552515
0.583992
0.596858
0.508955
0.500313
0.598216
0.47684
0.429423
0.292531
0.170832
0.174449
0.282785
0.407704
0.473715
0.497595
0.51952
0.513837
0.572613
0.579987
0.442896
0.316684
0.389862
0.558862
0.630124
0.604035
0.520387
0.467813
0.59021
0.606946
0.431168
0.351481
0.469315
0.507684
0.47533
0.548248
0.599524
0.590169
0.487644
0.406502
0.451928
0.521179
0.522869
0.493204
0.448478
0.404397
0.422093
0.489863
0.556923
0.60378
0.610637
0.596606
0.657371
0.611767
0.552199
0.534075
0.629417
0.516782
0.450123
0.492601
0.505355
0.31517
0.16703
0.139268
0.221945
0.33593
0.436601
0.51366
0.565702
0.5791
0.57717
0.570603
0.566556
0.569895
0.531945
0.459816
0.41966
0.444097
0.543433
0.64659
0.642808
0.617224
0.619032
0.608391
0.48513
0.269689
0.217618
0.303084
0.410639
0.445683
0.448296
0.49277
0.530321
0.518456
0.524592
0.531127
0.512534
0.522845
0.542733
0.51167
0.496164
0.557976
0.577047
0.514201
0.510667
0.5043
0.474121
0.452439
0.443122
0.448907
0.479838
0.504813
0.553394
0.578772
0.574036
0.523226
0.509537
0.544681
0.559934
0.550313
0.550225
0.553415
0.557846
0.539383
0.530857
0.513372
0.431227
0.434844
0.453685
0.437289
0.509625
0.575303
0.567038
0.580122
0.553188
0.568518
0.532272
0.565638
0.543918
0.505063
0.559134
0.529593
0.458072
0.601256
0.45014
0.504214
0.586645
0.488378
0.524642
0.556607
0.520479
0.463508
0.542368
0.498568
0.460821
0.525691
0.55254
0.446321
0.590809
0.5089
0.575485
0.474358
0.591694
0.609164
0.48034
0.577561
0.452207
0.585611
0.512324
0.458643
0.552015
0.461152
0.40967
0.469958
0.5204
0.452698
0.398673
0.476654
0.405591
0.446677
0.524188
0.45862
0.505916
0.491278
0.532834
0.561809
0.553539
0.518448
0.49876
0.493068
0.40221
0.488247
0.513118
0.477605
0.481166
0.469006
0.563946
0.52443
0.494517
0.531515
0.534042
0.517462
0.492961
0.495461
0.493867
0.512982
0.402582
0.527069
0.55677
0.55255
0.481972
0.407945
0.492241
0.545662
0.53979
0.509829
0.484025
0.477416
0.415294
0.443864
0.398496
0.521896
0.527355
0.513908
0.453217
0.552492
0.544054
0.456716
0.547033
0.557783
0.603267
0.511055
0.592327
0.475785
0.486928
0.588344
0.555071
0.497759
0.494905
0.46695
0.415986
0.488283
0.464851
0.451685
0.448638
0.540064
0.482425
0.525935
0.466256
0.453521
0.525893
0.559877
0.471935
0.522426
0.579937
0.517404
0.584332
0.606985
0.540748
0.518949
0.50962
0.53589
0.546941
0.476134
0.527911
0.500224
0.456386
0.487429
0.490192
0.54309
0.509412
0.458682
0.514426
0.505818
0.525079
0.570791
0.505925
0.524174
0.513396
0.487494
0.490645
0.508622
0.549672
0.550407
0.521807
0.532966
0.547557
0.541875
0.562911
0.528155
0.513617
0.557676
0.539085
0.458983
0.44176
0.500584
0.508576
0.525249
0.509028
0.493801
0.53023
0.533575
0.475771
0.399034
0.484156
0.497098
0.456004
0.506243
0.513561
0.507686
0.519201
0.544691
0.49129
0.534483
0.521143
0.429749
0.426125
0.551556
0.498827
0.506996
0.531617
0.536786
0.573938
0.499752
0.499771
0.501234
0.510316
0.512147
0.517241
0.534359
0.48809
0.439455
0.455869
0.464682
0.489573
0.54164
0.615865
0.541123
0.469774
0.474961
0.542347
0.535032
0.557945
0.599943
0.576205
0.524506
0.548195
0.530417
0.521848
0.468548
0.362933
0.198229
0.170868
0.256909
0.389443
0.44554
0.456079
0.38411
0.314428
0.324969
0.380838
0.436552
0.484038
0.520356
0.531733
0.502094
0.45874
0.448289
0.482185
0.534044
0.55726
0.545769
0.55179
0.587725
0.593671
0.569999
0.569982
0.580723
0.55924
0.533515
0.557016
0.61656
0.645149
0.616201
0.572964
0.528515
0.503627
0.491568
0.531191
0.54174
0.482581
0.512784
0.557193
0.513266
0.470322
0.566509
0.564666
0.512242
0.56075
0.594651
0.578684
0.512651
0.479596
0.518738
0.506977
0.560738
0.504171
0.472169
0.2822
0.148637
0.140921
0.271114
0.421969
0.510741
0.522036
0.522959
0.543421
0.558739
0.573871
0.544302
0.46897
0.459404
0.551474
0.610462
0.596842
0.553054
0.515525
0.539829
0.573081
0.520859
0.449697
0.484787
0.550875
0.518549
0.479632
0.50509
0.525153
0.534326
0.477017
0.41972
0.462816
0.483992
0.465475
0.438979
0.445751
0.49057
0.565824
0.593438
0.584151
0.585664
0.577871
0.575057
0.568132
0.594645
0.635433
0.628673
0.49389
0.319426
0.314883
0.424813
0.277972
0.180711
0.185282
0.281426
0.402459
0.503486
0.556137
0.564656
0.553705
0.54981
0.566445
0.571647
0.552339
0.532432
0.517741
0.500364
0.509753
0.568376
0.624269
0.603871
0.557047
0.562882
0.567276
0.472967
0.315358
0.261865
0.342327
0.451046
0.516021
0.529851
0.537379
0.55645
0.55434
0.523768
0.530038
0.555215
0.565352
0.577007
0.568832
0.533364
0.521825
0.531151
0.521276
0.523732
0.517992
0.479607
0.466904
0.477665
0.471448
0.47174
0.52262
0.587447
0.584054
0.548353
0.503863
0.477978
0.524103
0.564788
0.546913
0.514858
0.533103
0.590659
0.590482
0.540845
0.487053
0.46648
0.45893
0.531377
0.552338
0.523004
0.554965
0.562116
0.517899
0.480226
0.481308
0.48921
0.49757
0.519582
0.532841
0.573949
0.585175
0.52532
0.565413
0.545868
0.509232
0.483718
0.527711
0.568269
0.506798
0.49283
0.483612
0.515209
0.563939
0.480171
0.478353
0.511113
0.480461
0.511215
0.582692
0.500213
0.50651
0.546828
0.438641
0.447138
0.43617
0.426355
0.41951
0.426656
0.46714
0.422487
0.472644
0.439246
0.521392
0.509831
0.501798
0.528958
0.412931
0.470441
0.440945
0.45908
0.483515
0.474336
0.543216
0.410623
0.542535
0.489773
0.408789
0.549368
0.524142
0.47139
0.525176
0.630734
0.562946
0.53171
0.488104
0.464662
0.446806
0.475406
0.454602
0.594448
0.51985
0.417934
0.411812
0.466669
0.488553
0.483443
0.4552
0.495425
0.48919
0.527452
0.502587
0.532731
0.432692
0.458319
0.58815
0.477227
0.498223
0.532389
0.546635
0.505074
0.519843
0.460128
0.498656
0.433207
0.508348
0.536889
0.518267
0.496526
0.498497
0.514172
0.477369
0.459139
0.580845
0.56959
0.536895
0.471914
0.416503
0.448309
0.543575
0.467857
0.503534
0.607387
0.450137
0.470599
0.500105
0.52851
0.438921
0.43073
0.442396
0.422146
0.504696
0.421698
0.536803
0.468764
0.502017
0.512192
0.549729
0.463441
0.555212
0.558478
0.51289
0.430414
0.505033
0.489956
0.460024
0.487735
0.453341
0.437126
0.470654
0.500429
0.494428
0.482402
0.538032
0.472876
0.49967
0.542225
0.529509
0.491954
0.48762
0.454126
0.454396
0.519773
0.529527
0.535071
0.494435
0.581067
0.502205
0.472813
0.465735
0.517217
0.543102
0.51449
0.530404
0.483158
0.509034
0.499758
0.486493
0.543536
0.502116
0.506868
0.52999
0.52431
0.471824
0.579591
0.534786
0.479325
0.479749
0.451971
0.493287
0.532328
0.566528
0.468479
0.524041
0.518908
0.553574
0.554781
0.522545
0.521709
0.459636
0.464738
0.539035
0.504129
0.492446
0.480502
0.471047
0.484265
0.5433
0.529091
0.492923
0.448517
0.411899
0.392291
0.441116
0.524439
0.515827
0.472542
0.497287
0.498744
0.498342
0.554654
0.572308
0.529859
0.52059
0.607504
0.615345
0.535502
0.514031
0.503557
0.483994
0.324388
0.166394
0.135467
0.237208
0.387176
0.457672
0.446045
0.418711
0.412081
0.442459
0.470847
0.481431
0.48756
0.505523
0.536208
0.55425
0.531323
0.495653
0.486227
0.507488
0.535419
0.540124
0.541458
0.572129
0.589867
0.5571
0.526074
0.531663
0.544941
0.56025
0.576614
0.595518
0.600517
0.569598
0.530312
0.509812
0.494957
0.497601
0.518242
0.551867
0.566068
0.563454
0.573602
0.555517
0.543195
0.607031
0.619353
0.584747
0.570683
0.554977
0.53127
0.562285
0.573482
0.572992
0.593276
0.546828
0.524401
0.480096
0.299667
0.166248
0.146576
0.261094
0.417261
0.531203
0.557407
0.540994
0.55176
0.563764
0.552191
0.528429
0.489966
0.467086
0.508755
0.570993
0.586929
0.557397
0.515996
0.506944
0.537575
0.575531
0.540564
0.47728
0.464085
0.4368
0.402581
0.453115
0.563471
0.614106
0.566361
0.468077
0.426625
0.450331
0.469702
0.484951
0.51238
0.542826
0.559656
0.551002
0.560001
0.587771
0.595178
0.559164
0.532847
0.587813
0.637049
0.615073
0.492289
0.303462
0.215404
0.265704
0.339194
0.336607
0.337353
0.38336
0.465898
0.541869
0.565008
0.541457
0.521999
0.519965
0.52455
0.536197
0.537256
0.529285
0.534569
0.536354
0.523658
0.530289
0.559112
0.57199
0.582014
0.586347
0.55014
0.473073
0.389969
0.373382
0.43617
0.506443
0.556007
0.570491
0.569277
0.554178
0.540122
0.540491
0.542945
0.5387
0.533893
0.504839
0.476912
0.470447
0.457142
0.446069
0.480911
0.525463
0.539662
0.53823
0.514549
0.475708
0.457024
0.498924
0.552934
0.580394
0.592412
0.586429
0.577141
0.570832
0.545981
0.544835
0.538434
0.538334
0.535431
0.523618
0.497696
0.506109
0.515707
0.515908
0.53259
0.503501
0.546313
0.570237
0.545006
0.549157
0.523791
0.501976
0.528657
0.520343
0.525209
0.527937
0.51992
0.567829
0.616859
0.565532
0.508285
0.506097
0.6095
0.484149
0.443434
0.495169
0.551713
0.539649
0.493938
0.559073
0.489694
0.525527
0.570537
0.592992
0.52121
0.543636
0.555723
0.565985
0.532385
0.499003
0.478072
0.46475
0.450273
0.426781
0.490065
0.503496
0.508665
0.556901
0.47428
0.491079
0.553826
0.538952
0.645509
0.446426
0.394357
0.521431
0.570668
0.456383
0.462583
0.423948
0.40075
0.512096
0.534245
0.579661
0.530241
0.523136
0.591384
0.477967
0.430453
0.502768
0.469404
0.479952
0.555368
0.505506
0.44636
0.486067
0.57496
0.528604
0.491858
0.423876
0.455475
0.515294
0.445983
0.509567
0.542913
0.535231
0.488734
0.525071
0.465627
0.39395
0.487083
0.480586
0.4786
0.501606
0.540288
0.501742
0.478183
0.542196
0.492639
0.485414
0.549899
0.519737
0.521777
0.511587
0.55653
0.547678
0.466091
0.483137
0.467215
0.518534
0.486001
0.538183
0.547805
0.471568
0.490685
0.454001
0.437182
0.508104
0.491015
0.500135
0.407446
0.542268
0.528506
0.49702
0.512413
0.487093
0.449918
0.499355
0.503063
0.504595
0.499262
0.515414
0.536828
0.507861
0.504474
0.534562
0.486914
0.486827
0.521929
0.547287
0.471383
0.439561
0.475348
0.565898
0.460733
0.464424
0.440352
0.447387
0.50474
0.501515
0.495966
0.523504
0.524752
0.460547
0.418449
0.441574
0.558374
0.552686
0.444525
0.481989
0.524473
0.490097
0.515072
0.510032
0.511081
0.449208
0.475628
0.544995
0.5501
0.527859
0.506527
0.538768
0.482795
0.474816
0.484331
0.527581
0.508027
0.542396
0.532154
0.468811
0.465067
0.469938
0.496133
0.457522
0.518533
0.505734
0.481627
0.533126
0.553419
0.506755
0.519603
0.535151
0.522889
0.494158
0.464883
0.470599
0.463772
0.47301
0.547853
0.58006
0.515014
0.467996
0.455721
0.457694
0.511036
0.567755
0.536959
0.442604
0.432249
0.469839
0.467514
0.525173
0.519287
0.518343
0.548079
0.50704
0.509218
0.526304
0.530574
0.537527
0.536548
0.512067
0.501909
0.544978
0.582222
0.594948
0.460455
0.262068
0.136551
0.123349
0.243128
0.397802
0.498734
0.518523
0.496839
0.491484
0.521613
0.548177
0.538151
0.503124
0.477335
0.485007
0.511294
0.523423
0.510199
0.490115
0.486584
0.50888
0.538827
0.547147
0.538757
0.52168
0.486664
0.464004
0.478723
0.516041
0.554465
0.566135
0.55473
0.541832
0.519908
0.504
0.513691
0.528975
0.532827
0.546545
0.571064
0.572192
0.560455
0.543766
0.553051
0.543061
0.54834
0.597438
0.58584
0.5276
0.521415
0.552782
0.582512
0.592233
0.527838
0.463363
0.459118
0.471543
0.449371
0.287842
0.18753
0.187443
0.292582
0.429857
0.541785
0.589452
0.585499
0.572237
0.564893
0.551881
0.528568
0.506436
0.494203
0.500275
0.531576
0.568551
0.585789
0.576445
0.549278
0.53797
0.560479
0.550067
0.443809
0.355268
0.375221
0.431929
0.489616
0.566304
0.594464
0.542896
0.464507
0.403057
0.413773
0.467558
0.514648
0.553164
0.56874
0.560794
0.562349
0.579176
0.577116
0.532628
0.505573
0.53246
0.586302
0.616532
0.608469
0.52804
0.338884
0.20871
0.223152
0.340902
0.415046
0.442229
0.466295
0.495967
0.515912
0.515253
0.503776
0.49969
0.508421
0.532247
0.56365
0.578286
0.558075
0.525385
0.496528
0.461617
0.435957
0.449113
0.486553
0.509352
0.507655
0.488688
0.4492
0.399882
0.388624
0.429701
0.479092
0.534478
0.57252
0.569119
0.543856
0.51081
0.498661
0.521024
0.553678
0.549723
0.514615
0.500629
0.518125
0.520496
0.491802
0.48659
0.523332
0.54255
0.511749
0.476379
0.465418
0.490638
0.547236
0.578866
0.581318
0.578529
0.58932
0.571525
0.530649
0.517532
0.522623
0.544193
0.549837
0.532449
0.516492
0.525394
0.523709
0.523434
0.527569
0.520023
0.511382
0.496397
0.482247
0.48247
0.51318
0.507677
0.530798
0.539246
0.526167
0.516719
0.547737
0.619902
0.616779
0.525877
0.551577
0.541649
0.500233
0.48856
0.50575
0.471347
0.474132
0.56645
0.567536
0.518322
0.449724
0.482916
0.526029
0.505273
0.5156
0.486576
0.565217
0.616143
0.524454
0.524081
0.508194
0.653628
0.496542
0.56503
0.566657
0.435681
0.476135
0.528021
0.48245
0.563939
0.545604
0.609619
0.531386
0.46659
0.540777
0.436154
0.449396
0.440052
0.40293
0.522935
0.516028
0.491065
0.443151
0.458568
0.43632
0.505035
0.581288
0.534078
0.521985
0.607614
0.519539
0.56653
0.410115
0.502988
0.505522
0.485344
0.487996
0.450046
0.528212
0.528206
0.491251
0.446204
0.442843
0.497341
0.482149
0.534213
0.532617
0.494544
0.48854
0.504919
0.500281
0.481796
0.405866
0.452522
0.533767
0.489559
0.471772
0.522714
0.489197
0.472315
0.496242
0.533209
0.501482
0.513268
0.557819
0.47336
0.529153
0.494549
0.409875
0.44981
0.502285
0.472967
0.419681
0.471669
0.443754
0.433874
0.504324
0.506914
0.42507
0.467404
0.50505
0.529388
0.535686
0.488916
0.472935
0.506243
0.513965
0.470373
0.449661
0.468313
0.416143
0.433629
0.475266
0.539543
0.498309
0.437773
0.497008
0.533897
0.503236
0.580565
0.580255
0.508434
0.567046
0.543381
0.525266
0.471362
0.435358
0.491294
0.513893
0.552
0.51002
0.460556
0.450554
0.498389
0.549634
0.557337
0.501877
0.514595
0.550612
0.553338
0.55788
0.466759
0.453526
0.492062
0.42973
0.490235
0.443977
0.44687
0.485592
0.474069
0.485697
0.49839
0.503918
0.488243
0.455884
0.502806
0.552422
0.540218
0.460851
0.503567
0.500761
0.512329
0.502563
0.512433
0.525166
0.489131
0.458086
0.506296
0.534147
0.490304
0.470266
0.484894
0.54135
0.536179
0.530493
0.484795
0.510392
0.493512
0.526958
0.549971
0.510338
0.499469
0.454169
0.433068
0.438408
0.494392
0.492428
0.493897
0.506514
0.506548
0.526066
0.563312
0.552608
0.556489
0.576294
0.513316
0.470504
0.490551
0.538853
0.511872
0.517635
0.51479
0.46883
0.488809
0.554256
0.567116
0.54596
0.419955
0.196864
0.106899
0.114633
0.244827
0.405494
0.506436
0.523467
0.506185
0.499393
0.509703
0.53115
0.54415
0.52728
0.491629
0.467222
0.466911
0.482254
0.49874
0.501717
0.497943
0.51133
0.536582
0.543826
0.525756
0.50865
0.502343
0.492391
0.489198
0.506405
0.529442
0.539238
0.535652
0.523827
0.514465
0.525539
0.560885
0.593645
0.596969
0.573203
0.559267
0.561516
0.566258
0.555236
0.538858
0.524249
0.550942
0.613652
0.606789
0.530374
0.495325
0.531222
0.567563
0.570067
0.531285
0.461828
0.448164
0.476471
0.443678
0.306637
0.235449
0.264329
0.354615
0.439167
0.50059
0.547101
0.576837
0.579419
0.558873
0.531198
0.513737
0.511349
0.521054
0.53215
0.547005
0.569862
0.567915
0.529219
0.491427
0.490743
0.516451
0.511456
0.42703
0.334986
0.342183
0.437618
0.521948
0.559484
0.567055
0.546149
0.494582
0.432379
0.411214
0.461847
0.524936
0.551989
0.540385
0.513628
0.500034
0.506408
0.513225
0.516016
0.531019
0.548601
0.547104
0.535102
0.536815
0.524495
0.40184
0.245622
0.23292
0.352974
0.458265
0.500371
0.512602
0.532721
0.551702
0.546198
0.520148
0.499169
0.505816
0.528357
0.548069
0.561614
0.55416
0.51475
0.468357
0.437848
0.420812
0.426933
0.472203
0.535799
0.574006
0.563401
0.523801
0.484644
0.477015
0.50254
0.534478
0.560084
0.572966
0.556362
0.522943
0.51357
0.527107
0.530282
0.5395
0.567074
0.572958
0.540776
0.51509
0.512457
0.508947
0.504986
0.522481
0.548638
0.53561
0.510067
0.518485
0.527685
0.508805
0.503241
0.530843
0.555688
0.546667
0.513785
0.502826
0.509891
0.487406
0.479244
0.505259
0.526216
0.530888
0.520124
0.518814
0.533613
0.551089
0.524545
0.508496
0.504395
0.484838
0.496165
0.532429
0.579795
0.564829
0.503699
0.463583
0.509799
0.51408
0.506204
0.517437
0.526199
0.478986
0.53012
0.555285
0.530577
0.511177
0.518345
0.609244
0.573696
0.575807
0.644415
0.57676
0.513881
0.5312
0.497915
0.479794
0.544499
0.505357
0.577028
0.549946
0.42566
0.428042
0.494276
0.555257
0.5323
0.527527
0.526922
0.500753
0.469088
0.455223
0.371654
0.451763
0.47271
0.519043
0.499381
0.539603
0.467628
0.4395
0.462804
0.510376
0.497447
0.547302
0.498474
0.532504
0.427444
0.37229
0.489999
0.533189
0.528351
0.45373
0.436545
0.53089
0.461677
0.521365
0.443236
0.472754
0.461708
0.557946
0.500257
0.531185
0.43455
0.442854
0.434078
0.514526
0.500723
0.441756
0.441815
0.518276
0.527935
0.482054
0.523557
0.556465
0.507388
0.523529
0.468572
0.428033
0.518749
0.486105
0.449032
0.500814
0.514511
0.47001
0.515856
0.523819
0.535976
0.560609
0.524258
0.45801
0.437351
0.547201
0.537086
0.452088
0.466973
0.503504
0.548707
0.508696
0.44256
0.433136
0.472489
0.450143
0.48178
0.502029
0.470632
0.504664
0.523285
0.511116
0.533233
0.575984
0.454238
0.469968
0.487351
0.493136
0.499273
0.502558
0.469746
0.532683
0.494614
0.451157
0.47888
0.525471
0.589576
0.497039
0.419546
0.503863
0.558935
0.47905
0.463829
0.427185
0.449263
0.483941
0.463457
0.50038
0.556534
0.468401
0.473134
0.561912
0.557889
0.496833
0.467188
0.478692
0.545789
0.557366
0.455509
0.438303
0.424108
0.454337
0.481123
0.529185
0.488927
0.447159
0.499262
0.489752
0.463619
0.489794
0.516671
0.541751
0.549109
0.532157
0.542568
0.466044
0.458489
0.442141
0.462852
0.523426
0.529161
0.551295
0.519727
0.496334
0.477417
0.473301
0.463109
0.488837
0.536441
0.554219
0.545236
0.448366
0.489211
0.514075
0.490556
0.514973
0.55581
0.577099
0.518915
0.481668
0.44418
0.400684
0.434896
0.536022
0.537662
0.509208
0.495887
0.50886
0.503306
0.517784
0.520492
0.480023
0.509122
0.538991
0.48875
0.475713
0.497801
0.503666
0.497163
0.506957
0.504951
0.549044
0.568789
0.559895
0.420443
0.17618
0.0978273
0.131481
0.272309
0.419552
0.51567
0.548856
0.541996
0.525608
0.503593
0.477927
0.470877
0.48359
0.489919
0.479207
0.468102
0.477934
0.508059
0.535215
0.535795
0.521441
0.509837
0.498842
0.498949
0.518642
0.524184
0.496858
0.478146
0.500189
0.524471
0.523725
0.525481
0.542428
0.544389
0.526551
0.529719
0.547861
0.548265
0.541006
0.551394
0.561044
0.537604
0.51719
0.532311
0.564419
0.578016
0.58711
0.585093
0.552026
0.504938
0.482183
0.494526
0.504811
0.478274
0.3966
0.336359
0.357128
0.383336
0.341866
0.308807
0.338004
0.392119
0.448911
0.504973
0.559277
0.601279
0.612259
0.593248
0.566227
0.550881
0.547246
0.539521
0.519133
0.501272
0.501142
0.506707
0.499303
0.490454
0.502818
0.517031
0.497498
0.439315
0.390859
0.405753
0.477771
0.545861
0.573778
0.567847
0.55475
0.539854
0.50312
0.45561
0.446884
0.482702
0.510069
0.511319
0.513582
0.528139
0.542031
0.543081
0.539617
0.545484
0.55482
0.558088
0.546585
0.534359
0.537042
0.482253
0.325252
0.253044
0.334951
0.450916
0.518195
0.527854
0.520492
0.522672
0.519334
0.507908
0.508117
0.520342
0.530124
0.532118
0.535933
0.541705
0.525801
0.486718
0.464315
0.480297
0.51169
0.53588
0.557411
0.559922
0.532411
0.507436
0.499868
0.50004
0.503334
0.501433
0.499269
0.506162
0.518337
0.522242
0.514889
0.496802
0.478417
0.468691
0.477159
0.503079
0.521624
0.523976
0.526781
0.526831
0.507023
0.492747
0.521172
0.550734
0.533768
0.510314
0.519515
0.540805
0.548693
0.549008
0.557608
0.574296
0.573126
0.534537
0.491958
0.501068
0.532501
0.544177
0.550942
0.540995
0.5209
0.523917
0.539765
0.525822
0.51451
0.504196
0.512318
0.514366
0.488996
0.474202
0.499857
0.511311
0.515072
0.543465
0.553991
0.53824
0.533226
0.524495
0.536855
0.588431
0.590682
0.532905
0.494831
0.493668
0.544331
0.574272
0.567098
0.494138
0.547101
0.572224
0.504484
0.442483
0.467366
0.496411
0.543114
0.498613
0.557044
0.557986
0.604343
0.509027
0.526667
0.479285
0.574942
0.456311
0.549866
0.492999
0.576206
0.467362
0.46794
0.508104
0.489097
0.447119
0.460004
0.527561
0.53255
0.623674
0.476119
0.521404
0.491578
0.566603
0.449245
0.454462
0.515682
0.58272
0.491161
0.521955
0.483189
0.507079
0.494087
0.482325
0.369461
0.483992
0.488574
0.457518
0.490839
0.528533
0.510541
0.460086
0.483709
0.507372
0.518786
0.558449
0.504371
0.520721
0.503877
0.457342
0.452741
0.480956
0.419126
0.464417
0.450174
0.456942
0.426233
0.476374
0.487929
0.471
0.481913
0.539024
0.494065
0.541807
0.493887
0.501218
0.503777
0.452685
0.481055
0.487874
0.453434
0.474278
0.508218
0.492655
0.448152
0.43356
0.477686
0.501101
0.472905
0.423516
0.488601
0.544876
0.551713
0.517982
0.475531
0.531025
0.522295
0.500721
0.495812
0.506558
0.452713
0.501805
0.489576
0.523394
0.510781
0.45416
0.489108
0.554687
0.549975
0.518416
0.488247
0.490121
0.480913
0.46578
0.500571
0.492593
0.4558
0.447585
0.491871
0.532057
0.500487
0.528535
0.557529
0.50915
0.516699
0.496066
0.441383
0.487866
0.507317
0.552833
0.58526
0.573414
0.546082
0.5201
0.480534
0.437627
0.494702
0.517434
0.491707
0.519085
0.526123
0.441475
0.445396
0.547388
0.582263
0.522251
0.441
0.454302
0.549423
0.587554
0.519611
0.440095
0.427867
0.487715
0.47161
0.493785
0.549635
0.55097
0.491555
0.48568
0.517065
0.484619
0.460903
0.509404
0.586757
0.544061
0.502134
0.511478
0.516636
0.5451
0.500378
0.456958
0.520352
0.566722
0.556931
0.524996
0.512981
0.46921
0.448398
0.50248
0.562646
0.504211
0.464615
0.488716
0.530358
0.494141
0.442333
0.473859
0.562654
0.532945
0.466069
0.468336
0.552261
0.58093
0.551475
0.513065
0.547248
0.586304
0.577121
0.516251
0.388279
0.164567
0.0964287
0.137061
0.275954
0.43052
0.529281
0.554067
0.540642
0.538675
0.559663
0.56245
0.524842
0.481672
0.468949
0.482414
0.49233
0.489732
0.491988
0.506615
0.521166
0.51967
0.505694
0.490292
0.476377
0.468719
0.479336
0.50144
0.525834
0.551233
0.565935
0.557739
0.53493
0.516862
0.504332
0.493191
0.493716
0.505316
0.5169
0.528431
0.537268
0.518908
0.47871
0.481956
0.531912
0.556542
0.543949
0.526228
0.532271
0.546824
0.510642
0.443803
0.436465
0.484528
0.505581
0.452659
0.388471
0.389054
0.429869
0.438175
0.422701
0.429742
0.460318
0.499684
0.535646
0.568887
0.593408
0.597144
0.58994
0.589028
0.588738
0.576928
0.546931
0.507216
0.486485
0.49288
0.504212
0.506912
0.505954
0.510819
0.522758
0.522269
0.482951
0.427073
0.423384
0.490445
0.562516
0.579755
0.553153
0.537959
0.558121
0.578664
0.558872
0.522115
0.508324
0.520731
0.539248
0.546663
0.541449
0.534574
0.530438
0.527601
0.53557
0.541876
0.519407
0.476888
0.456282
0.481367
0.500576
0.416522
0.309602
0.316718
0.396591
0.489291
0.568951
0.60613
0.592188
0.547222
0.502666
0.488788
0.515803
0.559328
0.580368
0.560977
0.523689
0.500961
0.499824
0.506991
0.518491
0.537469
0.554412
0.552269
0.533427
0.524715
0.542369
0.565084
0.558777
0.522225
0.489622
0.47951
0.483791
0.500266
0.514769
0.510864
0.495829
0.484191
0.490248
0.528033
0.566035
0.556111
0.522406
0.506835
0.507808
0.504752
0.483648
0.470662
0.483473
0.501303
0.509283
0.519211
0.551028
0.576317
0.580562
0.584724
0.600217
0.596221
0.55977
0.541227
0.556871
0.561249
0.553294
0.545319
0.5179
0.483136
0.476286
0.502274
0.528442
0.554332
0.56058
0.545505
0.535873
0.539427
0.553536
0.571117
0.584799
0.554036
0.520115
0.528753
0.549423
0.54489
0.510868
0.495893
0.517212
0.560103
0.587126
0.556105
0.524689
0.562998
0.589932
0.539214
0.461399
0.510494
0.501314
0.453248
0.480548
0.460118
0.543007
0.511574
0.497016
0.502439
0.527403
0.552007
0.44427
0.473939
0.544058
0.590236
0.500289
0.423745
0.487487
0.491981
0.436454
0.420827
0.486639
0.354757
0.4723
0.445077
0.485581
0.468339
0.423572
0.465111
0.450914
0.47403
0.568268
0.523106
0.440205
0.539484
0.522673
0.516927
0.491131
0.535077
0.483961
0.46514
0.53272
0.471743
0.453698
0.526169
0.507133
0.483488
0.505909
0.52065
0.507161
0.436556
0.482572
0.539532
0.513508
0.542136
0.409425
0.424932
0.462323
0.535522
0.525402
0.501329
0.489425
0.5111
0.494518
0.545644
0.492498
0.46771
0.518118
0.536303
0.454248
0.466081
0.524972
0.495528
0.477677
0.488011
0.461788
0.432344
0.470626
0.487708
0.466462
0.465259
0.456347
0.461033
0.477513
0.432582
0.446168
0.489307
0.48589
0.473799
0.505574
0.537667
0.487819
0.486631
0.534819
0.564247
0.553695
0.468688
0.443944
0.481322
0.509975
0.517769
0.502543
0.526978
0.477529
0.477804
0.479012
0.496062
0.535164
0.561732
0.511207
0.531304
0.495128
0.490518
0.561986
0.543989