/*--------------------------------*- C++ -*----------------------------------*\
  =========                 |
  \\      /  F ield         | OpenFOAM: The Open Source CFD Toolbox
   \\    /   O peration     | Website:  https://openfoam.org
    \\  /    A nd           | Version:  7
     \\/     M anipulation  |
\*---------------------------------------------------------------------------*/
FoamFile
{
    version     2.0;
    format      ascii;
    class       volScalarField;
    location    "2500";
    object      k1Write;
}
// * * * * * * * * * * * * * * * * * * * * * * * * * * * * * * * * * * * * * //

dimensions      [0 2 0 0 0 0 0];

internalField   nonuniform List<scalar> 
160000
(
5.70902e-19
8.10541e-19
5.13659e-19
7.96079e-19
1.02924e-18
4.84722e-19
1.10802e-18
6.35629e-19
7.33272e-19
1.47761e-18
1.0705e-18
6.92842e-19
1.252e-18
1.3829e-18
4.59791e-19
6.43705e-19
4.64462e-19
5.29452e-19
1.31664e-18
1.23003e-18
8.08841e-19
6.72985e-19
9.8737e-19
1.41977e-18
9.08835e-19
1.24833e-18
1.74864e-18
1.09262e-18
1.33888e-18
7.55333e-19
7.37265e-19
9.18917e-19
2.02825e-18
1.00313e-18
8.45823e-19
1.11875e-18
1.69394e-18
2.55351e-18
7.11346e-19
1.17259e-18
8.11207e-19
8.0407e-19
1.17806e-18
8.69269e-19
1.63571e-18
1.59505e-18
1.35777e-18
5.89645e-19
1.11982e-18
6.60573e-19
9.74566e-19
2.88925e-18
1.88083e-18
1.37247e-18
2.64062e-18
9.00783e-19
2.17844e-18
6.12815e-19
5.14072e-19
8.3805e-19
3.72219e-18
1.06547e-18
1.00987e-18
7.97634e-19
5.87727e-19
2.15214e-18
1.32021e-18
1.66492e-18
4.37981e-19
2.40684e-19
2.30136e-18
7.40102e-19
1.99948e-18
9.68741e-19
1.62252e-18
1.29124e-18
1.8061e-18
1.16145e-18
2.31809e-18
1.35655e-18
2.54032e-18
3.32797e-18
1.6263e-18
1.20846e-18
1.19013e-18
1.08671e-18
1.0827e-18
6.72711e-19
1.01778e-18
1.66392e-18
6.42291e-19
2.34811e-18
2.93035e-18
2.50696e-18
1.68883e-18
7.6939e-19
1.41736e-18
1.06147e-18
1.14051e-18
7.18785e-19
1.34344e-18
5.13189e-19
1.95182e-18
1.08731e-18
6.89312e-19
1.57905e-18
6.03434e-19
1.64943e-18
2.09231e-18
2.06143e-18
2.90549e-18
8.8933e-19
2.67404e-18
1.27651e-18
9.80446e-19
1.35014e-18
8.01618e-19
1.30615e-18
2.64159e-18
2.00803e-18
1.66214e-18
1.11193e-18
1.94976e-18
2.36922e-18
2.77431e-18
4.53341e-18
3.06542e-18
1.08719e-18
1.41554e-18
1.52802e-18
1.04438e-18
7.21519e-19
1.59872e-18
4.12291e-18
2.48109e-18
1.63578e-18
9.51512e-19
1.39643e-18
8.60892e-19
5.15429e-19
1.60441e-18
2.28583e-18
4.45874e-19
1.85114e-18
4.09203e-18
2.01207e-18
2.07307e-18
1.91847e-18
1.62483e-18
9.38864e-19
7.31705e-19
1.3026e-18
7.59761e-19
1.92896e-18
6.63901e-19
1.7843e-18
1.81006e-18
3.4638e-18
2.05399e-18
2.21411e-18
1.19083e-18
1.52825e-18
1.07021e-18
2.49555e-18
6.52407e-19
1.99524e-18
2.01945e-18
1.1135e-18
1.59128e-18
1.1048e-18
3.44155e-18
4.88505e-18
1.43987e-18
4.03992e-18
2.20158e-18
1.05143e-18
1.62815e-18
1.70342e-18
3.77219e-18
3.37555e-18
7.19042e-19
2.67692e-18
1.07499e-18
7.53672e-19
9.17031e-19
1.09785e-18
1.28609e-18
1.08193e-18
7.71173e-19
1.69132e-18
2.12206e-18
1.51032e-18
2.37887e-18
4.05434e-18
8.00648e-18
6.34453e-19
9.93406e-19
5.61588e-18
2.54572e-17
4.32159e-17
2.24426e-17
9.17164e-18
3.62137e-18
1.36422e-18
1.20388e-18
3.488e-18
9.88511e-18
1.08965e-17
7.05129e-18
4.67503e-18
4.14288e-18
4.44266e-18
3.11419e-18
2.05423e-18
2.53019e-18
2.48268e-18
1.27478e-18
1.70123e-18
4.72809e-18
6.48225e-18
5.36674e-18
2.98229e-18
6.26771e-19
4.78499e-19
7.16093e-19
1.1984e-18
2.77335e-18
1.03328e-18
2.21376e-18
1.65313e-18
4.56755e-19
1.40727e-18
1.14146e-18
2.55536e-18
2.33478e-18
2.32779e-18
9.63855e-19
1.79361e-18
8.6967e-19
1.58715e-18
1.12625e-18
8.37081e-19
1.47824e-18
1.1788e-18
1.8288e-18
1.6286e-18
2.40724e-18
2.61832e-18
1.13333e-17
1.57907e-17
2.05456e-17
9.19883e-18
2.65181e-18
1.37007e-18
1.13382e-18
1.94819e-18
1.70808e-18
5.09794e-19
8.1368e-19
6.17867e-18
2.66789e-17
7.83488e-18
1.65675e-18
4.93826e-19
7.81265e-19
2.50967e-18
2.7288e-18
6.59416e-19
1.31614e-18
8.56628e-18
4.0038e-18
1.56463e-18
2.31591e-18
1.84686e-18
8.34196e-19
5.1622e-19
1.25479e-18
6.61621e-18
5.01531e-18
2.72748e-18
1.24053e-18
1.32209e-18
1.77293e-18
2.91602e-18
3.16338e-18
2.41321e-18
3.14402e-18
1.23854e-18
1.17587e-18
1.59698e-18
1.5552e-18
3.62012e-19
1.10684e-18
1.91538e-18
2.44894e-18
3.04123e-18
3.50477e-18
8.54046e-19
2.48913e-18
1.42173e-18
2.93614e-18
1.32897e-17
3.69078e-17
2.55985e-17
1.11235e-17
5.55596e-18
2.98106e-18
2.14056e-18
1.47418e-18
1.3342e-18
1.665e-18
1.16612e-18
9.8995e-19
2.1764e-18
4.93719e-18
7.70601e-18
8.12451e-18
2.25962e-18
6.20397e-19
7.36435e-19
5.94376e-19
6.63492e-19
8.2023e-19
3.85401e-18
1.47334e-17
1.85288e-17
1.194e-17
6.26133e-18
4.92042e-18
4.16134e-18
2.33707e-18
2.18551e-18
2.25291e-18
1.79837e-18
1.77588e-18
1.76089e-18
1.35591e-18
1.87532e-18
4.70368e-18
3.33922e-18
7.1523e-19
6.44147e-19
9.80265e-19
8.16029e-19
4.14404e-18
3.29534e-18
4.02752e-18
7.86692e-18
6.66401e-18
4.44034e-18
3.02662e-18
1.46556e-18
1.55978e-18
1.70242e-18
2.65604e-18
2.81596e-18
2.87141e-18
2.62905e-18
2.48586e-18
1.50593e-18
1.10679e-18
1.11519e-18
1.78921e-18
1.4794e-18
3.30159e-18
4.73397e-18
2.88586e-18
7.5599e-18
8.32192e-18
3.00071e-18
1.82606e-18
2.2529e-18
2.16283e-18
5.26558e-18
1.8005e-18
3.47355e-18
1.5288e-18
1.60125e-18
1.20331e-18
1.48638e-18
1.90031e-18
1.71222e-18
1.57053e-18
2.7698e-18
3.25195e-18
3.30228e-18
3.64981e-18
3.28805e-18
2.21235e-18
1.84547e-18
2.41009e-18
1.70743e-18
2.58442e-18
1.5765e-18
8.11536e-19
2.1266e-18
8.91135e-19
2.70925e-19
1.95531e-18
1.172e-18
1.79099e-18
4.07739e-19
9.22051e-19
4.65881e-19
4.02531e-19
5.55636e-19
1.04226e-18
7.64718e-19
8.20606e-19
9.50734e-19
1.11233e-18
6.97741e-19
8.77281e-19
1.05641e-18
1.61871e-18
6.25138e-19
5.9006e-19
2.19143e-18
1.97492e-18
1.11303e-18
6.40007e-19
8.973e-19
1.40062e-18
1.37736e-18
4.61268e-19
9.60986e-19
2.7618e-18
2.29634e-18
1.12443e-18
1.74088e-18
1.20871e-18
6.85596e-19
8.7423e-19
6.70873e-19
4.77544e-19
1.64832e-18
2.51633e-18
2.43082e-19
1.4803e-18
2.1679e-18
8.77416e-19
5.57864e-19
1.14858e-18
6.61096e-19
1.57703e-18
2.58921e-18
1.2853e-18
5.78998e-19
1.04623e-18
1.723e-18
7.88837e-19
1.37976e-18
9.74923e-19
3.21496e-18
5.24386e-19
1.36986e-18
1.73858e-18
7.46939e-19
9.60019e-19
1.04414e-18
1.11601e-18
1.41356e-18
8.02753e-19
7.21343e-19
1.25676e-18
1.0428e-18
6.37111e-19
2.03659e-18
1.95567e-18
2.9462e-18
2.35068e-18
1.46749e-18
5.87541e-19
1.08635e-18
9.69594e-19
1.54488e-18
9.86463e-19
1.00517e-18
1.00068e-18
2.16601e-18
1.82995e-18
1.28744e-18
1.36946e-18
1.34503e-18
3.21091e-18
3.24709e-18
8.86886e-19
1.11522e-18
1.31901e-18
1.8863e-18
2.52257e-18
1.77623e-18
3.3409e-18
2.32786e-18
9.26387e-19
1.65533e-18
1.33305e-18
1.64168e-18
1.38004e-18
7.62781e-19
1.59106e-18
1.24775e-18
7.1297e-19
3.44814e-18
1.8348e-18
9.80879e-19
2.17494e-18
2.81691e-18
1.77948e-18
1.95105e-18
1.64353e-18
7.45036e-19
1.0614e-18
9.71924e-19
1.27218e-18
1.4265e-18
1.44297e-18
1.90646e-18
2.22593e-18
3.73126e-18
3.58599e-18
1.59371e-18
1.50054e-18
1.52484e-18
1.36626e-18
1.57817e-18
1.40834e-18
9.89278e-19
1.53337e-18
1.05557e-18
9.28347e-19
4.38697e-19
3.29786e-18
4.67902e-18
2.65417e-18
8.70474e-19
4.10702e-18
1.31859e-18
6.86065e-19
1.02146e-18
1.72791e-18
2.36842e-18
2.02267e-18
2.53376e-18
2.76003e-18
1.11619e-18
1.79649e-18
1.32063e-18
1.12133e-18
6.94425e-19
2.97835e-18
7.90877e-19
8.745e-19
1.49679e-18
1.66502e-18
2.69774e-18
1.45482e-18
2.44217e-18
1.07502e-18
1.99502e-18
1.74852e-18
2.37011e-18
1.62542e-18
1.31661e-18
1.09035e-18
1.92986e-18
3.02459e-18
1.40912e-18
1.94154e-18
1.64718e-18
1.77387e-18
1.55579e-18
7.16452e-19
3.54953e-18
1.67617e-18
1.94674e-18
2.21306e-18
1.53331e-18
1.96859e-18
1.35422e-18
1.20072e-18
1.61348e-18
9.4506e-19
5.33788e-19
1.98996e-18
1.64758e-18
1.69339e-18
8.14673e-19
1.77659e-18
5.43707e-18
1.21561e-17
8.87867e-18
4.80261e-18
5.45117e-18
2.00198e-18
2.05493e-18
1.64055e-17
6.45042e-17
3.84838e-17
1.21864e-17
4.60343e-18
2.33286e-18
1.3215e-18
1.16797e-18
2.86597e-18
8.21375e-18
9.96165e-18
4.48571e-18
2.11504e-18
1.53779e-18
1.64489e-18
1.36024e-18
9.47657e-19
1.16895e-18
1.48626e-18
1.13984e-18
1.14432e-18
1.68644e-18
2.21708e-18
1.30236e-18
6.52584e-19
2.8593e-19
3.36733e-19
6.25312e-19
1.33074e-18
2.19984e-18
3.20859e-18
1.54307e-18
2.68921e-18
2.04707e-18
2.13722e-18
2.05447e-18
5.5805e-18
5.12677e-18
1.21559e-18
1.10682e-18
1.50336e-18
1.73919e-18
8.60485e-19
1.11811e-18
8.05371e-19
7.83758e-19
2.21662e-18
2.42066e-18
8.81453e-19
3.37339e-18
5.40333e-18
1.60361e-17
3.83541e-17
3.64414e-17
9.10424e-18
2.47477e-18
1.90836e-18
1.79594e-18
1.50322e-18
1.64161e-18
8.99236e-19
9.68398e-19
3.88024e-18
1.1291e-17
5.31122e-18
9.78315e-19
4.73232e-19
7.54413e-19
1.88028e-18
3.06012e-18
8.78819e-19
8.19072e-19
4.92569e-18
1.09978e-17
2.59026e-18
1.74383e-18
2.41132e-18
1.15813e-18
6.75607e-19
9.37207e-19
2.90936e-18
6.51365e-18
3.92694e-18
1.52555e-18
1.58065e-18
2.27207e-18
3.45023e-18
4.89524e-18
4.11053e-18
2.10066e-18
1.06629e-18
6.49341e-19
6.1531e-19
7.41493e-19
3.93098e-19
8.01659e-19
1.59582e-18
1.79547e-18
6.51037e-19
2.77053e-18
5.42433e-18
3.16702e-18
3.14441e-18
2.14747e-17
5.94892e-17
4.90664e-17
1.43406e-17
3.89298e-18
1.62836e-18
1.00233e-18
7.31153e-19
7.5504e-19
8.73825e-19
1.03345e-18
1.15261e-18
1.14822e-18
1.69988e-18
3.49914e-18
5.10112e-18
3.21644e-18
1.19139e-18
3.90557e-19
4.57971e-19
7.08239e-19
7.54184e-19
8.95351e-19
3.20216e-18
2.95997e-17
5.50992e-17
1.38393e-17
4.5604e-18
3.22477e-18
3.14398e-18
2.02406e-18
1.48877e-18
1.89801e-18
1.71845e-18
1.5797e-18
1.90381e-18
1.57138e-18
1.30377e-18
2.09398e-18
2.44811e-18
1.1239e-18
9.54487e-19
1.93399e-18
1.6378e-18
2.11854e-18
3.77188e-18
4.67915e-18
5.13131e-18
3.39085e-18
2.49552e-18
1.94691e-18
1.18877e-18
9.12438e-19
1.07557e-18
1.98597e-18
2.28034e-18
1.59733e-18
1.36498e-18
1.50844e-18
1.51024e-18
1.46192e-18
1.39677e-18
1.70919e-18
1.86581e-18
2.22794e-18
5.04175e-18
4.86831e-18
4.02947e-18
4.0732e-18
1.98501e-18
1.01225e-18
1.13992e-18
1.00379e-18
1.32075e-18
1.09391e-18
1.64068e-18
1.16382e-18
1.56847e-18
2.32523e-18
1.34115e-18
1.85198e-18
3.77673e-18
8.73339e-19
4.14865e-18
2.36434e-18
1.01223e-18
2.83937e-18
1.82937e-18
1.32476e-18
2.10245e-18
3.71261e-18
1.61418e-18
2.51316e-18
3.65751e-18
1.60173e-18
1.19173e-18
2.93403e-18
3.32101e-19
7.20294e-19
3.63893e-19
1.0168e-18
3.21851e-19
2.90148e-19
1.2732e-18
4.74359e-19
1.66177e-18
3.58861e-19
8.40037e-19
1.43829e-18
5.38021e-19
1.39101e-18
2.32548e-18
1.2835e-18
7.81016e-19
1.55473e-18
2.66871e-18
1.23524e-18
2.50892e-18
1.44579e-18
6.73171e-19
1.40813e-18
8.83116e-19
1.0237e-18
6.76654e-19
5.14399e-19
6.13493e-19
8.81159e-19
1.0782e-18
1.14615e-18
2.83684e-18
1.19614e-18
8.88946e-19
1.25804e-18
1.13426e-18
1.15248e-18
4.43449e-19
8.41731e-19
1.17412e-18
7.41886e-19
7.26223e-19
8.68446e-19
1.17641e-18
1.14753e-18
1.118e-18
9.63342e-19
2.53785e-18
7.18625e-19
5.65515e-19
6.21716e-19
1.27394e-18
2.6679e-18
1.13686e-18
6.65967e-19
7.51267e-19
1.10204e-18
1.4818e-18
1.60661e-18
2.97271e-18
1.91701e-18
2.91213e-18
8.56704e-19
8.46128e-19
1.01371e-18
1.86416e-18
5.70243e-19
6.69881e-19
1.61602e-18
6.56054e-19
5.8992e-19
3.77495e-19
1.10837e-18
4.80447e-19
1.58687e-18
1.26906e-18
4.5102e-19
7.31024e-19
1.3137e-18
1.35802e-18
1.80133e-18
2.99913e-18
1.47106e-18
1.87764e-18
1.92283e-18
1.95439e-18
7.86408e-19
1.54484e-18
1.00561e-18
1.90301e-18
1.96586e-18
9.56917e-19
6.84285e-19
1.7115e-18
1.0217e-18
5.66681e-19
1.08222e-18
5.44556e-19
4.45269e-19
9.19345e-19
1.1521e-18
1.24749e-18
9.38885e-19
9.38351e-19
1.96779e-18
1.08628e-18
1.58021e-18
2.47958e-18
1.54958e-18
1.47959e-18
8.71309e-19
1.35033e-18
2.24672e-18
1.29452e-18
1.41705e-18
1.17179e-18
7.22112e-19
1.43886e-18
1.20195e-18
1.38978e-18
1.77052e-18
1.52974e-18
1.23894e-18
8.19967e-19
8.99429e-19
1.21493e-18
1.08905e-18
9.29087e-19
9.88576e-19
8.14178e-19
1.18161e-18
1.37356e-18
8.79478e-19
1.11641e-18
2.49965e-18
2.97537e-18
1.66292e-18
1.54041e-18
1.30656e-18
1.64511e-18
1.92232e-18
1.21268e-18
1.14023e-18
2.16163e-18
4.20138e-18
1.81093e-18
1.71791e-18
2.641e-18
1.60758e-18
1.49853e-18
1.51072e-18
1.34141e-18
1.04026e-18
1.83857e-18
1.19408e-18
1.37928e-18
3.43603e-18
3.3775e-18
9.64956e-19
1.81691e-18
1.54628e-18
1.1611e-18
1.10488e-18
7.86129e-19
1.84524e-18
1.85066e-18
1.82911e-18
1.56754e-18
1.49051e-18
1.42012e-18
1.24982e-18
2.23578e-18
3.10825e-18
2.48881e-18
2.28767e-18
1.79106e-18
1.06269e-18
4.85076e-19
1.31089e-18
2.69039e-18
2.56227e-18
1.30476e-18
1.4096e-18
1.04369e-18
6.06132e-19
8.43625e-19
1.56422e-18
1.2361e-18
1.56254e-18
1.72647e-18
2.94802e-18
8.48546e-18
5.68585e-17
3.96686e-17
9.49609e-18
2.97369e-18
2.55237e-18
2.73242e-18
6.11371e-18
1.26151e-17
1.12992e-17
6.13179e-18
2.94189e-18
1.84436e-18
1.37676e-18
1.38572e-18
2.00727e-18
2.95807e-18
3.01893e-18
2.15245e-18
1.28129e-18
1.01992e-18
1.18154e-18
1.11556e-18
7.81552e-19
7.96445e-19
1.04882e-18
1.05108e-18
9.40323e-19
1.18017e-18
1.54017e-18
1.03753e-18
5.4782e-19
4.14059e-19
6.56915e-19
1.10998e-18
1.75896e-18
2.26422e-18
2.55896e-18
1.72081e-18
1.54796e-18
2.81272e-18
2.08382e-18
1.32692e-18
2.0803e-18
2.74887e-18
8.51347e-19
1.04266e-18
1.956e-18
1.05579e-18
7.18066e-19
9.61533e-19
1.97873e-18
2.7571e-18
1.86676e-18
2.10427e-18
1.30643e-18
2.56541e-18
3.53341e-18
2.49183e-17
5.98401e-17
6.28129e-17
1.03711e-17
2.14253e-18
1.2328e-18
1.40384e-18
1.51862e-18
1.24002e-18
1.08707e-18
9.93222e-19
1.40453e-18
2.99783e-18
3.10539e-18
1.05456e-18
5.69263e-19
7.773e-19
1.3455e-18
1.97478e-18
1.54528e-18
1.1356e-18
2.01475e-18
4.09155e-18
2.22689e-18
1.13938e-18
1.90103e-18
2.82708e-18
2.19578e-18
1.78364e-18
1.76941e-18
3.23307e-18
5.71226e-18
3.07505e-18
2.21382e-18
2.66286e-18
3.46602e-18
3.24373e-18
2.08238e-18
9.6993e-19
7.64642e-19
9.30215e-19
9.49888e-19
1.04373e-18
1.07622e-18
1.15716e-18
8.71125e-19
5.66785e-19
7.55413e-19
3.51382e-18
2.04469e-17
2.14915e-17
6.99298e-18
3.23415e-17
1.1185e-16
7.01003e-17
7.02776e-18
1.97507e-18
1.04068e-18
8.945e-19
1.09286e-18
1.41104e-18
1.38156e-18
1.05741e-18
1.0366e-18
1.3767e-18
1.6901e-18
1.96251e-18
2.33526e-18
1.71429e-18
9.19597e-19
5.03159e-19
7.56319e-19
1.42318e-18
1.36557e-18
1.38842e-18
3.61084e-18
1.78228e-17
3.24061e-17
9.23332e-18
3.05283e-18
1.60008e-18
1.4721e-18
1.38092e-18
1.09224e-18
1.23376e-18
1.86325e-18
1.7495e-18
1.35241e-18
1.22715e-18
1.06174e-18
1.22231e-18
2.00929e-18
2.31417e-18
2.10639e-18
2.32933e-18
2.05444e-18
2.1266e-18
3.33197e-18
3.78158e-18
3.12148e-18
2.88065e-18
2.70305e-18
1.6269e-18
8.3121e-19
9.0751e-19
1.46075e-18
2.37532e-18
3.07552e-18
1.87917e-18
1.23807e-18
1.56155e-18
2.1469e-18
1.69002e-18
9.28076e-19
9.33768e-19
1.6846e-18
2.8976e-18
3.55486e-18
3.83384e-18
1.74865e-18
1.46417e-18
2.0939e-18
1.44201e-18
1.44147e-18
2.52395e-18
3.67936e-18
3.6415e-18
2.99602e-18
2.13588e-18
1.70807e-18
1.49407e-18
9.76806e-19
9.388e-19
1.93339e-18
1.251e-18
1.58206e-18
2.33695e-18
3.0153e-18
1.93635e-18
1.2601e-18
2.41244e-18
2.77427e-18
3.04121e-18
2.02906e-18
1.23015e-18
3.01868e-18
3.07383e-18
2.18536e-18
2.76246e-18
1.46538e-18
3.81098e-19
7.8595e-19
7.37969e-19
4.90306e-19
1.58808e-18
1.51996e-18
1.83582e-18
2.03583e-18
2.12314e-18
1.96733e-18
1.31814e-18
2.05783e-18
1.17013e-18
1.56228e-18
6.91692e-19
7.8507e-19
8.67321e-19
7.19687e-19
2.31465e-18
1.19845e-18
1.54213e-18
1.27873e-18
1.05627e-18
1.19441e-18
6.06046e-19
2.28748e-18
6.15232e-19
1.06846e-18
2.36159e-18
5.81449e-19
8.3121e-19
1.38485e-18
6.61002e-19
2.12932e-19
5.35302e-19
7.69785e-19
1.2061e-18
1.53465e-18
1.84242e-18
1.39406e-18
1.59311e-18
3.8476e-19
9.4521e-19
2.61717e-18
2.7166e-18
1.45044e-18
1.15408e-18
1.22188e-18
1.51033e-18
9.87691e-19
1.05597e-18
7.22476e-19
9.75878e-19
7.69073e-19
2.0965e-18
1.63476e-18
4.31704e-19
1.35502e-18
1.0206e-18
7.26813e-19
6.34938e-19
1.01985e-18
9.3444e-19
1.71597e-18
1.17557e-18
2.26155e-18
8.97277e-19
6.58668e-19
8.904e-19
1.20611e-18
1.24279e-18
1.20239e-18
1.74464e-18
1.80664e-18
5.15904e-19
5.83479e-19
8.70747e-19
1.81123e-18
2.67385e-18
1.77037e-18
6.85044e-19
1.47233e-18
1.03705e-18
3.80908e-19
2.17223e-18
1.78201e-18
1.33463e-18
1.00712e-18
2.47192e-18
2.69316e-18
2.41029e-18
2.95931e-18
1.18465e-18
2.57299e-18
8.19561e-19
1.75355e-18
1.26498e-18
1.1405e-18
8.1347e-19
1.94504e-18
6.2757e-19
6.37767e-19
1.20335e-18
2.74371e-18
1.26258e-18
1.85459e-18
2.5065e-18
1.85352e-18
2.65581e-18
2.98635e-18
1.92269e-18
1.34808e-18
1.48756e-18
1.64633e-18
9.4174e-19
1.96752e-18
1.424e-18
8.90834e-19
1.12448e-18
1.71603e-18
1.7986e-18
2.51003e-18
2.1466e-18
1.10741e-18
1.00712e-18
9.29912e-19
1.40564e-18
5.81266e-19
1.49969e-18
2.01732e-18
2.17216e-18
1.28502e-18
9.79217e-19
1.33164e-18
1.1109e-18
1.85767e-18
1.45045e-18
1.81709e-18
2.27703e-18
1.28561e-18
1.90965e-18
1.47304e-18
1.08297e-18
1.15084e-18
1.95213e-18
6.54544e-19
1.1915e-18
2.08869e-18
2.08707e-18
2.75766e-18
1.83614e-18
1.22849e-18
8.73436e-19
2.36638e-18
1.25984e-18
1.28152e-18
9.02535e-19
9.19434e-19
1.37815e-18
1.45309e-18
2.70797e-18
2.58255e-18
1.22933e-18
1.7556e-18
1.97888e-18
2.2357e-18
2.4629e-18
2.16664e-18
1.01734e-18
1.25775e-18
2.1667e-18
3.64761e-18
5.26036e-18
6.41613e-18
3.95844e-18
1.58286e-18
1.73129e-18
2.67417e-18
1.79657e-18
1.76059e-18
1.77244e-18
1.00363e-18
8.94806e-19
1.48208e-18
1.38178e-18
5.58224e-19
5.30754e-19
1.40632e-18
1.81592e-18
2.06983e-18
2.5224e-18
1.26364e-17
9.04633e-17
7.1386e-17
1.0733e-17
2.345e-18
2.20149e-18
2.9689e-18
3.86465e-18
4.11548e-18
3.4267e-18
2.59324e-18
2.33985e-18
2.20685e-18
1.7789e-18
1.27709e-18
1.10837e-18
1.56563e-18
2.28263e-18
2.47396e-18
1.76256e-18
1.26337e-18
1.21559e-18
1.19872e-18
8.74043e-19
7.91862e-19
1.19737e-18
1.64847e-18
1.56058e-18
1.36531e-18
1.16787e-18
9.85823e-19
7.71159e-19
7.36463e-19
1.12726e-18
1.72083e-18
2.12055e-18
2.46484e-18
2.39565e-18
1.65493e-18
1.17682e-18
1.03384e-18
1.12874e-18
1.0734e-18
1.35013e-18
1.41308e-18
5.64521e-19
4.81946e-19
9.44663e-19
1.20835e-18
1.42542e-18
1.82041e-18
1.31664e-18
9.91328e-19
9.54786e-19
7.70799e-19
1.45514e-18
2.08915e-18
3.26174e-18
2.04981e-17
1.11876e-16
5.68082e-17
1.1629e-17
2.24007e-18
8.99838e-19
9.16959e-19
1.2104e-18
1.09422e-18
1.02389e-18
1.2513e-18
1.6493e-18
2.43027e-18
3.05452e-18
1.96838e-18
9.64928e-19
8.60883e-19
1.28461e-18
1.96274e-18
2.15122e-18
1.3782e-18
9.06199e-19
1.64922e-18
3.12009e-18
3.56026e-18
4.67105e-18
5.64035e-18
3.38447e-18
1.11432e-18
6.68293e-19
1.306e-18
3.53376e-18
5.33265e-18
4.22182e-18
2.76202e-18
2.19527e-18
1.67039e-18
1.22796e-18
1.08702e-18
1.24119e-18
1.13197e-18
8.45868e-19
8.07548e-19
1.2545e-18
1.57123e-18
8.87734e-19
5.16492e-19
8.35936e-19
3.56683e-18
2.42632e-17
6.89092e-17
3.71654e-17
1.19824e-17
1.3819e-17
1.63326e-17
9.95198e-18
3.5147e-18
1.34936e-18
1.13848e-18
1.63759e-18
2.10735e-18
2.15565e-18
2.05961e-18
1.72885e-18
1.58355e-18
1.60891e-18
1.52596e-18
1.61939e-18
1.96346e-18
1.72408e-18
1.11775e-18
9.17358e-19
8.25823e-19
8.50876e-19
1.57586e-18
3.60441e-18
8.23899e-18
8.03211e-18
3.53471e-18
1.75946e-18
1.0635e-18
9.51885e-19
1.08627e-18
1.40154e-18
1.57246e-18
1.47143e-18
1.43267e-18
1.5893e-18
1.80425e-18
2.73963e-18
3.62161e-18
3.86299e-18
4.41047e-18
4.92295e-18
3.48785e-18
2.00343e-18
1.63482e-18
1.65969e-18
2.31991e-18
3.46507e-18
3.90298e-18
2.06215e-18
1.19329e-18
8.95699e-19
7.8837e-19
8.72498e-19
9.95987e-19
1.10352e-18
1.51031e-18
1.5287e-18
1.62496e-18
1.62728e-18
1.74674e-18
1.97361e-18
2.56181e-18
2.35577e-18
2.13983e-18
1.95923e-18
1.65577e-18
2.26754e-18
1.32197e-18
1.00047e-18
1.69353e-18
1.72456e-18
2.3774e-18
2.96149e-18
2.26448e-18
2.46337e-18
2.2847e-18
1.78151e-18
1.70278e-18
1.0413e-18
6.15105e-19
1.19799e-18
2.17921e-18
2.19655e-18
7.4862e-19
3.00198e-18
4.49645e-18
2.69064e-18
1.51815e-18
1.73022e-18
2.62368e-18
1.25597e-18
2.34625e-18
1.63455e-18
1.02847e-18
8.67345e-19
1.97399e-18
1.51002e-18
1.178e-18
8.85349e-19
8.61464e-19
7.95564e-19
9.80079e-19
1.24675e-18
1.6329e-18
2.0328e-18
9.91977e-19
8.64703e-19
8.15852e-19
4.95869e-19
1.14757e-18
9.04089e-19
4.80539e-19
5.83353e-19
1.85225e-19
1.60793e-18
2.46263e-18
6.97571e-19
4.55544e-19
1.45126e-18
1.37007e-18
2.01666e-18
2.42548e-18
8.04956e-19
6.49124e-19
4.10852e-19
6.9217e-19
7.46923e-19
3.81091e-19
1.3196e-18
1.99747e-18
7.95561e-19
1.07498e-18
9.61943e-19
4.50985e-19
9.09998e-19
1.36127e-18
1.17291e-18
5.29001e-19
8.57447e-19
1.24597e-18
2.45606e-18
1.68048e-18
9.19856e-19
1.82359e-18
9.02173e-19
6.46375e-19
7.47623e-19
1.20303e-18
7.96219e-19
1.45804e-18
2.98577e-18
1.18984e-18
1.30442e-18
1.32072e-18
1.00674e-18
6.84175e-19
1.10199e-18
1.40027e-18
7.10094e-19
1.197e-18
1.25804e-18
6.59115e-19
9.40023e-19
8.10606e-19
8.15801e-19
5.18531e-19
5.70819e-19
1.30252e-18
1.10531e-18
1.82674e-18
1.15616e-18
1.60882e-18
9.55887e-19
8.70022e-19
1.88213e-18
1.52617e-18
2.09293e-18
2.12731e-18
9.81475e-19
1.1718e-18
1.07287e-18
2.70543e-18
7.07322e-19
9.9461e-19
1.37633e-18
1.18492e-18
1.53322e-18
2.15288e-18
1.32356e-18
1.29899e-18
1.28497e-18
1.36151e-18
1.0824e-18
8.75059e-19
1.23575e-18
1.28402e-18
9.51024e-19
1.46609e-18
1.04617e-18
7.39081e-19
5.73214e-19
1.23546e-18
1.70076e-18
1.67412e-18
8.60753e-19
2.49926e-18
2.4196e-18
3.08305e-18
2.88767e-18
1.52637e-18
1.51734e-18
1.50467e-18
1.04411e-18
1.06222e-18
2.05428e-18
2.98182e-18
2.38026e-18
7.39164e-19
8.79549e-19
2.76026e-18
1.77695e-18
1.14911e-18
1.62134e-18
1.18926e-18
1.26807e-18
1.34232e-18
2.3954e-18
1.82451e-18
9.1126e-19
9.05785e-19
1.14377e-18
1.39635e-18
8.58905e-19
1.20684e-18
1.31125e-18
1.19749e-18
1.30676e-18
1.85754e-18
1.3157e-18
1.46545e-18
2.7728e-18
2.83904e-18
2.32082e-18
1.54358e-18
2.26905e-18
1.23924e-18
1.56495e-18
2.00739e-18
1.20083e-18
9.99418e-19
1.6111e-18
1.42028e-18
1.21691e-18
1.38705e-18
1.85849e-18
2.49384e-18
2.13963e-18
2.22666e-18
2.03814e-18
9.62513e-19
7.30299e-19
1.57366e-18
2.52349e-18
2.85795e-18
1.86518e-18
9.49955e-19
5.33241e-19
7.35034e-19
1.89274e-18
3.84959e-18
2.96199e-18
3.03965e-18
1.70418e-18
1.736e-18
1.61152e-18
1.19375e-18
1.85765e-18
1.68244e-18
1.33809e-18
1.30723e-18
1.2607e-18
1.37289e-18
1.76339e-18
1.67701e-18
1.03441e-18
7.03179e-19
7.32405e-19
3.17769e-18
2.51647e-17
1.48915e-16
1.02651e-16
9.94606e-18
1.87839e-18
1.15938e-18
1.35328e-18
1.87524e-18
1.86499e-18
1.38157e-18
1.09543e-18
1.31256e-18
1.81625e-18
2.3327e-18
1.74467e-18
1.40237e-18
1.47814e-18
1.94455e-18
2.41211e-18
2.50389e-18
1.87116e-18
1.27769e-18
1.17772e-18
1.33479e-18
1.69818e-18
2.43799e-18
3.05919e-18
2.64883e-18
1.61412e-18
1.07833e-18
1.03618e-18
1.27783e-18
1.49599e-18
1.87291e-18
2.20188e-18
1.86411e-18
1.5541e-18
1.41374e-18
1.20583e-18
9.36502e-19
9.57983e-19
1.16895e-18
1.40871e-18
1.27119e-18
1.21708e-18
9.16913e-19
5.47839e-19
6.21477e-19
1.6408e-18
2.00533e-18
1.45819e-18
1.06994e-18
9.94464e-19
2.00588e-18
3.82837e-18
3.99818e-18
3.54044e-18
4.41634e-18
2.333e-17
8.17221e-17
5.85472e-17
8.11204e-18
1.97342e-18
7.16962e-19
5.8177e-19
7.58773e-19
9.68976e-19
1.09194e-18
1.29658e-18
1.64788e-18
2.05877e-18
2.31905e-18
2.17775e-18
1.50742e-18
1.00036e-18
8.38998e-19
9.80965e-19
1.27249e-18
9.96932e-19
7.86809e-19
8.77437e-19
4.34139e-18
1.05654e-17
7.87068e-18
4.16462e-18
2.35338e-18
1.08062e-18
8.59399e-19
1.6629e-18
3.65695e-18
6.73441e-18
6.06046e-18
3.172e-18
1.6295e-18
1.10171e-18
9.87012e-19
1.13515e-18
1.08965e-18
9.14235e-19
9.97067e-19
1.585e-18
2.08483e-18
1.59091e-18
9.01322e-19
6.51099e-19
8.48532e-19
2.48724e-18
1.66148e-17
7.51997e-17
4.22522e-17
6.54628e-18
3.08958e-18
2.37288e-18
2.49893e-18
1.39944e-18
1.59105e-18
2.08956e-18
2.47758e-18
2.50916e-18
2.2463e-18
1.7673e-18
1.28031e-18
1.11764e-18
1.4464e-18
2.05954e-18
2.79342e-18
3.95456e-18
5.10189e-18
4.43942e-18
2.99927e-18
2.35667e-18
2.36016e-18
2.92139e-18
4.33772e-18
5.89544e-18
5.66726e-18
3.76671e-18
2.31006e-18
1.32584e-18
9.24368e-19
1.08721e-18
1.55865e-18
2.18093e-18
2.16352e-18
1.25663e-18
9.00913e-19
9.38971e-19
1.3429e-18
2.04545e-18
2.19269e-18
2.32815e-18
3.1258e-18
3.29461e-18
2.1456e-18
1.79522e-18
2.4813e-18
3.53374e-18
3.85067e-18
2.26962e-18
1.26456e-18
9.09886e-19
9.63982e-19
1.04377e-18
9.23493e-19
1.18034e-18
1.88705e-18
2.1065e-18
1.81655e-18
1.45894e-18
1.3772e-18
1.73975e-18
2.11758e-18
1.93844e-18
1.97245e-18
1.97861e-18
1.84871e-18
1.76199e-18
1.53773e-18
1.3309e-18
1.53284e-18
1.52991e-18
1.8531e-18
2.58242e-18
2.09066e-18
2.0101e-18
2.32194e-18
2.55556e-18
1.57048e-18
6.74673e-19
7.18079e-19
2.11011e-18
1.50668e-18
1.6177e-18
2.55575e-18
2.87234e-18
2.41925e-18
3.40963e-18
3.31649e-18
1.16974e-18
1.206e-18
2.18556e-18
4.32868e-18
3.08754e-18
1.87557e-18
2.17098e-18
1.80695e-18
2.41642e-18
1.08751e-18
6.29843e-19
1.78696e-18
1.60054e-18
1.27621e-18
1.53274e-19
8.15582e-19
4.21144e-19
5.09637e-19
1.72094e-18
1.09282e-18
6.53269e-19
1.1159e-18
4.60921e-19
5.58897e-19
2.89602e-19
6.81607e-19
1.30814e-18
6.23471e-19
1.78018e-18
1.56169e-18
1.71931e-18
2.37336e-18
7.21436e-19
7.95475e-19
1.03648e-18
1.6757e-18
1.49566e-18
1.73423e-18
7.95055e-19
3.64754e-19
6.84131e-19
7.37414e-19
3.0224e-19
7.6212e-19
4.79721e-19
2.2001e-18
7.64536e-19
7.48679e-19
9.19871e-19
9.00007e-19
1.79936e-18
8.57171e-19
8.60949e-19
1.25353e-18
1.96878e-18
2.0447e-18
1.19473e-18
1.37037e-18
7.41081e-19
7.67742e-19
1.13157e-18
1.20705e-18
9.79668e-19
1.03104e-18
1.27013e-18
2.71072e-18
1.618e-18
7.21672e-19
1.20478e-18
1.44463e-18
8.72187e-19
1.25492e-18
1.49127e-18
1.18096e-18
7.95756e-19
1.10099e-18
9.32255e-19
5.76091e-19
1.2592e-18
6.86474e-19
9.76874e-19
2.27447e-18
1.53819e-18
1.04999e-18
1.82292e-18
3.10484e-18
1.86339e-18
2.32168e-18
2.33729e-18
1.16645e-18
1.21841e-18
2.75956e-18
1.65645e-18
1.06262e-18
8.09663e-19
8.17508e-19
1.41643e-18
1.6679e-18
1.15172e-18
1.12729e-18
1.84237e-18
2.27226e-18
1.89756e-18
3.19666e-18
2.3746e-18
1.50681e-18
7.93471e-19
1.35372e-18
2.4795e-18
1.33794e-18
8.23134e-19
9.14367e-19
4.01655e-19
4.04686e-19
8.50309e-19
4.6913e-19
6.01931e-19
1.21101e-18
2.24046e-18
3.21372e-18
1.85283e-18
1.48369e-18
9.52153e-19
1.4563e-18
2.39277e-18
2.24695e-18
1.30148e-18
7.77579e-19
7.50853e-19
1.49299e-18
1.30931e-18
8.00858e-19
7.81667e-19
8.11255e-19
2.28382e-18
2.61384e-18
1.7901e-18
3.33397e-18
1.83693e-18
2.91696e-18
2.82284e-18
1.72712e-18
1.93721e-18
1.71354e-18
1.36683e-18
9.72375e-19
1.13899e-18
1.57594e-18
9.92251e-19
6.01847e-19
1.22396e-18
2.97093e-18
1.94933e-18
2.01116e-18
1.79676e-18
1.91026e-18
1.50024e-18
1.21748e-18
1.87257e-18
2.36483e-18
1.4688e-18
1.13457e-18
1.88684e-18
2.31008e-18
1.84708e-18
1.04944e-18
1.1371e-18
1.28465e-18
2.04028e-18
1.58479e-18
1.86822e-18
1.19131e-18
9.38834e-19
1.55131e-18
1.83372e-18
2.88501e-18
3.56591e-18
3.39286e-18
1.21773e-18
1.1443e-18
1.13116e-18
1.00002e-18
1.00273e-18
1.29342e-18
1.14811e-18
1.29028e-18
1.18768e-18
9.6517e-19
1.88035e-18
2.88988e-18
2.34594e-18
1.2527e-18
1.63895e-18
1.54461e-18
1.6904e-18
2.70694e-18
2.11569e-18
9.81247e-19
8.60534e-19
1.34026e-18
4.73406e-18
5.73432e-17
2.68248e-16
1.01372e-16
9.70997e-18
1.73345e-18
1.06884e-18
1.28884e-18
1.84618e-18
2.06158e-18
1.67632e-18
1.25422e-18
1.10087e-18
1.35721e-18
1.70137e-18
1.98611e-18
1.99702e-18
1.81523e-18
1.88946e-18
2.11141e-18
2.23089e-18
1.95487e-18
1.50228e-18
1.34585e-18
1.59198e-18
1.89155e-18
2.07922e-18
2.3027e-18
2.3461e-18
1.76278e-18
1.3906e-18
1.26097e-18
1.39875e-18
1.71499e-18
1.71052e-18
1.42651e-18
9.9466e-19
7.04918e-19
7.02034e-19
9.85688e-19
1.19187e-18
1.16669e-18
1.11237e-18
1.2496e-18
1.48128e-18
1.53886e-18
8.91112e-19
4.58234e-19
4.94912e-19
1.10553e-18
2.14428e-18
1.78643e-18
1.23037e-18
1.26712e-18
1.93395e-18
3.8814e-18
4.44931e-18
3.36708e-18
4.6656e-18
1.89453e-17
2.46802e-17
1.40877e-17
5.29471e-18
2.19444e-18
1.2286e-18
8.76321e-19
7.46055e-19
8.60333e-19
1.23432e-18
1.66902e-18
1.99391e-18
1.8929e-18
1.62757e-18
1.45654e-18
1.25294e-18
1.00275e-18
1.14196e-18
1.72129e-18
2.51953e-18
1.82191e-18
1.23236e-18
1.29757e-18
3.00668e-18
1.30216e-17
1.19883e-17
3.93176e-18
1.69972e-18
1.15882e-18
1.09547e-18
1.56441e-18
2.70894e-18
5.02554e-18
6.20992e-18
3.49086e-18
1.58332e-18
1.17521e-18
1.45403e-18
2.09105e-18
2.3993e-18
2.2534e-18
2.1064e-18
1.96541e-18
1.5331e-18
1.28992e-18
1.45521e-18
1.76796e-18
1.81416e-18
2.40003e-18
8.36066e-18
1.88499e-17
2.20447e-17
5.77092e-18
2.01049e-18
1.32504e-18
1.17308e-18
9.58247e-19
7.89719e-19
1.00615e-18
1.92164e-18
2.59443e-18
2.42942e-18
1.83694e-18
1.5032e-18
1.30769e-18
1.53536e-18
2.32625e-18
3.69772e-18
5.00625e-18
4.56313e-18
4.12278e-18
2.63483e-18
1.39334e-18
9.55868e-19
1.21647e-18
2.02222e-18
3.02368e-18
3.05935e-18
1.93596e-18
1.32394e-18
1.01835e-18
9.08545e-19
1.2543e-18
1.92725e-18
2.11987e-18
1.84995e-18
1.54195e-18
1.04152e-18
7.83808e-19
7.37333e-19
1.02988e-18
1.71899e-18
2.35276e-18
2.4583e-18
2.55924e-18
2.14716e-18
1.64704e-18
1.95152e-18
2.48869e-18
2.27907e-18
2.07756e-18
2.51451e-18
2.28161e-18
1.49592e-18
1.16708e-18
1.49775e-18
2.2394e-18
2.5007e-18
2.32721e-18
2.91482e-18
2.83173e-18
2.16425e-18
1.75296e-18
1.67828e-18
1.86521e-18
1.88588e-18
1.62378e-18
1.38743e-18
1.84422e-18
1.70469e-18
1.22787e-18
1.4934e-18
1.33441e-18
9.26439e-19
7.4229e-19
1.32278e-18
2.91029e-18
4.33894e-18
2.73885e-18
2.62392e-18
2.84128e-18
2.53768e-18
2.32343e-18
3.69489e-18
1.86931e-18
1.26927e-18
1.59643e-18
1.94244e-18
1.80752e-18
6.98722e-19
1.08218e-18
1.05847e-18
4.97837e-19
1.18507e-18
2.28589e-18
1.91865e-18
2.68311e-18
3.2137e-18
1.59983e-18
2.36403e-18
1.00725e-18
1.40367e-18
4.86974e-18
4.75618e-18
1.752e-18
4.50553e-19
5.68978e-19
6.83207e-19
6.89514e-19
8.52737e-19
1.17187e-18
1.45871e-18
3.36494e-18
1.42739e-18
1.21942e-18
7.69967e-19
9.41014e-19
6.28924e-19
1.29904e-18
1.63583e-18
1.2868e-18
8.04071e-19
9.18616e-19
5.86116e-19
9.80242e-19
6.99048e-19
2.02722e-18
3.53594e-18
9.97212e-19
6.48421e-19
7.35974e-19
1.55682e-18
1.85341e-18
7.23879e-19
1.4223e-18
7.68058e-19
1.68162e-18
1.03498e-18
1.15798e-18
4.41118e-19
7.9638e-19
8.27972e-19
2.18034e-18
2.01705e-18
2.21018e-18
9.97469e-19
1.15083e-18
2.07624e-18
2.08482e-18
8.75477e-19
8.05318e-19
1.2451e-18
8.15425e-19
5.85068e-19
9.79161e-19
8.36214e-19
1.45533e-18
2.18519e-18
8.90442e-19
1.2469e-18
1.80956e-18
1.08706e-18
9.74028e-19
1.52568e-18
9.15951e-19
8.30536e-19
7.37264e-19
5.74866e-19
8.77192e-19
1.51623e-18
1.71492e-18
5.73783e-19