/*--------------------------------*- C++ -*----------------------------------*\
  =========                 |
  \\      /  F ield         | OpenFOAM: The Open Source CFD Toolbox
   \\    /   O peration     | Website:  https://openfoam.org
    \\  /    A nd           | Version:  7
     \\/     M anipulation  |
\*---------------------------------------------------------------------------*/
FoamFile
{
    version     2.0;
    format      ascii;
    class       volScalarField;
    location    "2500";
    object      k2Write;
}
// * * * * * * * * * * * * * * * * * * * * * * * * * * * * * * * * * * * * * //

dimensions      [0 2 0 0 0 0 0];

internalField   nonuniform List<scalar> 
160000
(
1.5908e-18
2.25139e-18
2.14563e-18
3.09431e-18
4.42443e-18
2.1601e-18
3.61349e-18
1.36828e-18
2.27342e-18
4.71985e-18
3.61304e-18
2.51963e-18
4.84425e-18
3.88106e-18
1.37538e-18
2.24818e-18
1.61513e-18
1.59353e-18
2.84094e-18
2.64191e-18
2.99004e-18
2.51293e-18
2.72518e-18
4.06322e-18
3.90335e-18
5.3355e-18
4.17329e-18
2.59492e-18
3.16445e-18
1.77654e-18
1.72591e-18
3.52283e-18
7.73481e-18
3.80522e-18
3.19232e-18
4.11025e-18
3.41722e-18
5.12533e-18
1.42078e-18
2.33048e-18
3.33979e-18
3.29273e-18
4.24149e-18
1.75793e-18
3.29109e-18
3.19227e-18
2.70317e-18
1.98939e-18
3.75808e-18
2.20482e-18
3.23533e-18
5.3809e-18
3.48419e-18
2.52902e-18
4.84053e-18
1.64253e-18
5.39455e-18
1.66985e-18
1.39361e-18
1.9579e-18
8.64785e-18
2.46204e-18
2.32117e-18
1.82402e-18
1.33711e-18
5.38698e-18
3.76386e-18
4.72095e-18
1.23542e-18
5.0944e-19
4.79637e-18
1.53451e-18
4.12432e-18
1.98821e-18
3.31296e-18
2.62324e-18
3.65018e-18
2.33557e-18
4.63751e-18
2.70023e-18
5.03082e-18
6.91425e-18
3.50034e-18
2.58809e-18
2.45865e-18
2.23378e-18
2.32624e-18
1.50554e-18
2.26685e-18
3.80437e-18
1.46133e-18
4.57823e-18
5.68397e-18
4.83908e-18
3.24375e-18
1.47099e-18
2.6368e-18
1.96549e-18
2.10187e-18
1.3186e-18
2.45297e-18
9.52154e-19
3.67531e-18
2.03798e-18
1.23019e-18
3.14707e-18
1.19728e-18
2.77066e-18
3.49811e-18
3.43135e-18
4.81351e-18
1.46713e-18
4.39176e-18
2.08779e-18
1.7184e-18
2.54276e-18
1.50334e-18
1.94446e-18
3.91562e-18
2.96323e-18
2.44245e-18
1.62715e-18
2.83636e-18
3.43223e-18
4.00244e-18
6.51293e-18
5.74079e-18
2.18641e-18
2.83502e-18
3.04845e-18
2.07498e-18
1.42806e-18
2.15901e-18
5.54553e-18
3.4318e-18
3.07337e-18
1.78086e-18
2.60421e-18
1.59937e-18
9.54226e-19
2.57781e-18
4.01562e-18
7.80414e-19
2.66813e-18
5.87715e-18
2.87827e-18
2.95574e-18
2.72447e-18
2.30023e-18
1.39317e-18
1.09425e-18
1.9525e-18
1.15482e-18
3.01501e-18
1.03411e-18
2.44372e-18
2.47027e-18
4.71169e-18
3.02251e-18
3.55182e-18
1.904e-18
2.43554e-18
1.91274e-18
4.44534e-18
1.15839e-18
2.76055e-18
2.78511e-18
1.53087e-18
2.18115e-18
1.50965e-18
4.68903e-18
6.63366e-18
2.3558e-18
6.21452e-18
3.38448e-18
1.61178e-18
2.188e-18
2.44225e-18
5.3926e-18
4.81129e-18
1.02205e-18
3.60429e-18
1.44354e-18
1.00594e-18
1.07158e-18
1.1841e-18
1.59014e-18
1.55907e-18
1.10807e-18
2.11961e-18
3.15153e-18
3.00529e-18
5.04407e-18
8.67582e-18
1.70813e-17
1.34935e-18
1.29149e-18
1.25664e-17
6.40214e-17
1.08399e-16
5.60994e-17
2.28733e-17
9.00625e-18
2.71836e-18
1.40303e-18
4.05053e-18
1.20984e-17
1.65537e-17
1.06882e-17
7.0692e-18
6.25167e-18
6.68804e-18
4.67832e-18
3.05463e-18
3.60506e-18
3.52982e-18
1.80868e-18
2.09844e-18
5.8203e-18
8.41476e-18
7.94286e-18
4.40422e-18
9.23886e-19
5.89228e-19
6.52292e-19
1.0779e-18
2.49018e-18
9.2577e-19
2.72181e-18
2.28086e-18
6.29128e-19
1.47347e-18
1.0779e-18
2.40874e-18
2.26221e-18
2.9441e-18
1.39228e-18
2.52867e-18
1.22408e-18
2.10603e-18
1.49182e-18
1.00689e-18
1.41679e-18
1.09188e-18
1.72385e-18
1.53857e-18
2.27023e-18
2.46532e-18
1.52457e-17
6.0158e-17
8.09598e-17
3.61835e-17
1.03982e-17
4.10169e-18
2.18863e-18
2.88737e-18
2.52821e-18
7.53449e-19
9.01513e-19
1.02959e-17
4.43652e-17
1.30094e-17
2.74652e-18
8.05143e-19
7.89702e-19
2.5337e-18
2.98429e-18
7.20176e-19
1.12637e-18
7.31979e-18
3.49432e-18
2.37012e-18
3.50498e-18
2.79043e-18
1.259e-18
6.29902e-19
1.00293e-18
5.27953e-18
3.99898e-18
3.48857e-18
1.71464e-18
1.61627e-18
2.1649e-18
3.58755e-18
4.78171e-18
3.64117e-18
4.74078e-18
1.86473e-18
1.65687e-18
1.76785e-18
1.71902e-18
3.99741e-19
7.93037e-19
1.35528e-18
1.73081e-18
2.14695e-18
3.3349e-18
8.11806e-19
1.97232e-18
1.43444e-18
7.75824e-18
7.46346e-17
2.0807e-16
1.43349e-16
6.24602e-17
3.10473e-17
1.66304e-17
9.7326e-18
5.43202e-18
3.23699e-18
2.63689e-18
1.57742e-18
1.0241e-18
2.2302e-18
5.8729e-18
1.24058e-17
1.30769e-17
3.63186e-18
9.96601e-19
9.06444e-19
6.06084e-19
6.12334e-19
5.80681e-19
2.72641e-18
1.29804e-17
2.91563e-17
1.87495e-17
9.83319e-18
7.71286e-18
6.52415e-18
3.65844e-18
3.41947e-18
3.52115e-18
2.80975e-18
2.7721e-18
2.74693e-18
2.11337e-18
2.04914e-18
6.67951e-18
7.37128e-18
1.57778e-18
1.42026e-18
2.16024e-18
1.79738e-18
2.85265e-18
2.05512e-18
2.50859e-18
4.90205e-18
7.9818e-18
6.06913e-18
4.13161e-18
2.00031e-18
1.77641e-18
1.54752e-18
2.41244e-18
2.55764e-18
2.60594e-18
2.79601e-18
2.72154e-18
1.6481e-18
1.21087e-18
1.08578e-18
1.57792e-18
1.30426e-18
2.90684e-18
4.17053e-18
2.5396e-18
6.65554e-18
7.31441e-18
3.5552e-18
2.22794e-18
2.74961e-18
2.63775e-18
6.4218e-18
2.19485e-18
4.23409e-18
1.86275e-18
1.69171e-18
1.2172e-18
1.377e-18
1.76015e-18
1.58566e-18
1.4146e-18
2.49457e-18
2.92855e-18
2.97362e-18
3.86351e-18
3.5194e-18
2.36779e-18
1.92979e-18
2.55385e-18
1.97669e-18
3.0986e-18
2.73167e-18
1.72264e-18
6.8045e-18
4.73783e-18
1.43938e-18
1.03871e-17
6.22462e-18
6.57031e-18
1.49007e-18
2.08543e-18
2.01228e-18
1.73257e-18
2.29472e-18
3.49271e-18
2.55312e-18
2.68842e-18
3.09752e-18
3.567e-18
2.11463e-18
2.43123e-18
2.91531e-18
4.44796e-18
1.80461e-18
2.05206e-18
6.41535e-18
5.75477e-18
4.17621e-18
2.39034e-18
2.48791e-18
3.86553e-18
3.78345e-18
1.63797e-18
2.3051e-18
6.59225e-18
5.45419e-18
2.65758e-18
4.09484e-18
3.37986e-18
2.50505e-18
3.31746e-18
2.54491e-18
1.80232e-18
3.34251e-18
5.07629e-18
6.19031e-19
2.95718e-18
6.33033e-18
3.61194e-18
2.28445e-18
4.23944e-18
1.36232e-18
3.17317e-18
5.1818e-18
2.55874e-18
1.55243e-18
3.33254e-18
5.75082e-18
2.6184e-18
2.83069e-18
2.07836e-18
7.25102e-18
1.17635e-18
2.49832e-18
3.45812e-18
1.81871e-18
2.25436e-18
2.43891e-18
2.59305e-18
3.26643e-18
1.84531e-18
1.64949e-18
2.85917e-18
2.60803e-18
1.43115e-18
4.35537e-18
4.16048e-18
6.23597e-18
6.10729e-18
3.87842e-18
1.54501e-18
2.41548e-18
2.3616e-18
3.74735e-18
2.3806e-18
2.41333e-18
2.03844e-18
4.2747e-18
3.72633e-18
2.82169e-18
2.85435e-18
2.77789e-18
6.59845e-18
6.82742e-18
1.90553e-18
2.2172e-18
2.60958e-18
3.71339e-18
4.94195e-18
3.46247e-18
6.48107e-18
4.49275e-18
1.8291e-18
3.1276e-18
2.50702e-18
3.08634e-18
3.11391e-18
1.71995e-18
3.57102e-18
2.78747e-18
1.28875e-18
5.02781e-18
3.11734e-18
1.74213e-18
3.84581e-18
5.55571e-18
3.51879e-18
3.84023e-18
3.22064e-18
1.45345e-18
1.74631e-18
1.55876e-18
1.91816e-18
2.14171e-18
2.15725e-18
2.83819e-18
3.29921e-18
5.50687e-18
5.26899e-18
2.8465e-18
2.72909e-18
2.76181e-18
2.46441e-18
2.73099e-18
2.59659e-18
1.77546e-18
2.74568e-18
2.10563e-18
1.84467e-18
8.18899e-19
4.45362e-18
6.29268e-18
3.55541e-18
1.16161e-18
5.18321e-18
2.05062e-18
1.23073e-18
1.6379e-18
2.51884e-18
3.43955e-18
2.92604e-18
3.65259e-18
3.96271e-18
1.59717e-18
2.81396e-18
2.16212e-18
1.82922e-18
1.10179e-18
5.08466e-18
1.34543e-18
1.32198e-18
2.06389e-18
2.28804e-18
3.69403e-18
1.98556e-18
3.32157e-18
1.67266e-18
3.00718e-18
2.62685e-18
3.54886e-18
2.90496e-18
2.34528e-18
1.90838e-18
2.6703e-18
4.23198e-18
2.05165e-18
2.66112e-18
2.9131e-18
3.12704e-18
2.73457e-18
1.25537e-18
4.8926e-18
2.30326e-18
2.33854e-18
2.67969e-18
2.01302e-18
2.52056e-18
1.92465e-18
1.60185e-18
2.34674e-18
1.37057e-18
6.72656e-19
2.04974e-18
1.69231e-18
1.94952e-18
1.09254e-18
1.7653e-18
5.3868e-18
1.20064e-17
2.04724e-17
1.58105e-17
1.31553e-17
3.94602e-18
2.67715e-18
2.1327e-17
8.3608e-17
9.68287e-17
3.05485e-17
1.15091e-17
5.33538e-18
2.69294e-18
1.90894e-18
3.33566e-18
9.53916e-18
1.18374e-17
6.81545e-18
3.20555e-18
2.31599e-18
2.42754e-18
2.01653e-18
1.30628e-18
1.34148e-18
1.67837e-18
1.37388e-18
1.26335e-18
2.27619e-18
3.29487e-18
1.93156e-18
9.65757e-19
4.22322e-19
4.44005e-19
6.12481e-19
1.19935e-18
1.97908e-18
2.87999e-18
1.38286e-18
2.40435e-18
1.82761e-18
1.90393e-18
1.82757e-18
4.95309e-18
7.35848e-18
1.74058e-18
1.47394e-18
2.17172e-18
2.50795e-18
1.23871e-18
1.6068e-18
1.15541e-18
9.05925e-19
1.92166e-18
2.09514e-18
7.61728e-19
2.26837e-18
3.62867e-18
2.25167e-17
1.52259e-16
1.44003e-16
3.59368e-17
9.73074e-18
4.30115e-18
3.03956e-18
2.36569e-18
2.44698e-18
1.3385e-18
1.07457e-18
4.29944e-18
1.8806e-17
8.833e-18
1.62431e-18
7.30194e-19
8.2898e-19
1.8987e-18
3.35585e-18
9.62422e-19
7.01893e-19
4.21482e-18
9.39859e-18
3.8296e-18
2.64286e-18
3.64806e-18
1.75045e-18
1.01953e-18
9.04563e-19
2.32443e-18
5.20019e-18
3.58046e-18
2.31728e-18
2.18492e-18
2.77765e-18
4.44005e-18
7.4075e-18
6.20888e-18
3.17132e-18
1.607e-18
9.77689e-19
8.9274e-19
1.0121e-18
4.89341e-19
6.59146e-19
1.14366e-18
1.5246e-18
5.52288e-19
1.09352e-18
2.08008e-18
1.81817e-18
1.1937e-18
8.13988e-18
1.41796e-16
2.77047e-16
8.05034e-17
2.18494e-17
7.64781e-18
3.27467e-18
1.76054e-18
1.3933e-18
1.30525e-18
1.2891e-18
1.26124e-18
1.17881e-18
1.74324e-18
3.58674e-18
5.4654e-18
5.18222e-18
1.91664e-18
6.27892e-19
5.99814e-19
6.91772e-19
6.10917e-19
6.34303e-19
2.26698e-18
2.09231e-17
4.04423e-17
2.17484e-17
7.16734e-18
5.06024e-18
4.93112e-18
3.17066e-18
2.06099e-18
2.08e-18
2.02899e-18
1.9316e-18
2.33475e-18
2.26603e-18
1.82887e-18
2.16486e-18
2.52736e-18
1.55386e-18
1.23557e-18
2.2337e-18
2.72189e-18
2.48865e-18
2.35374e-18
2.91621e-18
3.20024e-18
4.63543e-18
3.41271e-18
2.65919e-18
1.62352e-18
1.24504e-18
1.18062e-18
1.80487e-18
2.07199e-18
1.45047e-18
1.23925e-18
1.36882e-18
1.37009e-18
1.32558e-18
1.26618e-18
1.50959e-18
1.64556e-18
1.96289e-18
4.44342e-18
4.28392e-18
3.56736e-18
4.9298e-18
2.40233e-18
1.22443e-18
1.29619e-18
1.11817e-18
1.49258e-18
1.30824e-18
1.8454e-18
1.30868e-18
1.51645e-18
2.24751e-18
1.29603e-18
1.71582e-18
3.5162e-18
8.12972e-19
3.73514e-18
2.2477e-18
9.62392e-19
2.55687e-18
1.93501e-18
1.38894e-18
1.80575e-18
3.18901e-18
1.52094e-18
2.36768e-18
3.44566e-18
2.14344e-18
1.65704e-18
5.38745e-18
1.61719e-18
3.82668e-18
1.93271e-18
5.40017e-18
1.18078e-18
9.04437e-19
2.87958e-18
1.06924e-18
3.89391e-18
1.2232e-18
2.37855e-18
4.05714e-18
1.66607e-18
4.01554e-18
6.6858e-18
3.67504e-18
2.21013e-18
4.29108e-18
7.33344e-18
3.37984e-18
6.83484e-18
5.21238e-18
2.3964e-18
4.29688e-18
2.6824e-18
3.11066e-18
2.04656e-18
1.48959e-18
1.47847e-18
2.11353e-18
2.57385e-18
2.72261e-18
6.70555e-18
2.89996e-18
2.39074e-18
3.44699e-18
3.55763e-18
4.3718e-18
1.67353e-18
2.04444e-18
2.67342e-18
2.02895e-18
1.97634e-18
2.32207e-18
2.80758e-18
2.75055e-18
2.93094e-18
2.3267e-18
7.89697e-18
2.33365e-18
1.63731e-18
1.6383e-18
3.33945e-18
6.95491e-18
3.07274e-18
1.79045e-18
1.80077e-18
2.24367e-18
2.78336e-18
2.93014e-18
5.45787e-18
4.90326e-18
7.95774e-18
2.32859e-18
2.12786e-18
2.34296e-18
4.28516e-18
1.85904e-18
1.92318e-18
4.61447e-18
1.86328e-18
1.66669e-18
1.00213e-18
2.34581e-18
1.01171e-18
3.34017e-18
3.33718e-18
1.18006e-18
1.48025e-18
2.64627e-18
2.72134e-18
3.59143e-18
5.94831e-18
2.90285e-18
3.63463e-18
4.61535e-18
4.831e-18
1.93428e-18
3.17464e-18
2.04684e-18
3.57419e-18
4.4673e-18
2.17266e-18
1.52093e-18
3.6136e-18
2.21252e-18
1.22123e-18
2.32973e-18
1.16662e-18
8.80229e-19
1.72908e-18
2.15673e-18
2.41356e-18
1.89138e-18
1.50329e-18
2.97825e-18
1.94358e-18
2.30402e-18
3.51045e-18
3.10489e-18
3.08316e-18
1.8075e-18
2.32047e-18
3.84344e-18
2.20457e-18
2.40273e-18
1.97821e-18
1.25819e-18
2.38521e-18
1.98404e-18
2.13124e-18
2.82708e-18
3.08081e-18
2.65096e-18
1.74597e-18
1.58749e-18
2.11352e-18
1.8867e-18
1.64614e-18
1.74431e-18
1.37647e-18
1.94269e-18
2.24918e-18
1.43439e-18
1.65565e-18
3.69235e-18
4.3771e-18
2.44372e-18
2.25487e-18
1.9054e-18
2.07612e-18
2.41707e-18
1.87856e-18
1.87345e-18
3.15126e-18
7.46627e-18
3.20651e-18
2.62327e-18
3.86695e-18
2.3454e-18
2.17847e-18
2.44338e-18
2.18856e-18
1.68504e-18
2.81033e-18
1.81901e-18
2.06941e-18
5.13789e-18
5.62692e-18
1.60216e-18
2.47955e-18
2.48797e-18
2.01401e-18
1.91014e-18
1.25158e-18
2.42632e-18
2.4249e-18
2.38918e-18
2.34115e-18
2.37672e-18
2.25726e-18
1.8196e-18
2.54254e-18
4.88725e-18
4.38904e-18
4.02026e-18
3.13947e-18
1.85648e-18
8.45022e-19
1.52237e-18
3.11543e-18
2.9583e-18
1.50222e-18
1.61834e-18
1.38263e-18
9.78031e-19
1.17422e-18
1.82754e-18
1.42831e-18
1.60499e-18
1.72503e-18
2.93747e-18
8.43124e-18
5.63251e-17
1.46506e-16
5.10253e-17
1.13839e-17
5.34943e-18
4.23237e-18
7.9656e-18
1.63896e-17
1.46449e-17
8.54242e-18
5.68719e-18
3.54818e-18
2.3424e-18
1.87726e-18
2.34966e-18
3.7984e-18
4.56942e-18
3.27745e-18
1.94631e-18
1.52203e-18
1.67239e-18
1.56792e-18
1.05591e-18
9.09574e-19
1.13916e-18
1.13909e-18
1.01697e-18
1.27367e-18
1.65875e-18
1.52929e-18
8.12417e-19
5.66357e-19
6.80249e-19
1.0045e-18
1.58845e-18
2.04095e-18
2.30149e-18
1.54509e-18
1.38717e-18
2.51599e-18
1.85968e-18
1.18253e-18
1.85049e-18
3.40637e-18
1.52463e-18
1.33626e-18
2.06902e-18
1.43372e-18
1.02787e-18
1.08284e-18
2.03609e-18
2.83221e-18
1.91439e-18
2.15447e-18
1.13636e-18
1.72754e-18
2.37609e-18
1.672e-17
2.11492e-16
2.48724e-16
4.10547e-17
8.44645e-18
3.07585e-18
2.37708e-18
2.20171e-18
1.78105e-18
1.48805e-18
1.1929e-18
1.55793e-18
3.32053e-18
3.88498e-18
1.75357e-18
9.31606e-19
9.40966e-19
1.36058e-18
1.9941e-18
1.55817e-18
1.05694e-18
1.72644e-18
3.51839e-18
3.27484e-18
1.68517e-18
1.96932e-18
2.88466e-18
2.23741e-18
1.84248e-18
1.51032e-18
2.58408e-18
4.55719e-18
3.74335e-18
3.36314e-18
4.04187e-18
5.25314e-18
4.91309e-18
3.14875e-18
1.46526e-18
1.04719e-18
1.0577e-18
1.00161e-18
1.07515e-18
1.10743e-18
1.1924e-18
9.03541e-19
5.62521e-19
4.42129e-19
1.33884e-18
7.78123e-18
8.16256e-18
2.65415e-18
1.22536e-17
4.24135e-17
7.93487e-17
3.9436e-17
1.10907e-17
3.70442e-18
1.84434e-18
1.37633e-18
1.33062e-18
1.4857e-18
1.37065e-18
1.25862e-18
1.41566e-18
1.73496e-18
2.01322e-18
2.40026e-18
2.65143e-18
1.48037e-18
8.09484e-19
8.71825e-19
1.22986e-18
1.129e-18
9.84602e-19
2.5587e-18
1.26092e-17
2.29255e-17
1.41905e-17
4.80069e-18
2.5126e-18
2.09488e-18
1.92163e-18
1.62812e-18
1.53344e-18
1.89935e-18
1.78226e-18
1.37688e-18
1.22878e-18
1.11468e-18
1.14265e-18
1.37358e-18
1.48365e-18
1.34991e-18
1.49174e-18
1.69811e-18
1.85655e-18
2.49352e-18
2.82791e-18
2.85046e-18
3.52024e-18
3.69877e-18
2.22292e-18
1.13574e-18
1.12736e-18
1.48006e-18
2.23403e-18
2.89196e-18
1.8882e-18
1.24354e-18
1.41769e-18
1.98246e-18
1.75345e-18
9.62525e-19
9.60301e-19
1.48633e-18
2.55466e-18
3.13418e-18
3.37559e-18
1.75658e-18
1.35903e-18
1.70414e-18
1.30465e-18
1.09898e-18
1.44532e-18
2.10689e-18
2.08358e-18
2.3329e-18
2.82742e-18
2.27192e-18
1.98572e-18
1.29841e-18
1.07474e-18
1.79245e-18
1.22017e-18
1.43868e-18
2.03995e-18
2.63249e-18
1.6969e-18
1.13481e-18
2.07214e-18
2.38285e-18
2.61194e-18
2.11039e-18
1.28451e-18
2.84401e-18
2.89587e-18
2.12206e-18
3.10712e-18
2.90537e-18
1.74273e-18
4.1745e-18
3.91931e-18
2.60399e-18
5.37722e-18
4.76496e-18
4.88345e-18
5.35761e-18
5.9215e-18
5.56204e-18
3.73203e-18
5.80461e-18
3.78933e-18
5.48875e-18
2.42045e-18
2.70158e-18
2.88595e-18
2.02245e-18
6.36112e-18
3.93448e-18
5.46799e-18
4.61003e-18
3.4734e-18
3.70792e-18
1.83631e-18
6.89882e-18
1.84685e-18
3.09429e-18
7.00322e-18
1.71611e-18
2.0058e-18
3.48051e-18
2.45028e-18
8.08327e-19
1.43371e-18
1.89802e-18
2.91942e-18
3.66753e-18
4.36738e-18
3.28781e-18
4.37864e-18
1.05227e-18
2.00091e-18
5.51208e-18
6.05855e-18
3.86302e-18
3.15429e-18
3.31178e-18
4.67148e-18
3.20779e-18
3.41167e-18
2.32207e-18
2.87259e-18
2.0049e-18
5.43576e-18
4.21497e-18
1.14064e-18
3.52233e-18
3.05985e-18
2.16763e-18
1.86405e-18
2.72546e-18
2.2267e-18
4.00819e-18
2.73162e-18
5.22703e-18
2.89422e-18
2.20631e-18
2.45435e-18
2.83769e-18
2.65717e-18
1.96334e-18
2.83404e-18
4.05081e-18
1.2041e-18
1.35511e-18
1.79084e-18
3.14464e-18
6.48554e-18
5.14114e-18
1.97933e-18
4.23218e-18
2.9656e-18
9.50489e-19
4.20464e-18
3.43159e-18
2.55711e-18
1.92019e-18
4.68933e-18
5.0836e-18
4.52644e-18
5.53035e-18
2.68973e-18
6.41265e-18
2.03256e-18
3.76843e-18
2.70536e-18
2.45518e-18
1.61323e-18
3.83929e-18
1.81233e-18
1.69578e-18
2.34278e-18
5.31651e-18
2.63064e-18
2.32939e-18
3.13417e-18
2.48949e-18
3.42869e-18
4.29593e-18
3.50841e-18
2.76988e-18
2.84646e-18
3.27626e-18
1.87739e-18
3.33641e-18
2.71604e-18
1.83658e-18
1.89805e-18
2.64269e-18
2.75822e-18
3.85671e-18
4.49552e-18
2.36953e-18
2.14593e-18
2.0723e-18
3.11938e-18
1.28461e-18
2.55656e-18
3.42465e-18
3.67224e-18
2.22937e-18
1.73399e-18
2.28769e-18
1.99239e-18
3.08862e-18
2.36673e-18
2.23e-18
2.21967e-18
1.2486e-18
1.98331e-18
2.47218e-18
2.10035e-18
2.22431e-18
3.75831e-18
1.25568e-18
1.76177e-18
3.06987e-18
3.0557e-18
4.02326e-18
2.66862e-18
1.82499e-18
1.27147e-18
3.42055e-18
2.12286e-18
2.31256e-18
1.62312e-18
1.56319e-18
2.02398e-18
1.94968e-18
3.62107e-18
3.44155e-18
1.63418e-18
2.32368e-18
2.61075e-18
2.93902e-18
3.22768e-18
2.82957e-18
1.83215e-18
2.0004e-18
2.35327e-18
3.25295e-18
4.67504e-18
5.68654e-18
3.49632e-18
1.73905e-18
1.89645e-18
2.92107e-18
2.7175e-18
2.69873e-18
2.70875e-18
1.5295e-18
1.18928e-18
1.71087e-18
2.23589e-18
9.0077e-19
8.01523e-19
1.62374e-18
1.9276e-18
2.07392e-18
2.52028e-18
1.25901e-17
8.98599e-17
2.64268e-16
6.65383e-17
1.26022e-17
4.82367e-18
4.73341e-18
6.25601e-18
6.71118e-18
4.45234e-18
3.3599e-18
3.02443e-18
2.84472e-18
2.47123e-18
1.85313e-18
1.47918e-18
1.65531e-18
2.32162e-18
2.60146e-18
2.42538e-18
1.91927e-18
1.81695e-18
1.7957e-18
1.30643e-18
9.95106e-19
1.30336e-18
1.7904e-18
1.69134e-18
1.47649e-18
1.26037e-18
1.06168e-18
9.14656e-19
8.60557e-19
1.06487e-18
1.56054e-18
1.91891e-18
2.22628e-18
2.17966e-18
2.14965e-18
1.52537e-18
1.29497e-18
1.24863e-18
1.05065e-18
1.20326e-18
1.52034e-18
9.72885e-19
8.64004e-19
9.54845e-19
9.69033e-19
1.14109e-18
1.45475e-18
1.0684e-18
1.17613e-18
1.23571e-18
9.95915e-19
1.3756e-18
1.41023e-18
2.19624e-18
1.37712e-17
7.6322e-17
2.25447e-16
4.61261e-17
8.85415e-18
2.62527e-18
1.72795e-18
1.89611e-18
1.68627e-18
1.42022e-18
1.48569e-18
1.83188e-18
2.69555e-18
3.38308e-18
2.2948e-18
1.3061e-18
1.04971e-18
1.30107e-18
1.98508e-18
2.17533e-18
1.83683e-18
1.269e-18
1.41308e-18
2.66865e-18
3.04203e-18
3.98416e-18
6.69966e-18
4.09792e-18
1.3475e-18
7.60601e-19
1.04511e-18
2.82273e-18
4.25678e-18
3.3649e-18
3.62889e-18
3.3308e-18
2.53196e-18
1.85883e-18
1.49985e-18
1.58065e-18
1.43993e-18
1.07476e-18
9.62953e-19
1.3253e-18
1.82267e-18
1.02872e-18
5.97921e-19
5.63529e-19
1.36069e-18
9.24347e-18
2.62035e-17
1.41121e-17
1.16585e-17
1.02591e-17
7.18752e-18
4.77106e-18
3.09227e-18
1.7763e-18
1.31264e-18
1.46402e-18
1.65911e-18
1.69022e-18
1.61356e-18
1.54962e-18
1.67821e-18
1.94441e-18
1.84246e-18
1.67334e-18
1.7679e-18
1.78071e-18
1.51191e-18
1.38981e-18
1.2501e-18
1.1241e-18
1.26845e-18
2.55663e-18
5.8344e-18
8.82531e-18
5.56079e-18
2.76685e-18
1.67086e-18
1.39543e-18
1.27702e-18
1.34905e-18
1.61232e-18
1.71349e-18
1.67432e-18
1.64566e-18
1.57856e-18
1.76075e-18
2.32531e-18
2.47981e-18
2.8281e-18
3.15666e-18
2.23402e-18
1.68469e-18
1.569e-18
1.59204e-18
1.79193e-18
2.59182e-18
3.41705e-18
2.82133e-18
1.63109e-18
1.22414e-18
1.07671e-18
1.11284e-18
1.19186e-18
1.23086e-18
1.5028e-18
1.52057e-18
1.63217e-18
1.63369e-18
1.60557e-18
1.80616e-18
2.34352e-18
2.15411e-18
1.95599e-18
2.14669e-18
1.81262e-18
2.37974e-18
1.70498e-18
1.36444e-18
1.34006e-18
1.17269e-18
1.36203e-18
1.69623e-18
1.29599e-18
1.41024e-18
1.40929e-18
1.85499e-18
2.26359e-18
1.38471e-18
8.17363e-19
1.27467e-18
2.25575e-18
2.34013e-18
7.97436e-19
2.62125e-18
3.92304e-18
2.34854e-18
1.32426e-18
1.4861e-18
2.48809e-18
1.39268e-18
3.02387e-18
2.11374e-18
1.32988e-18
9.85603e-19
1.91678e-18
1.59283e-18
1.57625e-18
1.60652e-18
2.6976e-18
4.22523e-18
5.20461e-18
4.08851e-18
4.12385e-18
5.30424e-18
3.12785e-18
2.74941e-18
2.63206e-18
1.62426e-18
3.73109e-18
3.36741e-18
1.78291e-18
2.01095e-18
6.37454e-19
4.68944e-18
8.59495e-18
2.42391e-18
1.36144e-18
4.31842e-18
4.05861e-18
5.94706e-18
7.85064e-18
2.59325e-18
2.0623e-18
1.27571e-18
2.11513e-18
2.27166e-18
1.08436e-18
3.18461e-18
5.44295e-18
3.16062e-18
4.51039e-18
4.08856e-18
1.90727e-18
2.73549e-18
5.68985e-18
3.16227e-18
1.13657e-18
1.83334e-18
2.65072e-18
5.19904e-18
4.12436e-18
2.29878e-18
4.6284e-18
2.64242e-18
1.88346e-18
1.92051e-18
3.05464e-18
2.22932e-18
4.01314e-18
8.17384e-18
3.23935e-18
3.38186e-18
3.48704e-18
2.88947e-18
1.95344e-18
2.67126e-18
3.37631e-18
1.84164e-18
2.98557e-18
3.28849e-18
1.71392e-18
2.23682e-18
2.45781e-18
2.92397e-18
1.84859e-18
2.02439e-18
4.59439e-18
3.87721e-18
3.34903e-18
1.87793e-18
2.59961e-18
1.53695e-18
1.3919e-18
2.99625e-18
2.55863e-18
3.92843e-18
5.41238e-18
2.8355e-18
3.35782e-18
3.06816e-18
7.69713e-18
2.00207e-18
1.92945e-18
2.63719e-18
2.25916e-18
2.90885e-18
4.35696e-18
2.66528e-18
2.53049e-18
2.49084e-18
2.6262e-18
2.39463e-18
1.92664e-18
2.4661e-18
2.55019e-18
1.88259e-18
3.18787e-18
4.02616e-18
2.83084e-18
2.1853e-18
4.68766e-18
6.42137e-18
3.59332e-18
1.07601e-18
3.11074e-18
2.99744e-18
3.80321e-18
3.54527e-18
2.21509e-18
2.40813e-18
2.7395e-18
2.26311e-18
2.18418e-18
4.09185e-18
6.47621e-18
5.1472e-18
1.59153e-18
1.52163e-18
4.24136e-18
3.16369e-18
2.09507e-18
2.96996e-18
2.44895e-18
2.55399e-18
2.3823e-18
4.57719e-18
3.56696e-18
1.77425e-18
1.61796e-18
2.0255e-18
2.55643e-18
2.10195e-18
4.20567e-18
4.55106e-18
4.13889e-18
1.80358e-18
1.76462e-18
1.2454e-18
1.38219e-18
2.60586e-18
2.78208e-18
3.28968e-18
2.94082e-18
4.32027e-18
2.35055e-18
2.43091e-18
3.07463e-18
1.83274e-18
1.45474e-18
2.33691e-18
2.05291e-18
1.75288e-18
1.97748e-18
2.63487e-18
3.5234e-18
3.67509e-18
4.03898e-18
3.68436e-18
1.73409e-18
1.17728e-18
2.08313e-18
3.32829e-18
3.75812e-18
5.10905e-18
3.22823e-18
1.80624e-18
2.48167e-18
6.36937e-18
4.46818e-18
2.63281e-18
2.69289e-18
1.52516e-18
1.73158e-18
1.96041e-18
1.44792e-18
2.13352e-18
2.2892e-18
2.04434e-18
1.92473e-18
1.7357e-18
1.61486e-18
2.06854e-18
2.68882e-18
1.81301e-18
1.22918e-18
9.07176e-19
3.18385e-18
2.51396e-17
1.48303e-16
3.14164e-16
6.19041e-17
1.16412e-17
3.62396e-18
2.41885e-18
2.74626e-18
3.05754e-18
2.25973e-18
1.67005e-18
1.7201e-18
2.52859e-18
3.29799e-18
3.62421e-18
2.70851e-18
2.08155e-18
2.04028e-18
2.4536e-18
2.54061e-18
2.21469e-18
1.77729e-18
1.62897e-18
1.71049e-18
1.89266e-18
2.65987e-18
3.33004e-18
2.87715e-18
2.26016e-18
1.5463e-18
1.26635e-18
1.28387e-18
1.42166e-18
1.77611e-18
2.08372e-18
2.06695e-18
1.83009e-18
1.86645e-18
1.65404e-18
1.2821e-18
1.22738e-18
1.28024e-18
1.49822e-18
1.37583e-18
1.77013e-18
1.97697e-18
1.17896e-18
1.33492e-18
1.81182e-18
1.60807e-18
1.16726e-18
8.55007e-19
7.3503e-19
1.36252e-18
2.59418e-18
2.70602e-18
2.39185e-18
2.97892e-18
1.56956e-17
5.49334e-17
8.38089e-17
3.22393e-17
7.81488e-18
2.46645e-18
1.32093e-18
1.19361e-18
1.25799e-18
1.30481e-18
1.43846e-18
1.8257e-18
2.28665e-18
2.5969e-18
2.45314e-18
1.88957e-18
1.32738e-18
1.1014e-18
1.15193e-18
1.5658e-18
2.27669e-18
1.81121e-18
2.01698e-18
3.71885e-18
9.03966e-18
8.27511e-18
5.05573e-18
2.85315e-18
1.30842e-18
9.0369e-19
1.33242e-18
2.92474e-18
5.38241e-18
4.83486e-18
3.29216e-18
2.47499e-18
1.67166e-18
1.36418e-18
1.40991e-18
1.42033e-18
1.19026e-18
1.14444e-18
1.80997e-18
2.37802e-18
1.81262e-18
1.04552e-18
7.51382e-19
6.6332e-19
9.50944e-19
6.34432e-18
2.86597e-17
4.68183e-17
1.74519e-17
8.23041e-18
6.2717e-18
4.22203e-18
3.67335e-18
2.49906e-18
1.95955e-18
2.04958e-18
2.21941e-18
2.09566e-18
1.6473e-18
1.19234e-18
1.00107e-18
1.16374e-18
1.58511e-18
2.07436e-18
2.9348e-18
3.78385e-18
3.36973e-18
2.39835e-18
1.94697e-18
2.02384e-18
2.3708e-18
3.49287e-18
7.03873e-18
8.93356e-18
5.92886e-18
3.63487e-18
2.08415e-18
1.37381e-18
1.27941e-18
1.49935e-18
2.09597e-18
2.70414e-18
2.68826e-18
1.92594e-18
2.00603e-18
2.86717e-18
2.74211e-18
1.76982e-18
1.52051e-18
2.00543e-18
2.11152e-18
1.6109e-18
1.2914e-18
1.73519e-18
2.4696e-18
2.85367e-18
3.02971e-18
1.7296e-18
1.24381e-18
1.12657e-18
1.10442e-18
9.92881e-19
1.12731e-18
1.62278e-18
1.90755e-18
2.01642e-18
1.61878e-18
1.52749e-18
1.72158e-18
1.94378e-18
1.77398e-18
1.80442e-18
1.80936e-18
1.78939e-18
2.18887e-18
2.81158e-18
3.76885e-18
4.33927e-18
4.32954e-18
2.38597e-18
1.8365e-18
1.4045e-18
1.18819e-18
1.32959e-18
1.46223e-18
1.38886e-18
7.02166e-19
7.05527e-19
1.5757e-18
1.3393e-18
1.53912e-18
2.23321e-18
2.50865e-18
2.11302e-18
2.97597e-18
2.89554e-18
1.28193e-18
1.21341e-18
1.80474e-18
3.57457e-18
2.60252e-18
1.83003e-18
2.40987e-18
2.33675e-18
3.12388e-18
1.40596e-18
8.14156e-19
1.98999e-18
2.20893e-18
3.25128e-18
8.13757e-19
4.33019e-18
1.58278e-18
1.26108e-18
5.29045e-18
3.73633e-18
2.21552e-18
3.24821e-18
1.50965e-18
1.82374e-18
9.11075e-19
2.01165e-18
3.84556e-18
1.82558e-18
5.1915e-18
4.56682e-18
5.00617e-18
7.59422e-18
2.2984e-18
2.40715e-18
3.05669e-18
4.90763e-18
4.06241e-18
5.45465e-18
2.99707e-18
1.36873e-18
1.98843e-18
2.35698e-18
9.61597e-19
2.41315e-18
1.46987e-18
7.38727e-18
3.24955e-18
3.16615e-18
3.87046e-18
3.76733e-18
4.18941e-18
1.84163e-18
1.84068e-18
2.66687e-18
4.16685e-18
4.30557e-18
2.5085e-18
2.98451e-18
1.9618e-18
1.96438e-18
2.8803e-18
3.05623e-18
2.72009e-18
2.84775e-18
3.3606e-18
7.13305e-18
4.72617e-18
2.09678e-18
3.08865e-18
3.68391e-18
2.2125e-18
3.02603e-18
3.57688e-18
2.81769e-18
1.99272e-18
2.74272e-18
2.55443e-18
1.66383e-18
4.13128e-18
2.44738e-18
3.46429e-18
8.02224e-18
5.39521e-18
2.90204e-18
2.96048e-18
5.01747e-18
2.99591e-18
4.27233e-18
5.22759e-18
2.59578e-18
2.36057e-18
5.31907e-18
3.85525e-18
2.8236e-18
2.26276e-18
2.00513e-18
2.99359e-18
3.50727e-18
2.62112e-18
2.30605e-18
3.36782e-18
4.13275e-18
3.43406e-18
5.75633e-18
5.4982e-18
3.78484e-18
1.98345e-18
2.71485e-18
4.94862e-18
2.83853e-18
2.16082e-18
3.36021e-18
1.54576e-18
1.5502e-18
3.24153e-18
1.77978e-18
2.27266e-18
1.80689e-18
2.80084e-18
3.99872e-18
2.29557e-18
1.8298e-18
1.35013e-18
2.0844e-18
3.40985e-18
4.51184e-18
2.99094e-18
1.77917e-18
1.58785e-18
2.48401e-18
2.20358e-18
1.72459e-18
1.67603e-18
1.48686e-18
3.29476e-18
3.75486e-18
2.56019e-18
4.74904e-18
2.60528e-18
4.12088e-18
4.04202e-18
3.10202e-18
3.48832e-18
3.13833e-18
3.017e-18
3.40574e-18
3.98523e-18
5.49244e-18
3.44346e-18
2.0803e-18
1.46112e-18
2.82233e-18
1.84416e-18
1.89661e-18
1.68831e-18
1.98872e-18
2.18376e-18
2.09203e-18
2.8106e-18
4.13256e-18
2.55717e-18
1.894e-18
2.75643e-18
3.36268e-18
3.1551e-18
1.78631e-18
1.83986e-18
1.83005e-18
2.89243e-18
2.23888e-18
2.672e-18
2.13653e-18
1.69724e-18
2.31994e-18
2.43544e-18
3.81813e-18
4.70455e-18
4.46023e-18
3.66576e-18
3.88919e-18
3.83131e-18
3.3761e-18
3.37383e-18
2.07834e-18
1.0287e-18
1.14337e-18
1.17907e-18
9.62734e-19
1.79186e-18
2.74589e-18
2.29017e-18
1.68673e-18
2.23334e-18
2.11547e-18
2.0375e-18
3.18433e-18
2.76671e-18
1.58629e-18
1.38741e-18
1.35001e-18
4.75664e-18
5.74449e-17
2.67827e-16
4.03834e-16
6.06663e-17
1.07851e-17
3.35864e-18
2.29549e-18
2.3059e-18
2.35626e-18
2.3809e-18
2.0516e-18
1.79615e-18
2.06918e-18
3.29161e-18
4.44742e-18
4.46005e-18
3.69961e-18
2.67415e-18
2.22892e-18
2.26917e-18
1.98395e-18
1.55591e-18
1.51353e-18
1.85787e-18
2.21231e-18
2.27686e-18
2.51237e-18
2.64003e-18
2.50618e-18
1.99842e-18
1.80829e-18
1.76047e-18
1.80969e-18
2.21912e-18
2.12093e-18
1.47584e-18
1.04384e-18
9.80328e-19
1.16012e-18
1.27819e-18
1.24803e-18
1.1876e-18
1.33153e-18
1.57538e-18
2.05882e-18
1.92508e-18
9.87998e-19
1.06509e-18
2.37465e-18
2.66419e-18
1.49262e-18
1.02638e-18
9.16218e-19
1.31586e-18
2.63405e-18
3.01684e-18
2.2776e-18
3.15238e-18
1.27659e-17
5.18303e-17
4.08073e-17
1.53046e-17
6.63905e-18
3.56583e-18
2.09412e-18
1.41171e-18
1.21103e-18
1.29995e-18
1.69423e-18
2.02125e-18
2.25448e-18
2.15463e-18
1.92503e-18
1.65366e-18
1.28854e-18
1.17398e-18
1.72665e-18
2.52435e-18
3.40099e-18
2.84101e-18
2.98706e-18
6.91141e-18
1.1163e-17
1.04796e-17
4.77923e-18
2.06334e-18
1.40492e-18
1.27061e-18
1.33859e-18
2.16966e-18
4.02186e-18
4.96014e-18
3.32225e-18
2.09474e-18
1.62042e-18
1.67482e-18
1.98403e-18
2.27334e-18
2.13245e-18
1.9912e-18
2.03443e-18
1.93052e-18
1.60366e-18
1.4613e-18
1.51189e-18
1.39849e-18
1.18917e-18
3.78455e-18
5.04206e-17
5.89668e-17
1.54028e-17
5.36406e-18
3.52823e-18
3.1208e-18
2.54573e-18
2.09566e-18
2.02356e-18
1.94207e-18
2.14621e-18
2.00797e-18
1.71389e-18
1.4012e-18
1.2179e-18
1.17758e-18
1.72515e-18
2.74074e-18
3.7066e-18
5.93932e-18
5.78645e-18
3.6952e-18
1.95233e-18
1.29543e-18
1.28095e-18
1.70299e-18
2.49024e-18
2.91664e-18
2.75408e-18
2.08459e-18
1.60163e-18
1.3797e-18
1.44631e-18
1.85521e-18
2.03881e-18
1.77839e-18
2.00202e-18
2.22826e-18
1.67562e-18
1.57525e-18
2.19887e-18
2.42768e-18
1.83895e-18
1.88278e-18
1.95894e-18
1.64264e-18
1.25613e-18
1.35923e-18
1.80356e-18
1.6664e-18
1.51821e-18
1.83669e-18
2.36136e-18
2.04488e-18
1.5772e-18
1.49142e-18
1.92089e-18
2.14423e-18
2.00121e-18
2.50556e-18
3.08257e-18
2.40138e-18
1.94424e-18
1.84764e-18
2.06817e-18
2.10087e-18
1.80824e-18
1.47943e-18
1.91334e-18
2.75983e-18
3.47961e-18
4.22905e-18
3.77749e-18
2.62176e-18
1.41233e-18
1.15426e-18
1.66715e-18
2.48517e-18
1.56815e-18
1.50215e-18
1.62498e-18
1.45216e-18
1.32867e-18
2.16985e-18
1.67623e-18
1.48735e-18
1.95862e-18
2.38261e-18
2.21659e-18
8.56746e-19
1.19015e-18
1.16401e-18
5.47406e-19
1.00237e-18
1.88718e-18
1.58423e-18
2.21484e-18
2.65346e-18
1.46572e-18
2.19486e-18
1.19107e-18
1.50544e-18
5.22262e-18
5.10067e-18
3.42515e-18
2.38603e-18
3.02077e-18
2.12758e-18
2.13801e-18
2.9258e-18
4.00689e-18
4.25377e-18
9.79514e-18
4.67503e-18
3.62616e-18
2.28094e-18
2.77706e-18
1.8488e-18
3.80378e-18
5.28025e-18
4.23917e-18
2.63753e-18
3.00029e-18
1.72443e-18
2.77845e-18
1.96871e-18
5.53278e-18
9.60453e-18
3.26422e-18
2.11279e-18
2.06967e-18
4.3577e-18
5.16262e-18
2.01989e-18
4.11799e-18
2.3215e-18
5.048e-18
4.38648e-18
4.89648e-18
1.85587e-18
3.33346e-18
1.78793e-18
4.68449e-18
4.31242e-18
4.70111e-18
2.11121e-18
2.42334e-18
4.34973e-18
4.3446e-18
2.294e-18
2.0596e-18
3.35476e-18
2.23797e-18
1.59739e-18
2.60445e-18
2.21239e-18
3.82975e-18
5.71867e-18
2.31791e-18
3.19675e-18
4.61453e-18
2.75742e-18
2.34869e-18
3.65962e-18
2.44379e-18
2.29809e-18
2.03078e-18
1.57523e-18
2.19419e-18
4.69332e-18
6.11323e-18