/*--------------------------------*- C++ -*----------------------------------*\
  =========                 |
  \\      /  F ield         | OpenFOAM: The Open Source CFD Toolbox
   \\    /   O peration     | Website:  https://openfoam.org
    \\  /    A nd           | Version:  7
     \\/     M anipulation  |
\*---------------------------------------------------------------------------*/
FoamFile
{
    version     2.0;
    format      ascii;
    class       volScalarField;
    location    "2500";
    object      mu1;
}
// * * * * * * * * * * * * * * * * * * * * * * * * * * * * * * * * * * * * * //

dimensions      [1 -1 -1 0 0 0 0];

internalField   nonuniform List<scalar> 
160000
(
0.000329756
0.000330585
0.000331444
0.000332344
0.000333305
0.000334289
0.0003353
0.000336317
0.000337339
0.000338445
0.000339604
0.000340754
0.000341943
0.000343192
0.000344421
0.000345664
0.000346948
0.000348255
0.000349613
0.000350997
0.000352397
0.00035381
0.00035522
0.000356658
0.000358129
0.000359645
0.000361194
0.00036273
0.00036428
0.000365832
0.000367362
0.00036895
0.000370669
0.000372406
0.000374076
0.000375767
0.000377467
0.000379157
0.000380815
0.000382487
0.000384274
0.00038611
0.000387974
0.000389772
0.000391548
0.000393407
0.000395252
0.000397071
0.000398964
0.000400916
0.000402859
0.000404825
0.000406763
0.000408674
0.000410621
0.000412532
0.000414505
0.00041652
0.000418448
0.000420387
0.00042246
0.000424565
0.000426575
0.000428573
0.000430538
0.000432596
0.00043473
0.000436862
0.000438936
0.000440862
0.000442894
0.000444992
0.000447044
0.000449102
0.000451152
0.000453249
0.000455362
0.000457457
0.000459568
0.000461691
0.00046382
0.000466032
0.000468216
0.000470331
0.000472459
0.000474613
0.000476755
0.000478851
0.000480942
0.000483116
0.000485254
0.000487384
0.000489616
0.000491849
0.000494014
0.00049609
0.000498179
0.000500317
0.000502459
0.00050457
0.000506697
0.000508796
0.000510893
0.000513049
0.000515123
0.000517225
0.000519328
0.000521424
0.00052359
0.000525755
0.000527941
0.000530031
0.000532101
0.000534202
0.000536238
0.000538311
0.000540384
0.000542434
0.000544561
0.000546733
0.000548868
0.000550933
0.000552986
0.000555074
0.000557162
0.000559283
0.000561445
0.000563523
0.000565558
0.000567637
0.000569693
0.000571684
0.000573681
0.000575784
0.000577891
0.000579909
0.000581885
0.000583861
0.000585817
0.000587701
0.00058963
0.000591695
0.000593669
0.000595591
0.000597648
0.000599677
0.000601634
0.000603594
0.000605534
0.000607427
0.0006093
0.000611201
0.000613074
0.000614983
0.000616892
0.000618773
0.000620683
0.000622615
0.000624544
0.000626452
0.000628339
0.000630208
0.000632086
0.000634006
0.00063587
0.00063768
0.000639548
0.000641352
0.000643117
0.00064487
0.000646651
0.000648507
0.000650271
0.000652028
0.000653816
0.0006555
0.000657164
0.000658847
0.000660577
0.000662352
0.000664012
0.000665672
0.00066737
0.000668994
0.000670629
0.000672299
0.00067401
0.000675759
0.000677511
0.000679322
0.000681244
0.000683196
0.000685108
0.000686959
0.000688774
0.000690337
0.000691709
0.00069322
0.000695049
0.000697038
0.000698897
0.000700562
0.000702085
0.000703483
0.0007048
0.000706161
0.000707654
0.000709225
0.000710757
0.000712208
0.000713628
0.000715051
0.000716456
0.000717819
0.000719178
0.000720551
0.000721885
0.00072319
0.000724552
0.000725969
0.000727378
0.000728744
0.000730017
0.000731235
0.000732462
0.000733718
0.000735027
0.000736304
0.000737574
0.000738892
0.000740132
0.000741348
0.000742589
0.000743852
0.000745114
0.000746349
0.000747552
0.000748746
0.000749917
0.000751069
0.000752226
0.00075334
0.000754441
0.000755535
0.000756617
0.000757704
0.00075882
0.000759997
0.00076133
0.000762953
0.000764677
0.000766134
0.000767321
0.000768358
0.000769328
0.000770295
0.000771277
0.000772215
0.000773122
0.000774139
0.000775348
0.000776513
0.000777514
0.000778431
0.000779335
0.00078029
0.000781285
0.000782218
0.000783122
0.000784112
0.000785129
0.000786083
0.000787035
0.000787978
0.000788865
0.000789695
0.000790514
0.000791395
0.000792315
0.000793216
0.00079409
0.000794932
0.000795775
0.000796636
0.000797514
0.000798367
0.000799198
0.000799993
0.000800754
0.000801514
0.000802273
0.000802994
0.000803699
0.00080443
0.000805171
0.000805916
0.000806676
0.000807394
0.000808062
0.000808708
0.00080939
0.000810274
0.000811373
0.000812372
0.000813187
0.000813889
0.000814538
0.000815161
0.000815766
0.000816355
0.000816935
0.000817506
0.000818062
0.000818625
0.000819221
0.000819856
0.0008205
0.000821089
0.000821617
0.000822127
0.000822631
0.000823129
0.000823627
0.000824149
0.000824721
0.000825341
0.00082595
0.000826496
0.000827011
0.000827514
0.000827996
0.000828462
0.000828926
0.000829382
0.000829829
0.000830271
0.000830701
0.000831111
0.00083153
0.000831971
0.00083238
0.000832759
0.000833147
0.000833536
0.000833914
0.000834279
0.000834636
0.000834996
0.000835366
0.000835734
0.000836082
0.000836409
0.000836723
0.00083703
0.000837336
0.000837639
0.000837933
0.000838223
0.000838509
0.000838784
0.000839046
0.0008393
0.000839552
0.000839799
0.000840046
0.000840295
0.000840531
0.00084076
0.000840986
0.000841196
0.000841389
0.000841574
0.000841753
0.000841932
0.000842104
0.000842268
0.000842425
0.000842572
0.00084271
0.000842842
0.000842971
0.000843093
0.000843207
0.000843317
0.00084342
0.000843516
0.000843606
0.00084369
0.000843766
0.000843835
0.000843896
0.000843951
0.000843999
0.000844041
0.000844075
0.000844104
0.000844129
0.000844146
0.000844157
0.000844163
0.000329775
0.000330609
0.000331455
0.000332355
0.0003333
0.000334273
0.000335282
0.000336316
0.000337361
0.000338455
0.000339607
0.000340766
0.000341934
0.000343145
0.000344405
0.000345665
0.000346922
0.000348252
0.000349636
0.000351031
0.000352427
0.000353818
0.000355239
0.000356697
0.000358152
0.00035961
0.000361136
0.000362713
0.000364269
0.000365825
0.0003674
0.000369002
0.000370681
0.000372401
0.000374079
0.00037575
0.000377477
0.000379133
0.000380752
0.000382497
0.000384316
0.000386116
0.000387957
0.000389752
0.000391532
0.000393416
0.000395272
0.000397071
0.000398931
0.000400921
0.000402908
0.000404836
0.000406727
0.00040868
0.000410626
0.000412513
0.000414493
0.000416485
0.000418454
0.000420444
0.000422464
0.000424525
0.000426565
0.000428559
0.00043057
0.000432663
0.000434733
0.000436795
0.00043886
0.000440877
0.000442944
0.000445029
0.000447068
0.000449091
0.00045114
0.000453248
0.000455371
0.000457472
0.000459575
0.000461699
0.000463858
0.000466025
0.000468177
0.00047028
0.000472415
0.000474626
0.000476767
0.000478857
0.000480968
0.000483104
0.000485274
0.000487434
0.000489625
0.000491848
0.000493973
0.000496052
0.00049816
0.000500288
0.000502448
0.00050457
0.000506693
0.000508843
0.000510915
0.000513009
0.000515145
0.000517224
0.000519311
0.000521461
0.000523614
0.000525768
0.00052794
0.000530038
0.000532104
0.000534172
0.000536226
0.000538298
0.000540364
0.00054244
0.000544559
0.000546716
0.000548871
0.000550959
0.000553022
0.000555108
0.000557196
0.000559301
0.00056142
0.000563489
0.000565547
0.000567622
0.000569672
0.000571661
0.000573688
0.000575831
0.000577932
0.000579895
0.000581861
0.000583865
0.000585789
0.000587688
0.000589635
0.000591662
0.000593666
0.000595642
0.000597681
0.00059967
0.000601619
0.000603584
0.000605513
0.000607379
0.000609295
0.000611229
0.000613076
0.000614966
0.000616888
0.000618813
0.00062072
0.000622636
0.00062454
0.000626424
0.000628313
0.000630198
0.000632106
0.000634004
0.000635859
0.000637686
0.000639549
0.000641362
0.000643121
0.000644903
0.000646713
0.000648532
0.000650272
0.000652022
0.000653784
0.00065547
0.000657169
0.000658876
0.000660589
0.000662306
0.000663977
0.000665652
0.000667332
0.000668951
0.000670591
0.000672282
0.000673996
0.000675726
0.000677467
0.000679304
0.000681271
0.00068332
0.000685314
0.000687147
0.000688809
0.000690286
0.000691751
0.000693388
0.000695235
0.00069713
0.000698873
0.000700483
0.000701978
0.000703382
0.000704752
0.000706188
0.000707717
0.00070926
0.000710749
0.000712185
0.000713612
0.000715035
0.000716427
0.000717793
0.000719164
0.000720531
0.000721864
0.000723202
0.000724597
0.000726004
0.000727367
0.000728678
0.000729944
0.000731191
0.000732448
0.000733732
0.000735041
0.000736318
0.000737588
0.000738873
0.000740116
0.000741336
0.000742583
0.000743891
0.000745156
0.000746353
0.000747549
0.000748751
0.000749916
0.000751065
0.000752219
0.000753333
0.000754439
0.000755549
0.000756619
0.000757681
0.000758776
0.000759973
0.000761497
0.000763288
0.000764854
0.000766143
0.000767258
0.000768289
0.000769283
0.000770271
0.000771248
0.000772187
0.00077314
0.000774225
0.000775402
0.000776474
0.000777443
0.000778374
0.000779317
0.000780307
0.000781282
0.000782194
0.000783124
0.000784135
0.000785142
0.000786095
0.000787045
0.000787975
0.000788848
0.00078968
0.000790517
0.000791409
0.00079232
0.00079321
0.000794079
0.00079493
0.000795784
0.000796659
0.000797537
0.000798382
0.000799193
0.000799975
0.000800739
0.000801505
0.000802254
0.000802976
0.000803696
0.000804435
0.000805175
0.00080592
0.000806682
0.000807416
0.000808094
0.000808741
0.000809473
0.000810479
0.000811537
0.000812417
0.000813172
0.000813853
0.000814492
0.000815112
0.00081572
0.000816317
0.000816905
0.000817483
0.000818054
0.000818638
0.000819248
0.00081988
0.000820495
0.00082106
0.000821591
0.00082211
0.00082262
0.000823119
0.000823626
0.000824176
0.000824773
0.000825384
0.00082596
0.000826488
0.000827001
0.000827504
0.000827986
0.000828456
0.000828921
0.000829378
0.000829827
0.00083027
0.000830702
0.000831122
0.000831544
0.000831964
0.000832364
0.000832752
0.000833144
0.000833534
0.00083391
0.000834277
0.000834639
0.000835007
0.000835378
0.000835734
0.000836074
0.0008364
0.000836715
0.000837028
0.000837339
0.000837641
0.000837934
0.000838222
0.000838505
0.000838779
0.000839041
0.000839298
0.000839551
0.0008398
0.00084005
0.0008403
0.000840536
0.000840767
0.00084099
0.000841195
0.000841388
0.000841574
0.000841754
0.00084193
0.000842101
0.000842266
0.000842421
0.000842569
0.000842709
0.000842841
0.000842972
0.000843092
0.000843207
0.000843319
0.000843421
0.000843516
0.000843607
0.00084369
0.000843765
0.000843835
0.000843897
0.000843951
0.000844
0.000844042
0.000844076
0.000844105
0.000844129
0.000844146
0.000844157
0.000844163
0.000329763
0.000330592
0.000331459
0.00033236
0.000333303
0.000334282
0.000335271
0.000336317
0.000337372
0.000338452
0.000339606
0.000340771
0.000341925
0.000343116
0.000344384
0.000345653
0.000346935
0.000348294
0.000349653
0.000351034
0.000352434
0.000353843
0.000355275
0.000356703
0.000358151
0.000359619
0.000361123
0.000362661
0.000364253
0.000365847
0.000367409
0.000369012
0.000370676
0.0003724
0.0003741
0.000375757
0.000377445
0.000379118
0.000380778
0.000382511
0.000384306
0.000386111
0.000387922
0.000389701
0.000391546
0.000393446
0.000395266
0.000397072
0.000398936
0.00040092
0.00040292
0.000404851
0.000406739
0.00040865
0.000410587
0.000412507
0.00041446
0.000416448
0.00041848
0.000420495
0.000422469
0.000424478
0.000426538
0.000428579
0.000430583
0.000432684
0.000434797
0.000436849
0.00043887
0.000440911
0.000442941
0.000444961
0.000447054
0.000449099
0.00045113
0.000453237
0.000455357
0.000457463
0.000459618
0.000461745
0.000463849
0.000466007
0.000468185
0.000470294
0.000472408
0.000474566
0.000476702
0.000478875
0.000481027
0.000483135
0.000485296
0.000487487
0.000489633
0.000491799
0.00049394
0.000496016
0.000498121
0.000500263
0.000502422
0.000504585
0.000506717
0.000508844
0.000510947
0.00051302
0.000515121
0.000517238
0.00051937
0.000521489
0.000523594
0.000525752
0.000527901
0.000530001
0.0005321
0.000534159
0.000536221
0.000538301
0.00054036
0.000542446
0.000544589
0.000546751
0.000548874
0.000550948
0.000553031
0.000555123
0.000557205
0.000559307
0.0005614
0.000563466
0.000565539
0.000567593
0.000569611
0.000571661
0.000573779
0.000575887
0.000577931
0.000579907
0.000581856
0.000583821
0.000585763
0.000587678
0.000589625
0.000591662
0.00059369
0.000595659
0.000597668
0.000599668
0.000601619
0.000603562
0.000605485
0.000607374
0.00060929
0.000611202
0.000613058
0.000614958
0.000616933
0.00061885
0.00062073
0.00062265
0.000624547
0.000626429
0.000628298
0.00063018
0.000632097
0.000633997
0.000635866
0.000637717
0.000639568
0.000641375
0.000643138
0.000644933
0.000646752
0.00064854
0.000650296
0.000652042
0.000653749
0.000655427
0.000657149
0.00065889
0.000660588
0.000662266
0.000663949
0.000665611
0.00066725
0.000668895
0.000670557
0.000672236
0.000673934
0.000675658
0.000677438
0.000679338
0.000681508
0.000683762
0.000685636
0.000687275
0.000688824
0.000690347
0.00069193
0.000693603
0.000695331
0.000697074
0.000698768
0.000700365
0.000701865
0.0007033
0.000704734
0.000706221
0.000707741
0.000709239
0.0007107
0.000712143
0.000713582
0.000714998
0.000716385
0.000717767
0.000719152
0.000720518
0.000721867
0.000723227
0.000724611
0.000725984
0.000727313
0.000728612
0.000729894
0.000731173
0.000732461
0.000733763
0.000735058
0.000736321
0.000737593
0.000738873
0.000740113
0.000741345
0.000742622
0.000743911
0.000745149
0.000746363
0.000747569
0.000748749
0.000749898
0.000751045
0.000752207
0.000753342
0.000754458
0.000755552
0.000756618
0.000757686
0.000758784
0.000760126
0.000761946
0.000763587
0.000764928
0.00076609
0.000767164
0.000768204
0.00076922
0.000770221
0.000771207
0.000772182
0.000773196
0.00077428
0.000775371
0.000776397
0.00077737
0.00077833
0.000779308
0.0007803
0.000781263
0.000782199
0.000783161
0.000784167
0.000785152
0.000786101
0.000787045
0.000787961
0.000788832
0.000789673
0.000790525
0.000791416
0.000792319
0.000793205
0.00079408
0.00079495
0.000795823
0.000796692
0.000797539
0.00079836
0.000799162
0.000799946
0.000800717
0.000801483
0.000802237
0.000802971
0.000803692
0.000804412
0.00080515
0.000805931
0.00080673
0.000807473
0.000808184
0.000808909
0.000809709
0.000810654
0.000811584
0.000812386
0.000813108
0.000813784
0.000814429
0.000815058
0.000815674
0.000816279
0.000816874
0.000817466
0.000818057
0.000818655
0.000819268
0.000819883
0.00082047
0.000821028
0.000821568
0.000822095
0.000822607
0.000823119
0.00082366
0.000824238
0.000824836
0.000825416
0.000825957
0.000826475
0.000826982
0.000827481
0.000827968
0.000828446
0.000828918
0.000829379
0.000829829
0.00083027
0.000830702
0.000831126
0.000831547
0.00083196
0.000832359
0.000832751
0.00083314
0.000833525
0.000833904
0.000834276
0.000834647
0.000835019
0.000835383
0.00083573
0.000836062
0.000836387
0.000836707
0.000837026
0.00083734
0.00083764
0.000837932
0.00083822
0.000838504
0.000838777
0.000839039
0.000839294
0.00083955
0.000839804
0.000840059
0.000840307
0.000840544
0.000840772
0.00084099
0.000841194
0.000841387
0.000841574
0.000841754
0.000841928
0.000842099
0.000842264
0.00084242
0.000842568
0.000842707
0.000842841
0.000842971
0.000843092
0.000843207
0.000843319
0.000843423
0.000843517
0.000843605
0.000843689
0.000843765
0.000843835
0.000843897
0.000843952
0.000844001
0.000844043
0.000844077
0.000844106
0.000844129
0.000844146
0.000844158
0.000844164
0.00032976
0.000330595
0.000331463
0.000332369
0.000333314
0.000334296
0.000335289
0.000336321
0.000337388
0.000338488
0.000339618
0.000340745
0.000341912
0.000343116
0.000344372
0.00034565
0.000346943
0.000348292
0.000349652
0.000351045
0.00035243
0.00035385
0.000355282
0.000356681
0.000358169
0.000359653
0.000361114
0.000362655
0.000364262
0.000365842
0.000367414
0.000369024
0.000370673
0.000372378
0.000374095
0.000375766
0.000377452
0.000379114
0.000380757
0.000382503
0.000384314
0.000386124
0.000387921
0.000389704
0.000391537
0.000393403
0.000395246
0.00039709
0.000398983
0.000400911
0.00040287
0.000404862
0.000406749
0.000408635
0.000410595
0.000412541
0.000414479
0.000416452
0.000418448
0.000420449
0.00042244
0.00042446
0.000426533
0.000428573
0.000430604
0.000432697
0.000434817
0.000436874
0.000438887
0.000440954
0.000442987
0.000444967
0.000446993
0.000449028
0.000451116
0.000453288
0.000455394
0.000457498
0.000459671
0.00046176
0.00046386
0.000466027
0.000468163
0.000470246
0.000472357
0.000474539
0.000476701
0.000478871
0.000481009
0.000483169
0.000485332
0.000487467
0.000489627
0.000491775
0.000493873
0.000495983
0.000498137
0.00050026
0.000502382
0.000504571
0.000506778
0.000508902
0.00051098
0.000513048
0.000515133
0.000517249
0.000519378
0.000521487
0.000523591
0.000525738
0.00052786
0.000529952
0.000532067
0.00053416
0.000536237
0.000538307
0.000540361
0.000542448
0.000544611
0.00054676
0.000548856
0.000550937
0.000553045
0.000555122
0.000557182
0.000559299
0.000561412
0.000563482
0.000565516
0.00056756
0.000569605
0.000571693
0.000573827
0.000575928
0.000577969
0.000579924
0.000581846
0.000583795
0.000585744
0.00058768
0.000589675
0.000591679
0.000593645
0.000595638
0.000597644
0.00059965
0.000601631
0.000603561
0.000605449
0.000607358
0.000609288
0.000611194
0.000613087
0.000614984
0.000616912
0.000618824
0.000620737
0.000622672
0.000624541
0.000626391
0.000628275
0.000630173
0.000632098
0.000634019
0.000635892
0.000637741
0.000639594
0.000641421
0.000643211
0.000645011
0.000646801
0.000648537
0.000650251
0.000651977
0.000653704
0.000655422
0.000657157
0.000658878
0.000660551
0.000662213
0.000663906
0.000665576
0.000667191
0.000668821
0.000670482
0.00067217
0.000673885
0.000675661
0.00067756
0.000679751
0.000682144
0.000684117
0.000685767
0.00068731
0.000688865
0.000690453
0.000692053
0.000693668
0.000695322
0.000697002
0.000698669
0.000700275
0.000701797
0.00070326
0.000704721
0.000706207
0.000707706
0.00070919
0.000710648
0.000712097
0.000713534
0.000714943
0.000716338
0.000717741
0.000719142
0.000720522
0.000721883
0.000723237
0.000724593
0.00072594
0.000727264
0.000728575
0.000729878
0.000731177
0.000732475
0.000733777
0.000735067
0.000736334
0.0007376
0.00073886
0.000740109
0.000741373
0.000742649
0.000743915
0.000745161
0.000746379
0.000747572
0.000748751
0.000749904
0.00075105
0.000752209
0.000753347
0.000754461
0.000755552
0.000756634
0.000757766
0.000758984
0.000760513
0.000762259
0.000763679
0.000764892
0.000765999
0.000767067
0.000768117
0.000769145
0.000770157
0.000771164
0.00077218
0.000773225
0.000774289
0.000775331
0.000776333
0.000777309
0.000778287
0.000779284
0.000780283
0.000781263
0.00078222
0.000783193
0.000784185
0.000785156
0.00078612
0.000787071
0.000787966
0.000788816
0.000789658
0.000790528
0.000791433
0.00079233
0.000793215
0.000794099
0.000794971
0.00079583
0.000796678
0.000797513
0.000798333
0.000799136
0.000799921
0.000800696
0.000801469
0.000802224
0.000802948
0.000803657
0.000804379
0.000805152
0.000805978
0.000806793
0.000807571
0.000808342
0.000809106
0.000809898
0.000810733
0.000811554
0.000812318
0.000813036
0.000813721
0.000814378
0.000815013
0.000815631
0.000816239
0.000816846
0.000817452
0.000818057
0.000818662
0.00081927
0.00081987
0.000820451
0.00082101
0.000821552
0.00082208
0.000822605
0.000823146
0.000823714
0.000824299
0.000824871
0.000825418
0.000825945
0.000826457
0.000826959
0.000827457
0.000827951
0.000828436
0.00082891
0.000829375
0.000829829
0.000830271
0.000830704
0.000831129
0.000831551
0.000831963
0.000832361
0.000832752
0.000833139
0.000833522
0.000833902
0.00083428
0.000834657
0.000835024
0.000835378
0.00083572
0.000836053
0.000836381
0.000836703
0.000837022
0.000837334
0.000837637
0.000837931
0.000838219
0.0008385
0.000838773
0.000839039
0.000839296
0.000839551
0.000839805
0.000840059
0.00084031
0.00084055
0.000840778
0.000840992
0.000841195
0.000841389
0.000841576
0.000841756
0.000841929
0.000842097
0.000842261
0.000842418
0.000842564
0.000842703
0.000842839
0.000842971
0.000843092
0.000843207
0.00084332
0.000843425
0.000843518
0.000843605
0.000843688
0.000843765
0.000843834
0.000843898
0.000843953
0.000844002
0.000844044
0.000844079
0.000844107
0.00084413
0.000844147
0.000844158
0.000844164
0.000329757
0.000330585
0.00033146
0.000332381
0.000333326
0.000334307
0.0003353
0.000336327
0.000337407
0.000338496
0.000339614
0.000340719
0.000341864
0.000343138
0.000344418
0.000345659
0.000346937
0.000348268
0.000349619
0.000351039
0.000352459
0.000353869
0.00035528
0.000356693
0.000358167
0.00035963
0.000361092
0.00036264
0.000364216
0.000365811
0.000367452
0.00036907
0.000370687
0.000372402
0.000374144
0.000375784
0.000377408
0.000379068
0.000380776
0.000382552
0.00038432
0.000386114
0.000387934
0.000389719
0.000391519
0.000393364
0.000395206
0.000397049
0.000398985
0.000400944
0.000402882
0.000404831
0.000406752
0.000408662
0.000410586
0.000412542
0.000414491
0.00041645
0.000418457
0.000420444
0.000422417
0.000424425
0.000426494
0.000428557
0.000430581
0.000432686
0.000434851
0.000436941
0.000438948
0.000440968
0.000442986
0.000444964
0.000447
0.000449059
0.000451123
0.000453276
0.000455414
0.000457518
0.000459631
0.000461784
0.000463933
0.000466025
0.000468135
0.000470238
0.000472349
0.000474528
0.000476703
0.000478853
0.000481011
0.000483175
0.000485325
0.000487446
0.000489587
0.000491739
0.000493838
0.000495939
0.000498107
0.000500266
0.000502388
0.000504556
0.000506806
0.000508994
0.00051103
0.00051307
0.000515171
0.000517271
0.000519381
0.000521468
0.000523561
0.000525703
0.000527837
0.000529916
0.000531996
0.00053413
0.000536284
0.000538357
0.000540367
0.000542449
0.000544609
0.000546735
0.000548837
0.000550942
0.000553034
0.000555097
0.000557192
0.000559332
0.000561417
0.000563452
0.000565482
0.000567535
0.000569585
0.000571686
0.000573853
0.000575996
0.000578024
0.000579962
0.000581887
0.0005838
0.000585732
0.000587678
0.000589649
0.000591637
0.000593643
0.000595657
0.000597641
0.000599637
0.000601611
0.000603528
0.000605444
0.000607371
0.000609277
0.000611169
0.000613067
0.000614982
0.000616911
0.000618842
0.000620774
0.000622674
0.000624513
0.000626356
0.000628251
0.000630154
0.00063209
0.000634043
0.000635915
0.000637752
0.000639662
0.000641548
0.000643313
0.000645063
0.000646802
0.00064851
0.000650229
0.00065195
0.000653667
0.000655394
0.00065712
0.000658833
0.000660517
0.000662178
0.000663839
0.000665503
0.000667143
0.000668762
0.000670388
0.000672087
0.000673922
0.000675881
0.000678103
0.000680503
0.000682535
0.000684241
0.0006858
0.000687332
0.000688898
0.000690487
0.000692067
0.000693647
0.000695264
0.000696923
0.000698593
0.000700221
0.000701761
0.000703238
0.000704707
0.000706189
0.000707671
0.000709139
0.000710591
0.000712033
0.000713462
0.000714882
0.000716307
0.000717727
0.000719133
0.000720517
0.000721876
0.000723221
0.000724566
0.000725912
0.000727248
0.00072857
0.000729878
0.000731182
0.000732487
0.000733781
0.00073506
0.000736325
0.000737587
0.000738844
0.000740104
0.000741385
0.000742655
0.000743918
0.000745183
0.000746414
0.000747604
0.000748766
0.000749906
0.000751052
0.000752218
0.000753368
0.00075448
0.000755569
0.00075671
0.000757959
0.000759327
0.000760876
0.000762361
0.000763649
0.000764812
0.000765909
0.000766976
0.000768029
0.000769067
0.000770098
0.000771131
0.000772172
0.00077322
0.000774265
0.000775286
0.000776281
0.000777261
0.000778243
0.00077925
0.00078026
0.000781257
0.000782242
0.000783234
0.000784238
0.000785213
0.000786156
0.000787066
0.000787935
0.000788785
0.000789649
0.000790547
0.000791457
0.000792351
0.000793234
0.000794108
0.000794966
0.000795816
0.00079666
0.00079749
0.000798301
0.000799103
0.000799904
0.000800693
0.000801459
0.000802199
0.000802912
0.000803612
0.000804361
0.000805187
0.000806049
0.000806902
0.000807694
0.000808459
0.000809218
0.000809993
0.000810784
0.000811549
0.000812283
0.000812992
0.000813679
0.000814341
0.000814979
0.000815597
0.000816206
0.000816815
0.000817427
0.000818042
0.000818661
0.000819274
0.000819868
0.00082044
0.000820995
0.000821538
0.000822072
0.000822616
0.000823184
0.000823761
0.000824328
0.000824881
0.000825414
0.000825931
0.000826438
0.000826938
0.000827437
0.000827938
0.000828428
0.000828901
0.000829372
0.000829838
0.000830282
0.000830708
0.000831131
0.000831552
0.000831963
0.000832359
0.000832749
0.000833137
0.000833522
0.000833906
0.000834287
0.000834658
0.00083502
0.00083537
0.000835712
0.000836045
0.000836373
0.000836698
0.000837019
0.000837333
0.000837635
0.00083793
0.000838218
0.0008385
0.000838773
0.000839038
0.000839294
0.000839547
0.0008398
0.000840056
0.000840311
0.000840558
0.000840788
0.000840999
0.000841199
0.000841392
0.000841578
0.000841758
0.000841933
0.0008421
0.000842258
0.000842412
0.00084256
0.000842701
0.000842837
0.00084297
0.000843093
0.000843209
0.000843321
0.000843425
0.000843518
0.000843605
0.000843688
0.000843766
0.000843835
0.000843898
0.000843954
0.000844003
0.000844045
0.000844079
0.000844108
0.000844131
0.000844148
0.000844159
0.000844165
0.000329754
0.000330567
0.000331436
0.000332375
0.000333323
0.00033431
0.000335323
0.000336356
0.000337407
0.000338473
0.000339596
0.000340719
0.000341887
0.000343141
0.0003444
0.000345688
0.000346981
0.000348272
0.000349602
0.000350993
0.000352419
0.000353856
0.000355298
0.000356709
0.000358147
0.000359643
0.000361125
0.00036264
0.000364182
0.00036578
0.000367453
0.000369084
0.000370731
0.000372427
0.000374134
0.000375782
0.00037741
0.000379074
0.000380791
0.000382558
0.000384327
0.000386117
0.000387919
0.000389698
0.00039151
0.000393363
0.000395209
0.000397064
0.000398954
0.00040091
0.000402904
0.000404828
0.000406724
0.000408669
0.000410601
0.000412525
0.000414491
0.000416472
0.000418441
0.000420418
0.000422414
0.000424394
0.000426447
0.000428547
0.000430594
0.000432708
0.000434886
0.000436976
0.00043897
0.000440972
0.000442971
0.000444971
0.000447053
0.000449125
0.000451161
0.000453274
0.000455425
0.000457544
0.000459657
0.000461763
0.000463882
0.000466016
0.000468134
0.000470234
0.000472356
0.000474518
0.000476667
0.000478821
0.000481014
0.000483201
0.000485321
0.000487407
0.000489562
0.000491728
0.00049383
0.000495963
0.000498112
0.000500231
0.000502416
0.000504614
0.000506815
0.000508966
0.00051103
0.000513128
0.000515226
0.000517297
0.00051936
0.000521417
0.000523516
0.000525686
0.00052785
0.000529939
0.000532003
0.000534112
0.000536242
0.000538326
0.000540381
0.00054245
0.000544572
0.000546725
0.000548836
0.000550948
0.000553036
0.000555098
0.000557207
0.000559308
0.000561379
0.000563431
0.000565471
0.00056753
0.000569609
0.00057174
0.000573898
0.000576005
0.000578008
0.000579963
0.000581914
0.000583841
0.000585761
0.000587688
0.000589646
0.000591618
0.000593602
0.000595624
0.000597639
0.00059961
0.000601566
0.000603511
0.000605454
0.00060737
0.000609269
0.000611169
0.000613081
0.000615006
0.000616932
0.000618856
0.000620746
0.000622618
0.000624476
0.000626348
0.000628269
0.000630189
0.000632103
0.000634028
0.000635938
0.000637836
0.000639753
0.000641616
0.000643361
0.000645073
0.000646795
0.000648494
0.000650192
0.000651924
0.000653658
0.000655368
0.000657078
0.000658791
0.000660472
0.000662144
0.000663816
0.00066545
0.000667046
0.000668623
0.000670264
0.000672136
0.000674229
0.000676515
0.000678928
0.000680937
0.000682661
0.000684249
0.00068579
0.000687327
0.000688888
0.000690468
0.000692042
0.000693611
0.000695217
0.000696876
0.000698548
0.000700178
0.00070173
0.000703215
0.000704685
0.00070616
0.000707628
0.000709083
0.000710532
0.000711978
0.000713414
0.000714845
0.000716276
0.000717699
0.000719104
0.000720487
0.000721852
0.000723198
0.000724547
0.000725908
0.000727252
0.00072857
0.000729873
0.000731176
0.000732478
0.000733771
0.000735052
0.000736318
0.000737575
0.000738834
0.000740115
0.000741386
0.000742636
0.000743919
0.000745217
0.00074645
0.000747624
0.00074877
0.000749914
0.000751085
0.000752269
0.000753415
0.000754518
0.000755624
0.000756856
0.000758252
0.000759654
0.000761032
0.000762352
0.000763581
0.00076473
0.000765826
0.000766894
0.000767951
0.000769002
0.00077005
0.000771102
0.000772152
0.000773198
0.000774229
0.000775236
0.000776227
0.000777215
0.000778216
0.00077923
0.000780235
0.000781265
0.000782301
0.000783309
0.000784296
0.00078524
0.00078615
0.000787042
0.000787911
0.000788773
0.000789657
0.000790567
0.000791475
0.000792361
0.000793233
0.000794096
0.000794952
0.000795802
0.000796642
0.000797468
0.000798283
0.000799091
0.000799891
0.000800673
0.000801436
0.000802174
0.000802877
0.000803565
0.000804362
0.000805324
0.000806216
0.000807017
0.000807774
0.000808526
0.00080928
0.00081004
0.000810804
0.000811548
0.000812266
0.000812965
0.000813644
0.000814304
0.000814942
0.000815562
0.000816175
0.00081679
0.000817407
0.000818032
0.000818662
0.000819278
0.000819867
0.000820435
0.000820989
0.000821537
0.000822085
0.00082264
0.000823207
0.000823774
0.000824331
0.000824874
0.000825402
0.000825918
0.000826427
0.000826928
0.000827425
0.000827928
0.000828422
0.000828897
0.00082937
0.000829837
0.000830282
0.00083071
0.000831135
0.000831555
0.000831961
0.000832357
0.000832751
0.000833142
0.000833525
0.000833902
0.00083428
0.000834653
0.000835015
0.000835364
0.000835704
0.00083604
0.00083637
0.000836695
0.000837017
0.000837332
0.000837635
0.00083793
0.000838218
0.000838501
0.000838774
0.000839038
0.000839293
0.000839546
0.000839801
0.000840059
0.000840316
0.000840563
0.000840791
0.000841001
0.000841199
0.000841393
0.000841581
0.00084176
0.000841933
0.0008421
0.000842258
0.00084241
0.000842558
0.0008427
0.000842837
0.000842969
0.000843095
0.000843211
0.00084332
0.000843424
0.000843518
0.000843605
0.000843688
0.000843766
0.000843836
0.000843899
0.000843955
0.000844004
0.000844046
0.00084408
0.000844109
0.000844133
0.00084415
0.00084416
0.000844166
0.000329751
0.000330572
0.000331434
0.000332352
0.000333301
0.000334298
0.000335331
0.000336369
0.000337422
0.000338498
0.000339598
0.000340719
0.000341914
0.000343167
0.000344419
0.000345688
0.00034697
0.000348277
0.000349603
0.000350958
0.000352402
0.000353854
0.00035527
0.000356678
0.000358126
0.000359641
0.000361145
0.000362668
0.000364208
0.000365789
0.000367447
0.000369119
0.000370764
0.000372435
0.000374105
0.000375745
0.000377419
0.000379111
0.000380815
0.000382531
0.000384298
0.000386112
0.000387914
0.00038969
0.000391517
0.000393381
0.000395216
0.000397074
0.000398969
0.000400897
0.000402881
0.000404813
0.00040671
0.000408664
0.000410612
0.000412525
0.000414478
0.000416459
0.000418426
0.000420412
0.000422393
0.000424364
0.00042642
0.000428585
0.000430695
0.000432736
0.000434864