/*--------------------------------*- C++ -*----------------------------------*\
  =========                 |
  \\      /  F ield         | OpenFOAM: The Open Source CFD Toolbox
   \\    /   O peration     | Website:  https://openfoam.org
    \\  /    A nd           | Version:  7
     \\/     M anipulation  |
\*---------------------------------------------------------------------------*/
FoamFile
{
    version     2.0;
    format      ascii;
    class       volScalarField;
    location    "2500";
    object      mu2;
}
// * * * * * * * * * * * * * * * * * * * * * * * * * * * * * * * * * * * * * //

dimensions      [1 -1 -1 0 0 0 0];

internalField   nonuniform List<scalar> 
160000
(
2.07333e-05
2.07195e-05
2.07059e-05
2.06922e-05
2.06781e-05
2.06642e-05
2.06504e-05
2.0637e-05
2.06239e-05
2.06102e-05
2.05963e-05
2.05829e-05
2.05695e-05
2.05557e-05
2.05426e-05
2.05296e-05
2.05165e-05
2.05035e-05
2.04903e-05
2.04771e-05
2.04641e-05
2.04513e-05
2.04388e-05
2.04262e-05
2.04136e-05
2.04009e-05
2.03882e-05
2.03758e-05
2.03635e-05
2.03514e-05
2.03396e-05
2.03276e-05
2.03149e-05
2.03022e-05
2.02902e-05
2.02782e-05
2.02664e-05
2.02548e-05
2.02435e-05
2.02324e-05
2.02206e-05
2.02086e-05
2.01967e-05
2.01853e-05
2.01742e-05
2.01627e-05
2.01514e-05
2.01405e-05
2.01292e-05
2.01177e-05
2.01064e-05
2.00951e-05
2.00841e-05
2.00733e-05
2.00625e-05
2.00519e-05
2.00412e-05
2.00303e-05
2.002e-05
2.00097e-05
1.99988e-05
1.99879e-05
1.99776e-05
1.99674e-05
1.99574e-05
1.99471e-05
1.99365e-05
1.99261e-05
1.99159e-05
1.99066e-05
1.98969e-05
1.98869e-05
1.98772e-05
1.98675e-05
1.9858e-05
1.98483e-05
1.98387e-05
1.98291e-05
1.98196e-05
1.98101e-05
1.98006e-05
1.97909e-05
1.97813e-05
1.97721e-05
1.97629e-05
1.97536e-05
1.97445e-05
1.97356e-05
1.97268e-05
1.97177e-05
1.97088e-05
1.97e-05
1.96908e-05
1.96817e-05
1.96729e-05
1.96645e-05
1.96562e-05
1.96476e-05
1.96391e-05
1.96308e-05
1.96225e-05
1.96143e-05
1.96061e-05
1.95978e-05
1.95899e-05
1.95818e-05
1.95738e-05
1.95659e-05
1.95578e-05
1.95497e-05
1.95415e-05
1.95338e-05
1.95261e-05
1.95184e-05
1.9511e-05
1.95034e-05
1.94959e-05
1.94885e-05
1.94809e-05
1.94731e-05
1.94655e-05
1.94582e-05
1.9451e-05
1.94436e-05
1.94363e-05
1.94289e-05
1.94214e-05
1.94142e-05
1.94072e-05
1.94001e-05
1.93931e-05
1.93863e-05
1.93796e-05
1.93725e-05
1.93654e-05
1.93586e-05
1.9352e-05
1.93455e-05
1.9339e-05
1.93328e-05
1.93264e-05
1.93196e-05
1.93132e-05
1.93069e-05
1.93002e-05
1.92937e-05
1.92874e-05
1.92811e-05
1.92749e-05
1.92688e-05
1.92629e-05
1.92568e-05
1.92509e-05
1.92449e-05
1.92389e-05
1.9233e-05
1.9227e-05
1.9221e-05
1.9215e-05
1.92091e-05
1.92032e-05
1.91975e-05
1.91917e-05
1.91858e-05
1.91801e-05
1.91746e-05
1.9169e-05
1.91635e-05
1.91582e-05
1.91529e-05
1.91475e-05
1.9142e-05
1.91367e-05
1.91314e-05
1.91261e-05
1.91211e-05
1.91162e-05
1.91112e-05
1.91061e-05
1.91009e-05
1.9096e-05
1.90912e-05
1.90862e-05
1.90815e-05
1.90767e-05
1.90719e-05
1.90669e-05
1.90619e-05
1.90568e-05
1.90516e-05
1.90461e-05
1.90405e-05
1.90351e-05
1.90298e-05
1.90247e-05
1.90202e-05
1.90164e-05
1.90121e-05
1.90069e-05
1.90013e-05
1.89961e-05
1.89915e-05
1.89872e-05
1.89833e-05
1.89797e-05
1.89759e-05
1.89717e-05
1.89674e-05
1.89632e-05
1.89591e-05
1.89552e-05
1.89513e-05
1.89475e-05
1.89437e-05
1.894e-05
1.89363e-05
1.89326e-05
1.89291e-05
1.89254e-05
1.89215e-05
1.89177e-05
1.8914e-05
1.89106e-05
1.89073e-05
1.8904e-05
1.89006e-05
1.88971e-05
1.88937e-05
1.88903e-05
1.88867e-05
1.88834e-05
1.88802e-05
1.88769e-05
1.88735e-05
1.88702e-05
1.88669e-05
1.88637e-05
1.88605e-05
1.88574e-05
1.88544e-05
1.88514e-05
1.88484e-05
1.88455e-05
1.88427e-05
1.88398e-05
1.8837e-05
1.8834e-05
1.8831e-05
1.88275e-05
1.88233e-05
1.88188e-05
1.8815e-05
1.88119e-05
1.88092e-05
1.88067e-05
1.88042e-05
1.88017e-05
1.87992e-05
1.87969e-05
1.87943e-05
1.87912e-05
1.87882e-05
1.87856e-05
1.87833e-05
1.87809e-05
1.87785e-05
1.8776e-05
1.87736e-05
1.87713e-05
1.87687e-05
1.87662e-05
1.87637e-05
1.87613e-05
1.87589e-05
1.87567e-05
1.87546e-05
1.87525e-05
1.87502e-05
1.87479e-05
1.87456e-05
1.87434e-05
1.87413e-05
1.87392e-05
1.8737e-05
1.87348e-05
1.87327e-05
1.87306e-05
1.87286e-05
1.87267e-05
1.87248e-05
1.87229e-05
1.87211e-05
1.87193e-05
1.87175e-05
1.87156e-05
1.87138e-05
1.87119e-05
1.87101e-05
1.87084e-05
1.87068e-05
1.87051e-05
1.87029e-05
1.87002e-05
1.86977e-05
1.86957e-05
1.86939e-05
1.86923e-05
1.86908e-05
1.86893e-05
1.86878e-05
1.86864e-05
1.8685e-05
1.86836e-05
1.86822e-05
1.86808e-05
1.86792e-05
1.86776e-05
1.86762e-05
1.86749e-05
1.86736e-05
1.86724e-05
1.86712e-05
1.86699e-05
1.86687e-05
1.86672e-05
1.86657e-05
1.86642e-05
1.86629e-05
1.86616e-05
1.86604e-05
1.86592e-05
1.86581e-05
1.8657e-05
1.86558e-05
1.86548e-05
1.86537e-05
1.86526e-05
1.86516e-05
1.86506e-05
1.86495e-05
1.86485e-05
1.86476e-05
1.86467e-05
1.86457e-05
1.86448e-05
1.86439e-05
1.8643e-05
1.86422e-05
1.86413e-05
1.86404e-05
1.86395e-05
1.86387e-05
1.8638e-05
1.86372e-05
1.86365e-05
1.86358e-05
1.8635e-05
1.86343e-05
1.86337e-05
1.8633e-05
1.86324e-05
1.86317e-05
1.86311e-05
1.86305e-05
1.86299e-05
1.86293e-05
1.86288e-05
1.86282e-05
1.86277e-05
1.86272e-05
1.86267e-05
1.86262e-05
1.86258e-05
1.86254e-05
1.8625e-05
1.86246e-05
1.86242e-05
1.86238e-05
1.86235e-05
1.86232e-05
1.86229e-05
1.86226e-05
1.86223e-05
1.8622e-05
1.86218e-05
1.86216e-05
1.86213e-05
1.86211e-05
1.8621e-05
1.86208e-05
1.86206e-05
1.86205e-05
1.86204e-05
1.86203e-05
1.86202e-05
1.86201e-05
1.86201e-05
1.862e-05
1.862e-05
1.862e-05
2.07329e-05
2.07191e-05
2.07057e-05
2.0692e-05
2.06781e-05
2.06644e-05
2.06506e-05
2.0637e-05
2.06237e-05
2.06101e-05
2.05963e-05
2.05828e-05
2.05696e-05
2.05562e-05
2.05427e-05
2.05296e-05
2.05168e-05
2.05035e-05
2.04901e-05
2.04768e-05
2.04639e-05
2.04512e-05
2.04386e-05
2.04259e-05
2.04134e-05
2.04012e-05
2.03886e-05
2.03759e-05
2.03635e-05
2.03514e-05
2.03393e-05
2.03272e-05
2.03148e-05
2.03022e-05
2.02902e-05
2.02783e-05
2.02663e-05
2.02549e-05
2.0244e-05
2.02323e-05
2.02203e-05
2.02086e-05
2.01968e-05
2.01854e-05
2.01743e-05
2.01626e-05
2.01513e-05
2.01405e-05
2.01294e-05
2.01177e-05
2.01061e-05
2.0095e-05
2.00843e-05
2.00733e-05
2.00624e-05
2.0052e-05
2.00412e-05
2.00305e-05
2.00199e-05
2.00094e-05
1.99988e-05
1.99881e-05
1.99776e-05
1.99674e-05
1.99573e-05
1.99468e-05
1.99365e-05
1.99264e-05
1.99163e-05
1.99065e-05
1.98966e-05
1.98867e-05
1.98771e-05
1.98676e-05
1.98581e-05
1.98483e-05
1.98386e-05
1.98291e-05
1.98196e-05
1.98101e-05
1.98005e-05
1.97909e-05
1.97815e-05
1.97723e-05
1.97631e-05
1.97536e-05
1.97444e-05
1.97356e-05
1.97267e-05
1.97177e-05
1.97087e-05
1.96998e-05
1.96908e-05
1.96817e-05
1.96731e-05
1.96647e-05
1.96562e-05
1.96478e-05
1.96392e-05
1.96308e-05
1.96225e-05
1.96141e-05
1.96061e-05
1.9598e-05
1.95898e-05
1.95818e-05
1.95739e-05
1.95658e-05
1.95577e-05
1.95496e-05
1.95415e-05
1.95337e-05
1.95261e-05
1.95185e-05
1.9511e-05
1.95035e-05
1.9496e-05
1.94885e-05
1.94809e-05
1.94732e-05
1.94655e-05
1.94581e-05
1.94508e-05
1.94435e-05
1.94362e-05
1.94289e-05
1.94215e-05
1.94144e-05
1.94073e-05
1.94002e-05
1.93932e-05
1.93864e-05
1.93795e-05
1.93723e-05
1.93652e-05
1.93587e-05
1.93521e-05
1.93454e-05
1.93391e-05
1.93328e-05
1.93264e-05
1.93197e-05
1.93132e-05
1.93068e-05
1.93001e-05
1.92937e-05
1.92874e-05
1.92811e-05
1.92749e-05
1.9269e-05
1.92629e-05
1.92567e-05
1.92509e-05
1.92449e-05
1.92389e-05
1.92328e-05
1.92269e-05
1.92209e-05
1.9215e-05
1.92092e-05
1.92033e-05
1.91975e-05
1.91917e-05
1.91858e-05
1.91802e-05
1.91746e-05
1.9169e-05
1.91635e-05
1.91582e-05
1.91528e-05
1.91473e-05
1.91419e-05
1.91367e-05
1.91315e-05
1.91262e-05
1.91212e-05
1.91162e-05
1.91111e-05
1.91061e-05
1.9101e-05
1.90961e-05
1.90912e-05
1.90863e-05
1.90816e-05
1.90768e-05
1.90719e-05
1.9067e-05
1.9062e-05
1.9057e-05
1.90517e-05
1.9046e-05
1.90402e-05
1.90345e-05
1.90293e-05
1.90246e-05
1.90204e-05
1.90162e-05
1.90116e-05
1.90064e-05
1.90011e-05
1.89962e-05
1.89917e-05
1.89875e-05
1.89836e-05
1.89798e-05
1.89758e-05
1.89716e-05
1.89673e-05
1.89632e-05
1.89592e-05
1.89553e-05
1.89514e-05
1.89476e-05
1.89438e-05
1.89401e-05
1.89363e-05
1.89327e-05
1.8929e-05
1.89253e-05
1.89214e-05
1.89177e-05
1.89142e-05
1.89108e-05
1.89074e-05
1.8904e-05
1.89006e-05
1.8897e-05
1.88936e-05
1.88902e-05
1.88868e-05
1.88835e-05
1.88802e-05
1.88769e-05
1.88734e-05
1.887e-05
1.88669e-05
1.88637e-05
1.88605e-05
1.88574e-05
1.88544e-05
1.88514e-05
1.88484e-05
1.88455e-05
1.88426e-05
1.88398e-05
1.8837e-05
1.88342e-05
1.8831e-05
1.88271e-05
1.88224e-05
1.88183e-05
1.8815e-05
1.88121e-05
1.88094e-05
1.88068e-05
1.88043e-05
1.88017e-05
1.87993e-05
1.87969e-05
1.87941e-05
1.8791e-05
1.87883e-05
1.87858e-05
1.87834e-05
1.8781e-05
1.87785e-05
1.8776e-05
1.87736e-05
1.87713e-05
1.87687e-05
1.87661e-05
1.87637e-05
1.87613e-05
1.87589e-05
1.87567e-05
1.87546e-05
1.87525e-05
1.87502e-05
1.87479e-05
1.87457e-05
1.87435e-05
1.87413e-05
1.87392e-05
1.8737e-05
1.87348e-05
1.87326e-05
1.87306e-05
1.87286e-05
1.87267e-05
1.87248e-05
1.87229e-05
1.87211e-05
1.87193e-05
1.87175e-05
1.87156e-05
1.87137e-05
1.87118e-05
1.871e-05
1.87083e-05
1.87067e-05
1.87049e-05
1.87024e-05
1.86998e-05
1.86976e-05
1.86957e-05
1.8694e-05
1.86924e-05
1.86909e-05
1.86894e-05
1.86879e-05
1.86865e-05
1.86851e-05
1.86836e-05
1.86822e-05
1.86807e-05
1.86791e-05
1.86776e-05
1.86762e-05
1.86749e-05
1.86737e-05
1.86724e-05
1.86712e-05
1.86699e-05
1.86686e-05
1.86671e-05
1.86656e-05
1.86642e-05
1.86629e-05
1.86617e-05
1.86604e-05
1.86593e-05
1.86581e-05
1.8657e-05
1.86559e-05
1.86548e-05
1.86537e-05
1.86526e-05
1.86516e-05
1.86506e-05
1.86495e-05
1.86486e-05
1.86476e-05
1.86467e-05
1.86457e-05
1.86448e-05
1.86439e-05
1.8643e-05
1.86421e-05
1.86412e-05
1.86404e-05
1.86396e-05
1.86388e-05
1.8638e-05
1.86372e-05
1.86365e-05
1.86358e-05
1.8635e-05
1.86343e-05
1.86337e-05
1.8633e-05
1.86324e-05
1.86317e-05
1.86311e-05
1.86305e-05
1.86299e-05
1.86293e-05
1.86287e-05
1.86282e-05
1.86277e-05
1.86272e-05
1.86267e-05
1.86262e-05
1.86258e-05
1.86254e-05
1.8625e-05
1.86246e-05
1.86242e-05
1.86238e-05
1.86235e-05
1.86232e-05
1.86229e-05
1.86226e-05
1.86223e-05
1.8622e-05
1.86218e-05
1.86216e-05
1.86213e-05
1.86211e-05
1.8621e-05
1.86208e-05
1.86206e-05
1.86205e-05
1.86204e-05
1.86203e-05
1.86202e-05
1.86201e-05
1.86201e-05
1.862e-05
1.862e-05
1.862e-05
2.07331e-05
2.07194e-05
2.07057e-05
2.06919e-05
2.06781e-05
2.06643e-05
2.06508e-05
2.0637e-05
2.06235e-05
2.06101e-05
2.05963e-05
2.05827e-05
2.05697e-05
2.05566e-05
2.0543e-05
2.05297e-05
2.05166e-05
2.05031e-05
2.04899e-05
2.04768e-05
2.04638e-05
2.0451e-05
2.04383e-05
2.04258e-05
2.04134e-05
2.04011e-05
2.03888e-05
2.03763e-05
2.03637e-05
2.03512e-05
2.03393e-05
2.03272e-05
2.03148e-05
2.03022e-05
2.029e-05
2.02783e-05
2.02665e-05
2.0255e-05
2.02438e-05
2.02322e-05
2.02204e-05
2.02086e-05
2.0197e-05
2.01857e-05
2.01742e-05
2.01625e-05
2.01514e-05
2.01405e-05
2.01294e-05
2.01177e-05
2.0106e-05
2.00949e-05
2.00842e-05
2.00734e-05
2.00626e-05
2.00521e-05
2.00414e-05
2.00307e-05
2.00198e-05
2.00091e-05
1.99988e-05
1.99883e-05
1.99777e-05
1.99673e-05
1.99572e-05
1.99467e-05
1.99362e-05
1.99261e-05
1.99163e-05
1.99064e-05
1.98966e-05
1.9887e-05
1.98771e-05
1.98676e-05
1.98581e-05
1.98484e-05
1.98387e-05
1.98291e-05
1.98194e-05
1.98099e-05
1.98005e-05
1.9791e-05
1.97814e-05
1.97722e-05
1.97631e-05
1.97538e-05
1.97447e-05
1.97355e-05
1.97264e-05
1.97176e-05
1.97086e-05
1.96996e-05
1.96908e-05
1.96819e-05
1.96732e-05
1.96648e-05
1.96564e-05
1.96479e-05
1.96393e-05
1.96308e-05
1.96224e-05
1.96141e-05
1.96059e-05
1.95979e-05
1.95899e-05
1.95818e-05
1.95737e-05
1.95657e-05
1.95577e-05
1.95497e-05
1.95417e-05
1.95339e-05
1.95261e-05
1.95186e-05
1.9511e-05
1.95035e-05
1.9496e-05
1.94885e-05
1.94808e-05
1.9473e-05
1.94655e-05
1.94581e-05
1.94508e-05
1.94434e-05
1.94362e-05
1.94288e-05
1.94216e-05
1.94144e-05
1.94073e-05
1.94003e-05
1.93934e-05
1.93864e-05
1.93792e-05
1.93721e-05
1.93652e-05
1.93586e-05
1.93521e-05
1.93456e-05
1.93392e-05
1.93328e-05
1.93264e-05
1.93197e-05
1.93131e-05
1.93067e-05
1.93002e-05
1.92937e-05
1.92874e-05
1.92812e-05
1.9275e-05
1.9269e-05
1.92629e-05
1.92568e-05
1.92509e-05
1.92449e-05
1.92387e-05
1.92327e-05
1.92269e-05
1.92209e-05
1.9215e-05
1.92091e-05
1.92034e-05
1.91976e-05
1.91917e-05
1.91859e-05
1.91802e-05
1.91745e-05
1.91689e-05
1.91634e-05
1.91581e-05
1.91527e-05
1.91472e-05
1.91419e-05
1.91366e-05
1.91314e-05
1.91263e-05
1.91213e-05
1.91162e-05
1.91111e-05
1.91061e-05
1.91012e-05
1.90962e-05
1.90914e-05
1.90866e-05
1.90818e-05
1.90769e-05
1.90721e-05
1.90672e-05
1.90622e-05
1.90571e-05
1.90516e-05
1.90454e-05
1.90389e-05
1.90336e-05
1.90289e-05
1.90245e-05
1.90202e-05
1.90157e-05
1.9011e-05
1.90061e-05
1.90012e-05
1.89965e-05
1.8992e-05
1.89878e-05
1.89838e-05
1.89798e-05
1.89757e-05
1.89715e-05
1.89673e-05
1.89633e-05
1.89593e-05
1.89554e-05
1.89515e-05
1.89477e-05
1.89439e-05
1.89401e-05
1.89364e-05
1.89327e-05
1.8929e-05
1.89252e-05
1.89215e-05
1.89179e-05
1.89144e-05
1.89109e-05
1.89075e-05
1.8904e-05
1.89005e-05
1.8897e-05
1.88936e-05
1.88902e-05
1.88868e-05
1.88835e-05
1.88802e-05
1.88768e-05
1.88734e-05
1.88701e-05
1.88668e-05
1.88637e-05
1.88605e-05
1.88575e-05
1.88545e-05
1.88514e-05
1.88484e-05
1.88455e-05
1.88426e-05
1.88398e-05
1.8837e-05
1.88341e-05
1.88306e-05
1.88259e-05
1.88216e-05
1.88181e-05
1.88151e-05
1.88123e-05
1.88096e-05
1.8807e-05
1.88044e-05
1.88019e-05
1.87993e-05
1.87967e-05
1.87939e-05
1.87911e-05
1.87885e-05
1.8786e-05
1.87835e-05
1.8781e-05
1.87785e-05
1.8776e-05
1.87736e-05
1.87712e-05
1.87686e-05
1.87661e-05
1.87637e-05
1.87613e-05
1.8759e-05
1.87567e-05
1.87546e-05
1.87525e-05
1.87502e-05
1.87479e-05
1.87457e-05
1.87435e-05
1.87413e-05
1.87391e-05
1.87369e-05
1.87347e-05
1.87327e-05
1.87307e-05
1.87287e-05
1.87268e-05
1.87248e-05
1.8723e-05
1.87211e-05
1.87193e-05
1.87175e-05
1.87157e-05
1.87137e-05
1.87117e-05
1.87099e-05
1.87081e-05
1.87063e-05
1.87043e-05
1.8702e-05
1.86997e-05
1.86977e-05
1.86959e-05
1.86942e-05
1.86926e-05
1.8691e-05
1.86895e-05
1.8688e-05
1.86866e-05
1.86851e-05
1.86836e-05
1.86822e-05
1.86807e-05
1.86791e-05
1.86777e-05
1.86763e-05
1.8675e-05
1.86737e-05
1.86724e-05
1.86712e-05
1.86699e-05
1.86684e-05
1.8667e-05
1.86655e-05
1.86642e-05
1.8663e-05
1.86617e-05
1.86605e-05
1.86593e-05
1.86581e-05
1.8657e-05
1.86559e-05
1.86548e-05
1.86537e-05
1.86526e-05
1.86516e-05
1.86506e-05
1.86496e-05
1.86486e-05
1.86476e-05
1.86467e-05
1.86457e-05
1.86448e-05
1.86439e-05
1.8643e-05
1.86421e-05
1.86412e-05
1.86404e-05
1.86396e-05
1.86388e-05
1.8638e-05
1.86372e-05
1.86365e-05
1.86358e-05
1.86351e-05
1.86344e-05
1.86337e-05
1.8633e-05
1.86324e-05
1.86318e-05
1.86311e-05
1.86305e-05
1.86299e-05
1.86293e-05
1.86287e-05
1.86282e-05
1.86277e-05
1.86272e-05
1.86267e-05
1.86262e-05
1.86258e-05
1.86254e-05
1.8625e-05
1.86246e-05
1.86242e-05
1.86238e-05
1.86235e-05
1.86232e-05
1.86229e-05
1.86226e-05
1.86223e-05
1.8622e-05
1.86218e-05
1.86216e-05
1.86213e-05
1.86211e-05
1.8621e-05
1.86208e-05
1.86206e-05
1.86205e-05
1.86204e-05
1.86203e-05
1.86202e-05
1.86201e-05
1.86201e-05
1.862e-05
1.862e-05
1.862e-05
2.07332e-05
2.07194e-05
2.07056e-05
2.06918e-05
2.06779e-05
2.06641e-05
2.06505e-05
2.06369e-05
2.06233e-05
2.06097e-05
2.05962e-05
2.0583e-05
2.05698e-05
2.05566e-05
2.05431e-05
2.05297e-05
2.05165e-05
2.05031e-05
2.04899e-05
2.04767e-05
2.04638e-05
2.0451e-05
2.04382e-05
2.0426e-05
2.04133e-05
2.04008e-05
2.03888e-05
2.03764e-05
2.03636e-05
2.03513e-05
2.03392e-05
2.03271e-05
2.03148e-05
2.03024e-05
2.02901e-05
2.02782e-05
2.02665e-05
2.02551e-05
2.02439e-05
2.02323e-05
2.02203e-05
2.02085e-05
2.0197e-05
2.01857e-05
2.01742e-05
2.01627e-05
2.01515e-05
2.01404e-05
2.01291e-05
2.01177e-05
2.01063e-05
2.00949e-05
2.00841e-05
2.00735e-05
2.00626e-05
2.00519e-05
2.00413e-05
2.00307e-05
2.002e-05
2.00094e-05
1.99989e-05
1.99884e-05
1.99778e-05
1.99674e-05
1.99571e-05
1.99466e-05
1.99361e-05
1.9926e-05
1.99162e-05
1.99062e-05
1.98964e-05
1.9887e-05
1.98774e-05
1.98679e-05
1.98582e-05
1.98482e-05
1.98385e-05
1.98289e-05
1.98191e-05
1.98098e-05
1.98004e-05
1.97909e-05
1.97815e-05
1.97724e-05
1.97633e-05
1.97539e-05
1.97447e-05
1.97355e-05
1.97265e-05
1.97175e-05
1.97085e-05
1.96996e-05
1.96908e-05
1.9682e-05
1.96735e-05
1.9665e-05
1.96563e-05
1.96479e-05
1.96394e-05
1.96308e-05
1.96222e-05
1.96139e-05
1.96058e-05
1.95978e-05
1.95898e-05
1.95817e-05
1.95736e-05
1.95657e-05
1.95578e-05
1.95497e-05
1.95418e-05
1.95341e-05
1.95262e-05
1.95186e-05
1.9511e-05
1.95034e-05
1.9496e-05
1.94885e-05
1.94807e-05
1.9473e-05
1.94656e-05
1.94582e-05
1.94507e-05
1.94435e-05
1.94362e-05
1.94289e-05
1.94215e-05
1.94144e-05
1.94074e-05
1.94004e-05
1.93934e-05
1.93863e-05
1.93791e-05
1.9372e-05
1.93651e-05
1.93586e-05
1.93522e-05
1.93457e-05
1.93392e-05
1.93328e-05
1.93263e-05
1.93197e-05
1.93133e-05
1.93068e-05
1.93003e-05
1.92938e-05
1.92874e-05
1.92812e-05
1.92751e-05
1.9269e-05
1.92629e-05
1.92568e-05
1.92509e-05
1.92449e-05
1.92388e-05
1.92328e-05
1.92268e-05
1.92208e-05
1.9215e-05
1.92093e-05
1.92034e-05
1.91976e-05
1.91917e-05
1.91858e-05
1.91801e-05
1.91745e-05
1.91688e-05
1.91633e-05
1.91579e-05
1.91525e-05
1.91471e-05
1.91419e-05
1.91367e-05
1.91316e-05
1.91265e-05
1.91214e-05
1.91162e-05
1.91111e-05
1.91062e-05
1.91013e-05
1.90964e-05
1.90915e-05
1.90867e-05
1.9082e-05
1.90772e-05
1.90723e-05
1.90673e-05
1.90622e-05
1.90567e-05
1.90504e-05
1.90435e-05
1.90379e-05
1.90332e-05
1.90288e-05
1.90244e-05
1.90199e-05
1.90154e-05
1.90108e-05
1.90062e-05
1.90014e-05
1.89968e-05
1.89923e-05
1.8988e-05
1.89839e-05
1.89799e-05
1.89757e-05
1.89716e-05
1.89675e-05
1.89635e-05
1.89595e-05
1.89555e-05
1.89516e-05
1.89478e-05
1.89439e-05
1.89401e-05
1.89363e-05
1.89326e-05
1.89289e-05
1.89253e-05
1.89216e-05
1.8918e-05
1.89145e-05
1.89109e-05
1.89074e-05
1.89039e-05
1.89004e-05
1.8897e-05
1.88936e-05
1.88902e-05
1.88868e-05
1.88835e-05
1.88801e-05
1.88767e-05
1.88733e-05
1.887e-05
1.88668e-05
1.88636e-05
1.88605e-05
1.88575e-05
1.88545e-05
1.88514e-05
1.88484e-05
1.88455e-05
1.88426e-05
1.88398e-05
1.88368e-05
1.88336e-05
1.88296e-05
1.88251e-05
1.88214e-05
1.88182e-05
1.88153e-05
1.88126e-05
1.88098e-05
1.88072e-05
1.88046e-05
1.8802e-05
1.87993e-05
1.87966e-05
1.87939e-05
1.87912e-05
1.87886e-05
1.87861e-05
1.87836e-05
1.87811e-05
1.87785e-05
1.8776e-05
1.87736e-05
1.87711e-05
1.87686e-05
1.87661e-05
1.87636e-05
1.87612e-05
1.87589e-05
1.87568e-05
1.87546e-05
1.87524e-05
1.87502e-05
1.87479e-05
1.87456e-05
1.87434e-05
1.87412e-05
1.8739e-05
1.87369e-05
1.87348e-05
1.87328e-05
1.87307e-05
1.87288e-05
1.87268e-05
1.87249e-05
1.8723e-05
1.87212e-05
1.87194e-05
1.87176e-05
1.87157e-05
1.87136e-05
1.87116e-05
1.87096e-05
1.87077e-05
1.87058e-05
1.87038e-05
1.87018e-05
1.86997e-05
1.86978e-05
1.86961e-05
1.86944e-05
1.86927e-05
1.86912e-05
1.86896e-05
1.86881e-05
1.86866e-05
1.86851e-05
1.86836e-05
1.86821e-05
1.86806e-05
1.86792e-05
1.86777e-05
1.86764e-05
1.8675e-05
1.86737e-05
1.86724e-05
1.86711e-05
1.86697e-05
1.86683e-05
1.86669e-05
1.86655e-05
1.86642e-05
1.8663e-05
1.86618e-05
1.86606e-05
1.86593e-05
1.86582e-05
1.8657e-05
1.86559e-05
1.86548e-05
1.86537e-05
1.86526e-05
1.86516e-05
1.86506e-05
1.86496e-05
1.86486e-05
1.86476e-05
1.86467e-05
1.86458e-05
1.86448e-05
1.86439e-05
1.8643e-05
1.86421e-05
1.86412e-05
1.86404e-05
1.86396e-05
1.86388e-05
1.8638e-05
1.86373e-05
1.86365e-05
1.86358e-05
1.86351e-05
1.86344e-05
1.86337e-05
1.8633e-05
1.86324e-05
1.86317e-05
1.86311e-05
1.86305e-05
1.86299e-05
1.86293e-05
1.86287e-05
1.86282e-05
1.86276e-05
1.86272e-05
1.86267e-05
1.86262e-05
1.86258e-05
1.86254e-05
1.8625e-05
1.86246e-05
1.86242e-05
1.86239e-05
1.86235e-05
1.86232e-05
1.86229e-05
1.86226e-05
1.86223e-05
1.8622e-05
1.86218e-05
1.86216e-05
1.86213e-05
1.86211e-05
1.8621e-05
1.86208e-05
1.86206e-05
1.86205e-05
1.86204e-05
1.86203e-05
1.86202e-05
1.86201e-05
1.86201e-05
1.862e-05
1.862e-05
1.862e-05
2.07332e-05
2.07195e-05
2.07057e-05
2.06916e-05
2.06778e-05
2.06639e-05
2.06504e-05
2.06368e-05
2.06231e-05
2.06096e-05
2.05962e-05
2.05833e-05
2.05704e-05
2.05563e-05
2.05426e-05
2.05296e-05
2.05166e-05
2.05034e-05
2.04902e-05
2.04768e-05
2.04636e-05
2.04508e-05
2.04382e-05
2.04259e-05
2.04133e-05
2.0401e-05
2.0389e-05
2.03765e-05
2.0364e-05
2.03515e-05
2.03389e-05
2.03267e-05
2.03147e-05
2.03022e-05
2.02897e-05
2.02781e-05
2.02668e-05
2.02554e-05
2.02438e-05
2.02319e-05
2.02203e-05
2.02086e-05
2.01969e-05
2.01856e-05
2.01744e-05
2.0163e-05
2.01517e-05
2.01406e-05
2.01291e-05
2.01175e-05
2.01063e-05
2.00951e-05
2.00841e-05
2.00734e-05
2.00627e-05
2.00519e-05
2.00412e-05
2.00307e-05
2.00199e-05
2.00094e-05
1.99991e-05
1.99886e-05
1.9978e-05
1.99675e-05
1.99572e-05
1.99467e-05
1.99359e-05
1.99257e-05
1.99159e-05
1.99061e-05
1.98964e-05
1.9887e-05
1.98774e-05
1.98677e-05
1.98581e-05
1.98482e-05
1.98384e-05
1.98289e-05
1.98193e-05
1.98097e-05
1.98001e-05
1.97909e-05
1.97816e-05
1.97725e-05
1.97633e-05
1.9754e-05
1.97447e-05
1.97356e-05
1.97265e-05
1.97174e-05
1.97085e-05
1.96997e-05
1.96909e-05
1.96822e-05
1.96736e-05
1.96652e-05
1.96565e-05
1.96478e-05
1.96394e-05
1.96309e-05
1.9622e-05
1.96135e-05
1.96056e-05
1.95977e-05
1.95897e-05
1.95817e-05
1.95736e-05
1.95657e-05
1.95579e-05
1.95498e-05
1.95419e-05
1.95342e-05
1.95265e-05
1.95187e-05
1.95108e-05
1.95033e-05
1.9496e-05
1.94885e-05
1.94807e-05
1.94731e-05
1.94656e-05
1.94582e-05
1.94508e-05
1.94435e-05
1.94362e-05
1.94288e-05
1.94215e-05
1.94145e-05
1.94075e-05
1.94005e-05
1.93935e-05
1.93863e-05
1.9379e-05
1.93718e-05
1.93649e-05
1.93584e-05
1.9352e-05
1.93457e-05
1.93393e-05
1.93328e-05
1.93263e-05
1.93198e-05
1.93133e-05
1.93067e-05
1.93003e-05
1.92938e-05
1.92874e-05
1.92813e-05
1.92751e-05
1.9269e-05
1.92629e-05
1.92569e-05
1.92509e-05
1.92449e-05
1.92388e-05
1.92328e-05
1.92267e-05
1.92208e-05
1.92151e-05
1.92094e-05
1.92035e-05
1.91977e-05
1.91917e-05
1.91857e-05
1.918e-05
1.91744e-05
1.91686e-05
1.91629e-05
1.91576e-05
1.91523e-05
1.91471e-05
1.9142e-05
1.91368e-05
1.91317e-05
1.91266e-05
1.91214e-05
1.91163e-05
1.91113e-05
1.91063e-05
1.91014e-05
1.90965e-05
1.90917e-05
1.90869e-05
1.90822e-05
1.90774e-05
1.90725e-05
1.90672e-05
1.90615e-05
1.90551e-05
1.90482e-05
1.90424e-05
1.90376e-05
1.90331e-05
1.90288e-05
1.90243e-05
1.90198e-05
1.90153e-05
1.90109e-05
1.90063e-05
1.90017e-05
1.8997e-05
1.89924e-05
1.89881e-05
1.8984e-05
1.89799e-05
1.89758e-05
1.89717e-05
1.89676e-05
1.89636e-05
1.89596e-05
1.89557e-05
1.89518e-05
1.89479e-05
1.8944e-05
1.89401e-05
1.89364e-05
1.89327e-05
1.8929e-05
1.89253e-05
1.89217e-05
1.89181e-05
1.89145e-05
1.89109e-05
1.89074e-05
1.89039e-05
1.89004e-05
1.8897e-05
1.88936e-05
1.88902e-05
1.88869e-05
1.88835e-05
1.88801e-05
1.88767e-05
1.88733e-05
1.887e-05
1.88667e-05
1.88636e-05
1.88605e-05
1.88575e-05
1.88544e-05
1.88514e-05
1.88483e-05
1.88454e-05
1.88426e-05
1.88396e-05
1.88363e-05
1.88327e-05
1.88287e-05
1.88248e-05
1.88214e-05
1.88184e-05
1.88156e-05
1.88128e-05
1.88101e-05
1.88074e-05
1.88047e-05
1.8802e-05
1.87994e-05
1.87967e-05
1.8794e-05
1.87913e-05
1.87888e-05
1.87863e-05
1.87837e-05
1.87812e-05
1.87786e-05
1.8776e-05
1.87735e-05
1.8771e-05
1.87684e-05
1.87659e-05
1.87635e-05
1.87612e-05
1.8759e-05
1.87569e-05
1.87547e-05
1.87524e-05
1.87501e-05
1.87478e-05
1.87456e-05
1.87434e-05
1.87412e-05
1.87391e-05
1.8737e-05
1.87349e-05
1.87328e-05
1.87308e-05
1.87288e-05
1.87268e-05
1.87249e-05
1.87231e-05
1.87213e-05
1.87195e-05
1.87176e-05
1.87156e-05
1.87134e-05
1.87113e-05
1.87093e-05
1.87074e-05
1.87055e-05
1.87036e-05
1.87016e-05
1.86997e-05
1.86979e-05
1.86962e-05
1.86945e-05
1.86928e-05
1.86912e-05
1.86897e-05
1.86882e-05
1.86867e-05
1.86852e-05
1.86837e-05
1.86821e-05
1.86806e-05
1.86792e-05
1.86778e-05
1.86764e-05
1.86751e-05
1.86738e-05
1.86724e-05
1.8671e-05
1.86696e-05
1.86682e-05
1.86669e-05
1.86656e-05
1.86643e-05
1.8663e-05
1.86618e-05
1.86606e-05
1.86594e-05
1.86582e-05
1.8657e-05
1.86559e-05
1.86547e-05
1.86537e-05
1.86526e-05
1.86516e-05
1.86506e-05
1.86496e-05
1.86486e-05
1.86476e-05
1.86467e-05
1.86458e-05
1.86448e-05
1.86439e-05
1.8643e-05
1.86421e-05
1.86413e-05
1.86404e-05
1.86396e-05
1.86388e-05
1.8638e-05
1.86373e-05
1.86365e-05
1.86358e-05
1.86351e-05
1.86344e-05
1.86337e-05
1.8633e-05
1.86324e-05
1.86318e-05
1.86311e-05
1.86305e-05
1.86299e-05
1.86293e-05
1.86287e-05
1.86281e-05
1.86276e-05
1.86271e-05
1.86267e-05
1.86262e-05
1.86258e-05
1.86254e-05
1.8625e-05
1.86246e-05
1.86242e-05
1.86239e-05
1.86235e-05
1.86232e-05
1.86229e-05
1.86226e-05
1.86223e-05
1.8622e-05
1.86218e-05
1.86216e-05
1.86213e-05
1.86211e-05
1.8621e-05
1.86208e-05
1.86206e-05
1.86205e-05
1.86204e-05
1.86203e-05
1.86202e-05
1.86201e-05
1.86201e-05
1.862e-05
1.862e-05
1.862e-05
2.07333e-05
2.07198e-05
2.0706e-05
2.06917e-05
2.06778e-05
2.06639e-05
2.06501e-05
2.06365e-05
2.06231e-05
2.06099e-05
2.05964e-05
2.05833e-05
2.05701e-05
2.05563e-05
2.05428e-05
2.05293e-05
2.05162e-05
2.05033e-05
2.04904e-05
2.04772e-05
2.0464e-05
2.04509e-05
2.04381e-05
2.04258e-05
2.04135e-05
2.04009e-05
2.03887e-05
2.03765e-05
2.03642e-05
2.03518e-05
2.03389e-05
2.03266e-05
2.03144e-05
2.0302e-05
2.02898e-05
2.02781e-05
2.02668e-05
2.02553e-05
2.02437e-05
2.02319e-05
2.02202e-05
2.02086e-05
2.0197e-05
2.01858e-05
2.01744e-05
2.0163e-05
2.01517e-05
2.01405e-05
2.01293e-05
2.01177e-05
2.01061e-05
2.00951e-05
2.00843e-05
2.00733e-05
2.00626e-05
2.0052e-05
2.00412e-05
2.00305e-05
2.002e-05
2.00095e-05
1.99991e-05
1.99888e-05
1.99782e-05
1.99675e-05
1.99572e-05
1.99466e-05
1.99358e-05
1.99255e-05
1.99158e-05
1.99061e-05
1.98965e-05
1.9887e-05
1.98771e-05
1.98674e-05
1.9858e-05
1.98482e-05
1.98384e-05
1.98287e-05
1.98192e-05
1.98098e-05
1.98003e-05
1.97909e-05
1.97816e-05
1.97725e-05
1.97633e-05
1.9754e-05
1.97449e-05
1.97357e-05
1.97265e-05
1.97173e-05
1.97085e-05
1.96999e-05
1.9691e-05
1.96822e-05
1.96737e-05
1.96651e-05
1.96564e-05
1.9648e-05
1.96393e-05
1.96306e-05
1.9622e-05
1.96136e-05
1.96056e-05
1.95975e-05
1.95895e-05
1.95816e-05
1.95737e-05
1.95659e-05
1.9558e-05
1.95499e-05
1.95418e-05
1.95341e-05
1.95265e-05
1.95187e-05
1.9511e-05
1.95034e-05
1.94959e-05
1.94885e-05
1.94808e-05
1.94731e-05
1.94656e-05
1.94581e-05
1.94508e-05
1.94435e-05
1.94362e-05
1.94288e-05
1.94217e-05
1.94146e-05
1.94075e-05
1.94005e-05
1.93934e-05
1.93861e-05
1.93788e-05
1.93717e-05
1.9365e-05
1.93584e-05
1.93519e-05
1.93455e-05
1.93392e-05
1.93328e-05
1.93264e-05
1.93199e-05
1.93134e-05
1.93068e-05
1.93003e-05
1.92939e-05
1.92876e-05
1.92813e-05
1.92751e-05
1.9269e-05
1.9263e-05
1.92569e-05
1.92509e-05
1.92448e-05
1.92387e-05
1.92327e-05
1.92268e-05
1.9221e-05
1.92152e-05
1.92094e-05
1.92035e-05
1.91975e-05
1.91917e-05
1.91858e-05
1.91799e-05
1.91742e-05
1.91683e-05
1.91627e-05
1.91574e-05
1.91523e-05
1.91471e-05
1.9142e-05
1.91369e-05
1.91318e-05
1.91266e-05
1.91215e-05
1.91165e-05
1.91114e-05
1.91064e-05
1.91015e-05
1.90966e-05
1.90918e-05
1.90872e-05
1.90826e-05
1.90778e-05
1.90724e-05
1.90663e-05
1.90597e-05
1.90528e-05
1.9047e-05
1.90421e-05
1.90375e-05
1.90331e-05
1.90288e-05
1.90243e-05
1.90199e-05
1.90154e-05
1.9011e-05
1.90065e-05
1.90018e-05
1.89971e-05
1.89925e-05
1.89882e-05
1.89841e-05
1.898e-05
1.89759e-05
1.89718e-05
1.89678e-05
1.89638e-05
1.89598e-05
1.89558e-05
1.89519e-05
1.8948e-05
1.89441e-05
1.89402e-05
1.89364e-05
1.89327e-05
1.89291e-05
1.89254e-05
1.89217e-05
1.89181e-05
1.89145e-05
1.8911e-05
1.89074e-05
1.89039e-05
1.89005e-05
1.8897e-05
1.88936e-05
1.88903e-05
1.88869e-05
1.88835e-05
1.88801e-05
1.88767e-05
1.88733e-05
1.88699e-05
1.88666e-05
1.88635e-05
1.88605e-05
1.88575e-05
1.88544e-05
1.88512e-05
1.88482e-05
1.88453e-05
1.88424e-05
1.88392e-05
1.88355e-05
1.88319e-05
1.88283e-05
1.88248e-05
1.88216e-05
1.88186e-05
1.88158e-05
1.8813e-05
1.88103e-05
1.88076e-05
1.88048e-05
1.88021e-05
1.87994e-05
1.87967e-05
1.87941e-05
1.87915e-05
1.87889e-05
1.87864e-05
1.87838e-05
1.87812e-05
1.87786e-05
1.8776e-05
1.87734e-05
1.87708e-05
1.87683e-05
1.87659e-05
1.87636e-05
1.87613e-05
1.87591e-05
1.87569e-05
1.87546e-05
1.87523e-05
1.875e-05
1.87478e-05
1.87456e-05
1.87434e-05
1.87413e-05
1.87391e-05
1.8737e-05
1.87349e-05
1.87329e-05
1.87308e-05
1.87288e-05
1.87269e-05
1.8725e-05
1.87231e-05
1.87214e-05
1.87196e-05
1.87176e-05
1.87152e-05
1.8713e-05
1.8711e-05
1.87091e-05
1.87073e-05
1.87054e-05
1.87035e-05
1.87016e-05
1.86997e-05
1.8698e-05
1.86962e-05
1.86945e-05
1.86929e-05
1.86913e-05
1.86898e-05
1.86883e-05
1.86868e-05
1.86852e-05
1.86837e-05
1.86821e-05
1.86806e-05
1.86792e-05
1.86778e-05
1.86764e-05
1.86751e-05
1.86737e-05
1.86724e-05
1.8671e-05
1.86696e-05
1.86682e-05
1.86669e-05
1.86656e-05
1.86643e-05
1.86631e-05
1.86618e-05
1.86606e-05
1.86594e-05
1.86582e-05
1.8657e-05
1.86559e-05
1.86547e-05
1.86536e-05
1.86526e-05
1.86516e-05
1.86505e-05
1.86496e-05
1.86486e-05
1.86476e-05
1.86467e-05
1.86458e-05
1.86448e-05
1.86439e-05
1.8643e-05
1.86421e-05
1.86413e-05
1.86405e-05
1.86396e-05
1.86388e-05
1.86381e-05
1.86373e-05
1.86365e-05
1.86358e-05
1.86351e-05
1.86344e-05
1.86337e-05
1.8633e-05
1.86324e-05
1.86318e-05
1.86311e-05
1.86305e-05
1.86299e-05
1.86293e-05
1.86287e-05
1.86281e-05
1.86276e-05
1.86271e-05
1.86267e-05
1.86262e-05
1.86258e-05
1.86254e-05
1.8625e-05
1.86246e-05
1.86242e-05
1.86239e-05
1.86235e-05
1.86232e-05
1.86229e-05
1.86226e-05
1.86223e-05
1.8622e-05
1.86218e-05
1.86216e-05
1.86213e-05
1.86211e-05
1.8621e-05
1.86208e-05
1.86206e-05
1.86205e-05
1.86204e-05
1.86203e-05
1.86202e-05
1.86201e-05
1.86201e-05
1.862e-05
1.862e-05
1.862e-05
2.07333e-05
2.07198e-05
2.07061e-05
2.0692e-05
2.06781e-05
2.0664e-05
2.065e-05
2.06363e-05
2.06229e-05
2.06096e-05
2.05964e-05
2.05833e-05
2.05698e-05
2.0556e-05
2.05426e-05
2.05293e-05
2.05163e-05
2.05033e-05
2.04904e-05
2.04775e-05
2.04641e-05
2.04509e-05
2.04383e-05
2.0426e-05
2.04137e-05
2.04009e-05
2.03886e-05
2.03763e-05
2.0364e-05
2.03517e-05
2.0339e-05
2.03264e-05
2.03142e-05
2.0302e-05
2.029e-05
2.02784e-05
2.02667e-05
2.02551e-05
2.02435e-05
2.02321e-05
2.02204e-05
2.02086e-05
2.01971e-05
2.01858e-05
2.01744e-05
2.01629e-05
2.01517e-05
2.01405e-05
2.01292e-05
2.01178e-05
2.01063e-05
2.00952e-05
2.00844e-05
2.00734e-05
2.00625e-05
2.0052e-05
2.00413e-05
2.00306e-05
2.00201e-05
2.00096e-05
1.99992e-05
1.99889e-05
1.99784e-05
1.99673e-05
1.99567e-05