/*--------------------------------*- C++ -*----------------------------------*\
  =========                 |
  \\      /  F ield         | OpenFOAM: The Open Source CFD Toolbox
   \\    /   O peration     | Website:  https://openfoam.org
    \\  /    A nd           | Version:  7
     \\/     M anipulation  |
\*---------------------------------------------------------------------------*/
FoamFile
{
    version     2.0;
    format      ascii;
    class       volScalarField;
    location    "2500";
    object      muTotal;
}
// * * * * * * * * * * * * * * * * * * * * * * * * * * * * * * * * * * * * * //

dimensions      [1 -1 -1 0 0 0 0];

internalField   nonuniform List<scalar> 
160000
(
0.000183771
0.000184202
0.000152911
0.000158535
0.000150973
0.000148366
0.000172681
0.000205354
0.00017707
0.00017493
0.00017078
0.000165062
0.000160352
0.000186297
0.000181423
0.000169143
0.000169723
0.000181742
0.000209208
0.000209995
0.000165685
0.000165095
0.000190458
0.000187748
0.000154341
0.000154934
0.000204182
0.000205007
0.000205835
0.000206669
0.000207485
0.000165269
0.000165975
0.000166691
0.000167377
0.00016996
0.000223304
0.00022426
0.000225198
0.000226145
0.000161325
0.00016203
0.000173641
0.000226763
0.000227752
0.000228786
0.000229813
0.000180989
0.00018179
0.000182616
0.000183439
0.000238917
0.000240016
0.000241107
0.000242201
0.000243294
0.000213915
0.000204914
0.000205808
0.000221046
0.000222091
0.000223133
0.000224145
0.000225136
0.000226125
0.000216771
0.00020383
0.000204769
0.000205683
0.000236111
0.000238245
0.000239318
0.000240381
0.000241433
0.000242496
0.000243567
0.000244659
0.000245731
0.000246823
0.000247909
0.000249006
0.000244219
0.000240778
0.000241816
0.00024637
0.000247443
0.000242893
0.000238687
0.000239681
0.000237115
0.000238118
0.000256561
0.000257704
0.000258814
0.000259921
0.000260966
0.000264731
0.000265817
0.000266914
0.000267987
0.000269081
0.00026764
0.000266329
0.000267406
0.000273959
0.000260758
0.000261774
0.000283088
0.000284239
0.000285354
0.000286519
0.000287597
0.000288702
0.00028978
0.000281391
0.000272572
0.00027358
0.000304126
0.00030528
0.000306471
0.000307621
0.000308748
0.000310102
0.000311239
0.000312375
0.000313528
0.000278317
0.000269112
0.000270064
0.000270993
0.000271954
0.00027286
0.000325997
0.000327156
0.000323903
0.000281682
0.000282618
0.00028352
0.000284452
0.000285324
0.000305871
0.0002936
0.000294544
0.00032288
0.000323925
0.00032503
0.000326018
0.000327104
0.000328066
0.000321656
0.000320971
0.000321095
0.000319479
0.000315777
0.000316732
0.000336409
0.000337437
0.000338436
0.000327072
0.000314444
0.000315357
0.000316262
0.000299184
0.000300058
0.000300907
0.00033971
0.000340673
0.000341611
0.000342521
0.000343442
0.000344343
0.000345328
0.00031642
0.000326504
0.000326993
0.000327808
0.000349138
0.000339217
0.000340084
0.000340971
0.000341799
0.000350932
0.000351779
0.00035316
0.000375109
0.000388481
0.000366873
0.000342246
0.000343109
0.000366045
0.000338479
0.000291022
0.000281148
0.000279942
0.000280665
0.000281372
0.00036304
0.000273661
0.000255636
0.000256245
0.000256971
0.000257501
0.000258092
0.000293746
0.000384868
0.000385837
0.000377227
0.000340406
0.000341092
0.000341794
0.000342429
0.000343122
0.000343763
0.000345806
0.000353523
0.000354183
0.000354826
0.000379707
0.000380391
0.000371362
0.000348519
0.000349172
0.000349751
0.000381945
0.000435388
0.000437985
0.000438709
0.0004395
0.000383735
0.000363328
0.000363892
0.000413515
0.000432259
0.000432966
0.000428455
0.000380668
0.000356803
0.000361444
0.000361975
0.000372964
0.000373533
0.000391451
0.000433186
0.000439678
0.000436846
0.00043677
0.000437419
0.000438065
0.000372601
0.000199553
0.000195045
0.000195342
0.000195812
0.000234872
0.00030807
0.000356362
0.000356783
0.000357229
0.000411537
0.00033534
0.000335907
0.000336362
0.000336815
0.000340035
0.000430449
0.000430937
0.000416041
0.000416533
0.00046276
0.000463361
0.000459736
0.000355051
0.000355385
0.000355863
0.000356224
0.000397053
0.000477864
0.000478463
0.000478913
0.000388726
0.000373953
0.000397834
0.000398244
0.000396973
0.000357394
0.000357884
0.000358147
0.000358572
0.000371474
0.000418659
0.000419133
0.000419504
0.000502731
0.000505311
0.000505795
0.00050628
0.000449562
0.000449964
0.000485312
0.000438638
0.000257693
0.000152613
0.000152203
0.000152963
0.000152673
0.000153222
0.00015342
0.000177891
0.000206373
0.000272729
0.000351525
0.000382545
0.000436086
0.00043812
0.000408472
0.000348786
0.00034892
0.000349282
0.000349469
0.000402251
0.000440116
0.000460169
0.000512117
0.000512445
0.00046985
0.000354055
0.000354553
0.000354616
0.000355063
0.000355104
0.000355478
0.000355648
0.000355929
0.000356066
0.000356313
0.000356507
0.000356741
0.000428233
0.000375373
0.000290807
0.000290968
0.000291094
0.000291223
0.000291352
0.000521167
0.000540083
0.000540456
0.000540518
0.000410501
0.000383784
0.000384101
0.000384191
0.000421071
0.000467092
0.00046734
0.000467428
0.000467671
0.000435416
0.000429545
0.000429682
0.000429813
0.000453739
0.000473934
0.000474072
0.000474414
0.000474361
0.00047465
0.000474633
0.00047503
0.000413941
0.000407962
0.000407932
0.000408118
0.000408155
0.000408284
0.000408329
0.000408446
0.000437803
0.000446776
0.000464833
0.000464905
0.000464974
0.000470678
0.000470727
0.000470774
0.000470819
0.000437647
0.000435381
0.000435418
0.000440219
0.000437502
0.000419276
0.000412079
0.000337792
0.000299106
0.000228755
0.000159366
0.000159449
0.000159462
0.000159487
0.000162586
0.000163011
0.000200155
0.000150491
0.000150876
0.000154157
0.000170544
0.000171028
0.000172715
0.000173364
0.000174848
0.000179592
0.000187017
0.000187641
0.000188284
0.00018458
0.000169711
0.000184011
0.000184696
0.000164252
0.000164852
0.000189752
0.000190468
0.000191202
0.000169964
0.000203332
0.000204154
0.000204995
0.000205832
0.000206661
0.00019212
0.000169359
0.000166398
0.000166688
0.000167379
0.000222329
0.000223306
0.000203076
0.000225163
0.000191508
0.000161341
0.000162032
0.000171422
0.000225045
0.000227742
0.000228791
0.000229824
0.000202425
0.000186635
0.000182619
0.00018346
0.000229749
0.000226595
0.000221664
0.000222677
0.000243271
0.000235446
0.000216029
0.000220081
0.000221079
0.000222084
0.000223122
0.000224132
0.000225136
0.000226134
0.00021687
0.000228425
0.000234027
0.000235083
0.000236116
0.000215003
0.000213609
0.000214531
0.000232847
0.000223512
0.000224391
0.000225383
0.000226374
0.000244842
0.000248856
0.00024593
0.00023826
0.000244367
0.000245889
0.000246956
0.000244873
0.000242896
0.000252257
0.000253325
0.000254414
0.000255497
0.000256599
0.000257692
0.00025883
0.000256642
0.000262363
0.00026343
0.000263989
0.00024254
0.00024304
0.000244013
0.000244999
0.00027135
0.000298157
0.000280042
0.000275076
0.000276143
0.000262988
0.00026313
0.000264181
0.000265212
0.000266236
0.000288476
0.000292284
0.000300748
0.000301874
0.000303
0.000304126
0.000305291
0.00030645
0.000307634
0.000282364
0.000280419
0.000281436
0.000282453
0.000288511
0.000280423
0.000284525
0.000285288
0.000271008
0.000271933
0.000280897
0.000326
0.000327188
0.000328341
0.000329435
0.000337729
0.000309104
0.000289383
0.000305697
0.000319716
0.00032078
0.000321855
0.000322871
0.000323983
0.000324986
0.000312353
0.000306362
0.000307321
0.000311815
0.000301467
0.000302396
0.00032029
0.000334404
0.000335414
0.000336448
0.000337439
0.000338461
0.000318641
0.000323878
0.000324826
0.000325773
0.000299193
0.000300058
0.000303101
0.0003397
0.000338439
0.000332706
0.000342529
0.000303225
0.000304065
0.000304862
0.000305675
0.000343847
0.000344768
0.000366464
0.000365681
0.000353286
0.000357723
0.000341425
0.000352
0.000338467
0.000339314
0.00036246
0.000395298
0.000396278
0.000378465
0.000354022
0.000403219
0.000404278
0.000405409
0.000267737
0.000215401
0.000261127
0.000293386
0.000362344
0.000363061
0.000363953
0.00025558
0.000256349
0.000256942
0.000271078
0.000289862
0.000326835
0.000385079
0.000385831
0.000382309
0.000340391
0.000341111
0.000342483
0.000346272
0.000345777
0.000358708
0.000390959
0.000394123
0.000383101
0.00039879
0.000363875
0.000347248
0.00034788
0.000348531
0.000349132
0.000369492
0.000422365
0.000437224
0.000437951
0.000438773
0.000439461
0.000440281
0.000440948
0.000441733
0.000442381
0.000443177
0.000357238
0.000357919
0.000371302
0.000356791
0.000357346
0.000357886
0.000358423
0.000358956
0.000398753
0.000451188
0.000451839
0.000452467
0.000496481
0.000497136
0.000364412
0.000193924
0.00019461
0.000194821
0.000195395
0.000280858
0.000331594
0.00034508
0.000355294
0.000355733
0.000411016
0.000411526
0.000335441
0.000335898
0.000336371
0.000350119
0.000414409
0.000430632
0.000415273
0.000415779
0.000462221
0.000462789
0.000463348
0.000359476
0.000354961
0.000355455
0.000355795
0.000356243
0.00044207
0.000477941
0.000478378
0.000453668
0.00035574
0.000373936
0.000397833
0.000388074
0.000357045
0.000357537
0.000357781
0.000358245
0.000358559
0.000365821
0.000377778
0.000395879
0.000476618
0.000502686
0.000470928
0.000471342
0.000604414
0.000609112
0.000544168
0.000611371
0.000611951
0.00027522
0.000152017
0.000152677
0.000152714
0.000173755
0.000224083
0.000273883
0.000322077
0.000362722
0.000398397
0.000424613
0.000437458
0.000437821
0.000438062
0.000429382
0.000348635
0.000349018
0.00034923
0.000389732
0.000448587
0.000485756
0.000511804
0.000512116
0.000512604
0.000505597
0.000354319
0.000354388
0.000354776
0.000354947
0.000355267
0.000379847
0.000427024
0.000412049
0.00040507
0.000404569
0.000372089
0.000377684
0.00043946
0.000439855
0.000380811
0.000394143
0.000417344
0.000344499
0.000414069
0.000539825
0.000540205
0.000540214
0.000383622
0.000383614
0.000383927
0.000384007
0.000384242
0.000428599
0.000467136
0.000467263
0.000467476
0.000467594
0.000467775
0.000467909
0.000468087
0.000468213
0.000473561
0.000473923
0.000474206
0.000474211
0.000474597
0.000473434
0.000409484
0.000409541
0.000409687
0.000422417
0.000426685
0.000423764
0.000412173
0.000424813
0.000424904
0.000455981
0.000456074
0.000456156
0.000464818
0.000463854
0.000463918
0.000470766
0.000459671
0.000459678
0.000470811
0.000437803
0.000439641
0.000480518
0.000480517
0.00046165
0.000461691
0.000461712
0.000389562
0.000381768
0.000326533
0.000169917
0.000159453
0.000159485
0.000159491
0.00016258
0.000175289
0.000200157
0.000200672
0.000197978
0.000169031
0.000183773
0.000184308
0.000177171
0.000182963
0.000183547
0.000184136
0.00018534
0.000187623
0.000188276
0.000188924
0.000189585
0.000167036
0.000168297
0.000181197
0.000181871
0.000182132
0.00018282
0.00018677
0.00020255
0.000203338
0.000204142
0.000204972
0.000205819
0.00020407
0.000195499
0.000194249
0.00018282
0.000166689
0.000167388
0.000206461
0.000212628
0.000196681
0.000197493
0.000199471
0.000210204
0.000210264
0.000202492
0.000210459
0.000187474
0.000183892
0.000194859
0.000204057
0.000204962
0.000205923
0.000202911
0.000203826
0.000215299
0.000231549
0.000239854
0.000243268
0.000243222
0.000211149
0.000205025
0.000205955
0.000214134
0.00022309
0.000224127
0.000189292
0.000202371
0.0002033
0.000204231
0.000205139
0.000211958
0.000236132
0.000237167
0.000237711
0.000214527
0.000215453
0.000243388
0.000244483
0.000245582
0.000246667
0.000247785
0.00024888
0.000251538
0.000228145
0.000225311
0.000226273
0.000246955
0.00024855
0.000258223
0.000236945
0.00023749
0.000240382
0.0002468
0.000244328
0.000245355
0.000245945
0.000246973
0.000256973
0.000263413
0.000264494
0.000261044
0.000256656
0.000284936
0.000292406
0.00027261
0.000298166
0.000302378
0.000260097
0.000255676
0.000256673
0.000280789
0.000281903
0.000283015
0.000284099
0.000285185
0.000281647
0.000288569
0.000289647
0.000299714
0.000295026
0.000265178
0.000257689
0.000258723
0.000283937
0.000286347
0.000287388
0.000284856
0.000285889
0.000292149
0.000296426
0.000297479
0.000298521
0.000312051
0.00031314
0.000314267
0.000314975
0.000316058
0.000317104
0.000337732
0.000338836
0.000310122
0.000302237
0.000319706
0.000291949
0.000292894
0.0003146
0.000321152
0.000322179
0.000323196
0.000308135
0.000307293
0.000308772
0.000317748
0.000318705
0.000321403
0.000322362
0.000306706
0.000307623
0.000337453
0.000313158
0.000302238
0.000303115
0.000315997
0.00034556
0.000346608
0.000347593
0.000327483
0.000317803
0.000318694
0.000332719
0.000371401
0.000321531
0.000304013
0.000304892
0.000305622
0.000306476
0.00030724
0.000371769
0.000372719
0.000373689
0.000374621
0.000375555
0.000353121
0.000321722
0.000345945
0.000374649
0.000376897
0.000396261
0.000401198
0.000402192
0.000403216
0.00040431
0.000199645
0.00015482
0.000195194
0.000283295
0.000333066
0.000362344
0.000363205
0.000364012
0.000352238
0.000297783
0.000298836
0.000319525
0.000358457
0.000383718
0.000368279
0.000340441
0.00033972
0.000340425
0.000343766
0.00035319
0.000354716
0.000361884
0.000391427
0.000400498
0.000401266
0.000402003
0.000402748
0.000403487
0.000348692
0.000347891
0.000362419
0.000411873
0.000435687
0.000436466
0.000437204
0.000438011
0.000438721
0.000439471
0.0004402
0.000441017
0.000441666
0.00044239
0.000383511
0.000317788
0.000377998
0.000413067
0.000368012
0.000358682
0.000402646
0.000419351
0.000419982
0.000420606
0.000421212
0.000450957
0.000495814
0.000496474
0.000497283
0.000209875
0.000194282
0.000194387
0.000194994
0.000263726
0.000331334
0.000360066
0.000361996
0.000371163
0.000395906
0.000411086
0.000411607
0.000388917
0.00033592
0.000339024
0.000395824
0.000430098
0.000430631
0.000431171
0.000446519
0.000462231
0.000461883
0.000360312
0.000359406
0.000427602
0.000430739
0.000431247
0.000428862
0.000465321
0.000477871
0.000478511
0.000398086
0.000355717
0.000356024
0.000356455
0.000356724
0.000357191
0.000357511
0.000376536
0.000412874
0.000427756
0.000432503
0.000432908
0.000432827
0.000431741
0.000440532
0.000539517
0.000609218
0.000609824
0.000610553
0.000611062
0.00061171
0.000611983
0.00041621
0.000152708
0.000152645
0.000211234
0.000301331
0.000395978
0.000453478
0.000427631
0.000390643
0.000403751
0.000436982
0.000437471
0.000437758
0.000437523
0.00035649
0.0003488
0.000349007
0.000415156
0.000472738
0.000481592
0.000511431
0.000511757
0.000512257
0.00051247
0.000358604
0.000354194
0.000354556
0.000374086
0.000378633
0.00036505
0.000401487
0.000441647
0.000441894
0.000442134
0.000445604
0.00043614
0.000459693
0.000521491
0.000533833
0.000534065
0.000534349
0.000484933
0.000474126
0.000504806
0.000505077
0.000465402
0.000406269
0.000383428
0.000383789
0.000383849
0.000403215
0.000444863
0.000460096
0.000460226
0.000446803
0.000446957
0.000467598
0.000464236
0.000440543
0.000440691
0.000442479
0.000473769
0.000473994
0.000474064
0.00047441
0.000447604
0.000463818
0.000490493
0.000469151
0.000503676
0.000558839
0.000558922
0.000559141
0.000499708
0.000391422
0.000390478
0.000390666
0.000390667
0.000421316
0.000464681
0.000454322
0.000468694
0.000477063
0.000477065
0.000476329
0.000470797
0.000480457
0.000480488
0.000480525
0.000441327
0.000440528
0.000461686
0.000461706
0.000455511
0.00042525
0.000311873
0.000177836
0.000159481
0.000159491
0.000159491
0.000168745
0.000174849
0.000187743
0.000188792
0.000184507
0.00018367
0.000183783
0.000184311
0.000173636
0.000167402
0.000167916
0.000169448
0.000172346
0.000186173
0.000188266
0.000174141
0.000168149
0.000167037
0.000174774
0.000179781
0.000182073
0.000182759
0.000183449
0.000186758
0.000185086
0.000185803
0.000203226
0.000200169
0.000167378
0.000165625
0.000195858
0.000203431
0.00020546
0.000207019
0.000208181
0.000209067
0.000195868
0.00019668
0.000220025
0.000220983
0.000216344
0.00020064
0.000198666
0.000199823
0.000188025
0.000183874
0.000184675
0.000185479
0.000194035
0.000205921
0.00020687
0.000207844
0.000205899
0.00020788
0.000194463
0.000195325
0.00019721
0.000206818
0.000218621
0.00022108
0.000222071
0.000223086
0.000190025
0.000186611
0.000206506
0.00022317
0.00023356
0.000261845
0.000263018
0.000230076
0.00022631
0.000227271
0.00024068
0.000259234
0.000223954
0.000205122
0.00020601
0.000206911
0.000207828
0.000223019
0.000251547
0.000252674
0.000253786
0.000254869
0.000255976
0.0002571
0.000258236
0.000259351
0.000237486
0.000227214
0.000228177
0.000245216
0.000246249
0.00024594
0.000256098
0.000257144
0.000212749
0.00022267
0.000260279
0.000261359
0.000253047
0.000314599
0.000315847
0.000308063
0.000313483
0.000301089
0.000272235
0.00025787
0.000267258
0.000262786
0.000263018
0.000284075
0.00026956
0.000260045
0.000286245
0.000298608
0.000299712
0.000300028
0.000260081
0.000257691
0.000258631
0.000253137
0.000254058
0.000254969
0.000290033
0.000291095
0.000292154
0.000289127
0.0002868
0.000291399
0.000285957
0.000296857
0.000299957
0.000339722
0.000371095
0.000372321
0.000364189
0.000298347
0.000278386
0.000279243
0.000280177
0.000281064
0.00031872
0.00032009
0.000321155
0.000322177
0.000323235
0.000320536
0.000323971
0.000325487
0.000303389
0.000293698
0.000294573
0.000303273
0.000325517
0.000339483
0.000340503
0.000341533
0.000342405
0.000343551
0.000344545
0.000345595
0.000346581
0.000347625
0.000298744
0.000318205
0.000377306
0.000407246
0.000408417
0.00040949
0.000410659
0.000378339
0.000379327
0.000380292
0.000329534
0.000327801
0.000328654
0.000329475
0.000351747
0.000374673
0.000320927
0.000321708
0.000332733
0.000376529
0.000390477
0.000400183
0.000401183
0.000402206
0.0004033
0.000199234
0.000139991
0.000154814
0.000276039
0.000327964
0.000325736
0.000324815
0.000363221
0.000364089
0.000364889
0.000365758
0.000353463
0.000346411
0.000360999
0.000400952
0.000407913
0.000402735
0.000357092
0.0003404
0.00034348
0.000343388
0.000344057
0.000374457
0.00039972
0.000400497
0.000401254
0.000402017
0.000402754
0.000403497
0.000386945
0.000389915
0.000427447
0.000434901
0.000435693
0.000436438
0.000435594
0.000373022
0.000373693
0.000380109
0.000402668
0.000424785
0.000441656
0.000408653
0.000324352
0.000317603
0.000420904
0.00046213
0.000462857
0.000463574
0.000461315
0.000393422
0.000377775
0.000378331
0.000435676
0.000494981
0.000495836
0.000496666
0.000494558
0.000193927
0.000194067
0.000194592
0.000238625
0.000311911
0.000345553
0.00034875
0.00036848
0.000397821
0.00041058
0.000411095
0.000411628
0.000402228
0.00037429
0.000394221
0.000429521
0.000430055
0.000430359
0.000378211
0.000369033
0.000462256
0.000462891
0.000463395
0.000464029
0.000401424
0.000397962
0.000398406
0.000410253
0.000477356
0.000477982
0.00047841
0.000478995
0.000383547
0.000356105
0.000356436
0.000356837
0.000374775
0.000390458
0.000390846
0.000391235
0.000403772
0.00042758
0.000409502
0.000409879
0.000410238
0.000513922
0.000608617
0.00060924
0.000609965
0.000610625
0.000445454
0.000497743
0.000589328
0.000575904
0.000465993
0.000386786
0.000413161
0.000463552
0.000488401
0.0004894
0.000489771
0.000463801
0.000430825
0.000404802
0.000405115
0.000436311
0.000463788
0.000436707
0.000382992
0.000360722
0.000360973
0.000388
0.000486819
0.000511389
0.000511893
0.000425392
0.000353943
0.000354109
0.000354375
0.000368102
0.000412394
0.000452808
0.000440221
0.000414632
0.000414016
0.0004386
0.000472593
0.000532715
0.000533068
0.00053327
0.000533642
0.000533806
0.000534169
0.000481388
0.000454939
0.000455148
0.000498592
0.00050503
0.000473888
0.000383395
0.000383646
0.00038374
0.000383939
0.000397851
0.000410897
0.000425324
0.000448717
0.000448867
0.000446952
0.000447128
0.000465166
0.000466135
0.000466291
0.000466452
0.000466592
0.000429619
0.000429857
0.000438573
0.000396401
0.000385084
0.000496131
0.00052608
0.000558673
0.000558801
0.000559024
0.000559041
0.000545128
0.000440678
0.000390595
0.000390555
0.000390731
0.000436377
0.000442071
0.000436176
0.000436235
0.000477002
0.000477197
0.000477139
0.000477299
0.000480464
0.000460276
0.000428118
0.000397213
0.000396534
0.00039656
0.000423123
0.000455514
0.000438482
0.000389595
0.000328826
0.000232153
0.00015949
0.000159503
0.000171212
0.000191519
0.000189228
0.000174749
0.000174282
0.000173337
0.000172335
0.000173117
0.000162627
0.000163108
0.000169104
0.000169435
0.000182907
0.000168749
0.000169332
0.000181763
0.000182392
0.000183045
0.00018371
0.000176341
0.000177004
0.000178435
0.000180627
0.000182254
0.000182956
0.000188896
0.000203213
0.000193262
0.000161576
0.000157273
0.000156425
0.000157052
0.000186526
0.000158472
0.000196833
0.000217285
0.000218178
0.000219098
0.000220034
0.000207231
0.000206023
0.00020504
0.000192329
0.000193159
0.00020519
0.000206697
0.000197973
0.000199958
0.000200872
0.000201806
0.000206879
0.000205558
0.000197937
0.00019881
0.000215113
0.000216086
0.000209361
0.000213639
0.000209421
0.000210357
0.000219678
0.000195807
0.000179697
0.000180501
0.00018129
0.000182112
0.000182957
0.000250023
0.000263047
0.000264228
0.000265383
0.000266536
0.000267702
0.000262933
0.000251529
0.000219253
0.000206026
0.000207249
0.000207817
0.000208731
0.000209645
0.000251855
0.000253772
0.000254868
0.000255964
0.000249191
0.000250277
0.00025459
0.000255688
0.00025679
0.000241381
0.000242386
0.000254361
0.000255425
0.000256306
0.000245635
0.000180797
0.000181517
0.000182228
0.000182954
0.00018371
0.000249895
0.000315895
0.000317117
0.000318405
0.000319639
0.000320942
0.000301283
0.000290757
0.000274019
0.000252434
0.000259518
0.000264001
0.000253383
0.000254348
0.000255296
0.000284071
0.000300023
0.000281324
0.000278688
0.000278539
0.000263517
0.000266858
0.000284153
0.000274717
0.000272089
0.000273062
0.000285158
0.000286783
0.000282691
0.000243819
0.000198999
0.000199684
0.000200386
0.000324239
0.000375213
0.000376426
0.000377634
0.000378853
0.000374068
0.000323695
0.000282037
0.000282512
0.000283444
0.000312617
0.000315131
0.000316125
0.000323497
0.000324493
0.000325494
0.000326487
0.000328485
0.000329793
0.000330797
0.000302154
0.000294421
0.000295305
0.000296174
0.00031328
0.000343523
0.000344582
0.000345546
0.000236401
0.00020736
0.000207929
0.000208498
0.000209079
0.000367795
0.000408432
0.00040957
0.000408721
0.000393101
0.000363021
0.000363963
0.000372996
0.000346726
0.000328693
0.000334965
0.000346097
0.00037168
0.000372582
0.000322722
0.000308739
0.00030946
0.000365627
0.000400162
0.00040122
0.000402347
0.000225072
0.000139567
0.00014003
0.00022257
0.000308836
0.000342104
0.000323637
0.000324322
0.000336372
0.000362163
0.000352336
0.000350099
0.000286273
0.000298407
0.000351829
0.000402233
0.000407888
0.000408757
0.000382976
0.000355546
0.000356841
0.000370372
0.000394854
0.00039892
0.000399708
0.000400476
0.000356552
0.000352682
0.000381008
0.000415553
0.000425571
0.000426356
0.000427134
0.000399843
0.000389545
0.000369546
0.000363021
0.000363645
0.000375769
0.000404112
0.000409683
0.000406905
0.000354117
0.000285517
0.000285985
0.00028645
0.000404992
0.000462152
0.000462876
0.000463583
0.000477429
0.000492135
0.000493006
0.000493665
0.000494415
0.000495114
0.000496009
0.00049665
0.000360735
0.00019375
0.000194287
0.000213911
0.000279354
0.000344588
0.000380387
0.000396124
0.000410269
0.000410785
0.000410575
0.000409298
0.000408445
0.000388542
0.00037803
0.000380255
0.000401562
0.000392923
0.000279819
0.000278553
0.000278892
0.000462309
0.000462843
0.000424291
0.000397047
0.000397511
0.00039796
0.000425221
0.000476827
0.00047746
0.000477884
0.00047853
0.000428875
0.000355758
0.000356096
0.000374126
0.000394953
0.000385772
0.00038617
0.000410839
0.000412024
0.000412434
0.000412834
0.000409506
0.000410683
0.000486165
0.000607872
0.000608467
0.000609201
0.000419552
0.000256035
0.000256217
0.000257578
0.000337965
0.000258843
0.000352172
0.000453767
0.000478407
0.000465623
0.00045538
0.000455742
0.000456093
0.000463929
0.000485025
0.00049378
0.000500837
0.000501165
0.000501501
0.000497267
0.000487394
0.000481222
0.00047409
0.000485054
0.000486744
0.00040846
0.000353383
0.00035376
0.00035391
0.000354187
0.0003653
0.000412079
0.000452793
0.000453116
0.000400251
0.000296127
0.000296303
0.000296464
0.000296626
0.000386619
0.000488877
0.000530022
0.000533541
0.000533899
0.000503648
0.000512112
0.000517714
0.000517975
0.000506716
0.000388223
0.000383389
0.000383566
0.000415436
0.000435777
0.000432602
0.000456801
0.000478098
0.000467772
0.000426381
0.000426538
0.000426687
0.000450073
0.000465444
0.000466134
0.000466287
0.000466438
0.000454938
0.000403905
0.000326841
0.000248207
0.000248277
0.000248347
0.000396835
0.000517346
0.000528505
0.000552934
0.000558925
0.000559143
0.000474052
0.000440777
0.000452639
0.000508199
0.000473185
0.000459345
0.00047675
0.000476885
0.000476912
0.000477087
0.000477058
0.00043046
0.000448077
0.000488436
0.000488454
0.000484325
0.000454469
0.000427927
0.000396538
0.000396615
0.000396616
0.000396652
0.00042731
0.000383295
0.000266385
0.00015953
0.000159527
0.000160731
0.000193075
0.000176533
0.000168454
0.000169252
0.000181392
0.000172346
0.000172837
0.000175929
0.000181213
0.000181772
0.000182335
0.000182917
0.000182974
0.000183599
0.000176228
0.000176839
0.000181304
0.000183702
0.000184577
0.000191135
0.000179267
0.000164555
0.000165155
0.000186775
0.000179062
0.00017974
0.000180443
0.000183555
0.000176027
0.000156424
0.000157057
0.000157696
0.000158354
0.000209771
0.000217285
0.000218186
0.000219098
0.000220053
0.000221016
0.000221785
0.000218986
0.000201599
0.000205137
0.000206038
0.000206958
0.000198756
0.000199634
0.000204085
0.00020503
0.000195517
0.000196395
0.000208804
0.000209748
0.000210685
0.000216077
0.000217056
0.000218037
0.000213682
0.000214636
0.00020553
0.000200646
0.000188333
0.000180497
0.000181296
0.000182121
0.000182971
0.000207426
0.000263069
0.000264218
0.000265385
0.000251925
0.00023175
0.000232765
0.000248142
0.000249252
0.000229326
0.000215376
0.000210301
0.000224909
0.000241811
0.000242872
0.000234517
0.000246953
0.000260155
0.0002613
0.000262439
0.000263579
0.000235237
0.000226327
0.000227268
0.000253276
0.000254344
0.000247647
0.000223103
0.000185537
0.000180797
0.000181503
0.000182236
0.000182973
0.00018371
0.000294162
0.000315892
0.000317175
0.000318412
0.000319679
0.000303493
0.000302972
0.000304147
0.000261643
0.00024508
0.000246005
0.00025637
0.000287561
0.000286622
0.000255272
0.000256217
0.000277035
0.000308806
0.000309977
0.000311161
0.000312295
0.000313466
0.000314575
0.000313387
0.000283497
0.000283608
0.000281758
0.000256936
0.000198015
0.000198325
0.000198992
0.000199703
0.000200379
0.000344138
0.000375212
0.000376507
0.000377669
0.000378886
0.000365957
0.000319926
0.00029674
0.000316564
0.000295187
0.000296151
0.00030265
0.000322473
0.000323486
0.000300573
0.000301495
0.00030936
0.000328601
0.000329806
0.000330815
0.000329472
0.000296114
0.000295291
0.000324177
0.000342521
0.000343557
0.000344542
0.000345599
0.000223362
0.000207342
0.000207939
0.000208513
0.000209106
0.000317445
0.00040728
0.000409536
0.000393239
0.000393092
0.000400574
0.000401615
0.000398107
0.000348381
0.000346905
0.000346516
0.000367319
0.000371655
0.000355169
0.000321387
0.000322139
0.000398205
0.000399128
0.000400204
0.00040141
0.000189622
0.000139159
0.000139611
0.000221705
0.000309154
0.00036826
0.000383391
0.000347558
0.000324305
0.000325026
0.000336682
0.000297376
0.000273998
0.000274624
0.000289587
0.000350969
0.000401198
0.000407888
0.000408714
0.000405723
0.000392113
0.000386146
0.000386148
0.000397874
0.000398902
0.000393959
0.000353594
0.000352012
0.000352668
0.000375845
0.000407036
0.000371143
0.000347427
0.000348049
0.00034866
0.0003593
0.000389966
0.000406797
0.000407601
0.000408302
0.000408994
0.000409681
0.000368846
0.000285042
0.000285518
0.000285978
0.000286449
0.000383638
0.000455029
0.000455706
0.000480731
0.000491401
0.000492303
0.000492921
0.000493778
0.00049441
0.000495308
0.000291804
0.000239271
0.000239698
0.000232787
0.000239256
0.000270638
0.000311007
0.000365096
0.000419409
0.000426533
0.000427078
0.000397212
0.000377604
0.000378131
0.000378607
0.000383856
0.000426156
0.000431033
0.000431529
0.000315229
0.000278204
0.000278545
0.000278894
0.000462185
0.000458871
0.000396596
0.00039706
0.000397509
0.000406201
0.000464309
0.000476901
0.000477345
0.000478006
0.000445257
0.000382038
0.000374256
0.000409181
0.000446823
0.000447331
0.000447808
0.000448248
0.000430928
0.000392974
0.000395633
0.000437445
0.000468645
0.000488547
0.000567145
0.00058208
0.0002553
0.000255367
0.000255793
0.000255912
0.000256296
0.000256499
0.000256785
0.000257026
0.00030562
0.000439049
0.000478405
0.000478792
0.000455355
0.000455723
0.000456072
0.000494026
0.000500659
0.000500975
0.000501394
0.000390284
0.000375461
0.000375723
0.000376004
0.000382716
0.000433272
0.000477806
0.000482344
0.000453566
0.000373587
0.000353697
0.000354
0.000360965
0.000416062
0.000452514
0.00045283
0.000453056
0.000392593
0.000296113
0.000296299
0.000296463
0.000296624
0.000376182
0.00049521
0.000499336
0.000499592
0.000499835
0.000500577
0.00051835
0.000510809
0.000509214
0.000509454
0.000509671
0.000440019
0.000383568
0.000385944
0.000448142
0.000478413
0.000478587
0.000478107
0.000478279
0.000430368
0.000426536
0.000426688
0.000428274
0.000426876
0.000425985
0.00042612
0.00043507
0.000440745
0.000350543
0.000248072
0.000248206
0.000248279
0.000248347
0.00031933
0.000476501
0.000558696
0.000558803
0.000558946
0.000559044
0.000559298
0.000559263
0.000559452
0.000554567
0.000471405
0.000416517
0.000407114
0.000407185
0.000407258
0.000407308
0.000429711
0.000429747
0.000429794
0.000483575
0.000488505
0.000488498
0.000488575
0.000488546
0.000467409
0.0004647
0.000414934
0.000435059
0.000435074
0.000435086
0.00031454
0.000159825
0.000159532
0.0001752
0.000175693
0.000168015
0.000168444
0.00018103
0.000181387
0.00017235
0.000180162
0.000180689
0.000181224
0.000181775
0.000182333
0.000174779
0.000173386
0.000173972
0.000174566
0.000183322
0.00018666
0.00018749
0.00019039
0.000191127
0.000175954
0.000176606
0.000189225
0.000189945
0.000190703
0.000190895
0.000188084
0.000184727
0.000185643
0.000156659
0.000157071
0.000157709
0.000158357
0.000216361
0.000217274
0.000218187
0.000219128
0.000220056
0.000221008
0.000221975
0.000222976
0.000202536
0.000205177
0.000200765
0.000199453
0.000200329
0.000203178
0.000204094
0.000205024
0.000205984
0.000206915
0.000208798
0.000209746
0.000210692
0.000216078
0.000217047
0.000206981
0.000203777
0.000204615
0.000205521
0.000215083