/*--------------------------------*- C++ -*----------------------------------*\
  =========                 |
  \\      /  F ield         | OpenFOAM: The Open Source CFD Toolbox
   \\    /   O peration     | Website:  https://openfoam.org
    \\  /    A nd           | Version:  7
     \\/     M anipulation  |
\*---------------------------------------------------------------------------*/
FoamFile
{
    version     2.0;
    format      ascii;
    class       volScalarField;
    location    "2500";
    object      nuTotal;
}
// * * * * * * * * * * * * * * * * * * * * * * * * * * * * * * * * * * * * * //

dimensions      [0 2 -1 0 0 0 0];

internalField   nonuniform List<scalar> 
160000
(
3.57251e-07
3.58018e-07
3.68298e-07
3.67267e-07
3.71038e-07
3.73126e-07
3.6605e-07
3.59523e-07
3.67036e-07
3.68812e-07
3.71246e-07
3.74238e-07
3.77083e-07
3.70999e-07
3.73549e-07
3.78337e-07
3.79565e-07
3.77632e-07
3.73007e-07
3.74346e-07
3.86809e-07
3.88558e-07
3.83049e-07
3.85268e-07
3.97152e-07
3.98612e-07
3.86502e-07
3.87995e-07
3.89506e-07
3.91017e-07
3.92511e-07
4.05245e-07
4.06914e-07
4.08601e-07
4.10224e-07
4.11255e-07
4.00462e-07
4.02118e-07
4.03742e-07
4.05382e-07
4.23669e-07
4.25456e-07
4.2359e-07
4.13131e-07
4.14875e-07
4.167e-07
4.18513e-07
4.31405e-07
4.33258e-07
4.35167e-07
4.37069e-07
4.27308e-07
4.29215e-07
4.31096e-07
4.33014e-07
4.34895e-07
4.4234e-07
4.46505e-07
4.48398e-07
4.47268e-07
4.49306e-07
4.51379e-07
4.53356e-07
4.55323e-07
4.57257e-07
4.61359e-07
4.66596e-07
4.68692e-07
4.70731e-07
4.66549e-07
4.6836e-07
4.70429e-07
4.7245e-07
4.7448e-07
4.765e-07
4.78569e-07
4.80651e-07
4.82719e-07
4.848e-07
4.86896e-07
4.88995e-07
4.92176e-07
4.95126e-07
4.97212e-07
4.98698e-07
5.00824e-07
5.03915e-07
5.06932e-07
5.08993e-07
5.1181e-07
5.13917e-07
5.12974e-07
5.15175e-07
5.17381e-07
5.19517e-07
5.21565e-07
5.23206e-07
5.25318e-07
5.27432e-07
5.29518e-07
5.31617e-07
5.3407e-07
5.36506e-07
5.38635e-07
5.39853e-07
5.44143e-07
5.46219e-07
5.45239e-07
5.47376e-07
5.49517e-07
5.51674e-07
5.53742e-07
5.55784e-07
5.57864e-07
5.61188e-07
5.64704e-07
5.66751e-07
5.64717e-07
5.6682e-07
5.68967e-07
5.71077e-07
5.73119e-07
5.75119e-07
5.77184e-07
5.79248e-07
5.81344e-07
5.88373e-07
5.92044e-07
5.94049e-07
5.96105e-07
5.9813e-07
6.00096e-07
5.95054e-07
5.97134e-07
5.99712e-07
6.0742e-07
6.09369e-07
6.11323e-07
6.13251e-07
6.15111e-07
6.1426e-07
6.18116e-07
6.20065e-07
6.18423e-07
6.20461e-07
6.22461e-07
6.24401e-07
6.26332e-07
6.28256e-07
6.30998e-07
6.33047e-07
6.35028e-07
6.37193e-07
6.3966e-07
6.41546e-07
6.41188e-07
6.43074e-07
6.44986e-07
6.4831e-07
6.51883e-07
6.53747e-07
6.55593e-07
6.59905e-07
6.618e-07
6.63641e-07
6.60611e-07
6.62457e-07
6.6424e-07
6.65985e-07
6.67716e-07
6.69478e-07
6.7131e-07
6.76636e-07
6.77188e-07
6.79001e-07
6.80665e-07
6.79938e-07
6.82806e-07
6.84515e-07
6.86268e-07
6.87908e-07
6.88626e-07
6.90307e-07
6.91853e-07
6.91344e-07
6.91858e-07
6.95664e-07
7.00132e-07
7.01863e-07
7.01279e-07
7.06306e-07
7.15003e-07
7.18708e-07
7.20878e-07
7.22663e-07
7.24186e-07
7.14487e-07
7.2865e-07
7.3428e-07
7.36255e-07
7.38068e-07
7.39718e-07
7.41203e-07
7.35909e-07
7.25945e-07
7.27269e-07
7.29643e-07
7.35302e-07
7.36818e-07
7.38247e-07
7.39652e-07
7.41053e-07
7.42442e-07
7.43619e-07
7.44137e-07
7.45492e-07
7.46809e-07
7.4554e-07
7.46887e-07
7.4927e-07
7.53265e-07
7.54611e-07
7.55869e-07
7.53674e-07
7.5037e-07
7.51474e-07
7.52772e-07
7.54033e-07
7.60079e-07
7.63563e-07
7.64792e-07
7.61289e-07
7.61067e-07
7.62317e-07
7.63971e-07
7.69489e-07
7.73309e-07
7.74022e-07
7.75182e-07
7.75184e-07
7.76325e-07
7.75684e-07
7.73236e-07
7.73871e-07
7.75201e-07
7.76329e-07
7.77432e-07
7.78597e-07
7.85879e-07
8.23747e-07
8.27496e-07
8.28941e-07
8.30021e-07
8.17427e-07
8.02688e-07
7.97024e-07
7.97996e-07
7.98919e-07
7.94325e-07
8.0369e-07
8.04875e-07
8.06028e-07
8.07011e-07
8.07538e-07
7.99153e-07
8.001e-07
8.0237e-07
8.03292e-07
8.00638e-07
8.01616e-07
8.02917e-07
8.13604e-07
8.14553e-07
8.15476e-07
8.16354e-07
8.12805e-07
8.07225e-07
8.08092e-07
8.09009e-07
8.17274e-07
8.19737e-07
8.18151e-07
8.18983e-07
8.19998e-07
8.25204e-07
8.26032e-07
8.26863e-07
8.27638e-07
8.26927e-07
8.23043e-07
8.23785e-07
8.24498e-07
8.19214e-07
8.19811e-07
8.20543e-07
8.21278e-07
8.25855e-07
8.26564e-07
8.24779e-07
8.28798e-07
8.54867e-07
9.01824e-07
9.03356e-07
9.03863e-07
9.04987e-07
9.05335e-07
9.05896e-07
8.90541e-07
8.77762e-07
8.58723e-07
8.46125e-07
8.43083e-07
8.38648e-07
8.39063e-07
8.42258e-07
8.49516e-07
8.50168e-07
8.50734e-07
8.51259e-07
8.45855e-07
8.43031e-07
8.42003e-07
8.39105e-07
8.39621e-07
8.42946e-07
8.5454e-07
8.55109e-07
8.55668e-07
8.56147e-07
8.56664e-07
8.57118e-07
8.57581e-07
8.58027e-07
8.58484e-07
8.58917e-07
8.59352e-07
8.59769e-07
8.52761e-07
8.58405e-07
8.71402e-07
8.718e-07
8.72173e-07
8.72555e-07
8.72937e-07
8.49126e-07
8.48456e-07
8.48802e-07
8.49167e-07
8.58748e-07
8.61829e-07
8.62155e-07
8.62484e-07
8.59178e-07
8.55799e-07
8.56096e-07
8.56401e-07
8.56687e-07
8.59485e-07
8.60277e-07
8.60549e-07
8.60808e-07
8.59128e-07
8.57905e-07
8.5815e-07
8.5838e-07
8.5864e-07
8.58862e-07
8.59098e-07
8.59303e-07
8.64446e-07
8.6521e-07
8.65404e-07
8.65571e-07
8.65753e-07
8.65918e-07
8.66083e-07
8.66234e-07
8.63768e-07
8.63182e-07
8.6194e-07
8.62067e-07
8.62187e-07
8.61893e-07
8.62002e-07
8.62105e-07
8.622e-07
8.64847e-07
8.65123e-07
8.65198e-07
8.6487e-07
8.65158e-07
8.66799e-07
8.67515e-07
8.76183e-07
8.82513e-07
8.99903e-07
9.33936e-07
9.33894e-07
9.33897e-07
9.33885e-07
3.63183e-07
3.63933e-07
3.55412e-07
3.70195e-07
3.71069e-07
3.70896e-07
3.66644e-07
3.67617e-07
3.68261e-07
3.69259e-07
3.7009e-07
3.70066e-07
3.69468e-07
3.70626e-07
3.71834e-07
3.74098e-07
3.79541e-07
3.77048e-07
3.78381e-07
3.85771e-07
3.87112e-07
3.81693e-07
3.83067e-07
3.84479e-07
3.91799e-07
3.84961e-07
3.86445e-07
3.87979e-07
3.89494e-07
3.91012e-07
3.95923e-07
4.03964e-07
4.06787e-07
4.08596e-07
4.10226e-07
3.98781e-07
4.00472e-07
4.06211e-07
4.0368e-07
4.12569e-07
4.2371e-07
4.25463e-07
4.24278e-07
4.13411e-07
4.14859e-07
4.16709e-07
4.18533e-07
4.25886e-07
4.31857e-07
4.35172e-07
4.37117e-07
4.28857e-07
4.31458e-07
4.34484e-07
4.36396e-07
4.34878e-07
4.38281e-07
4.4405e-07
4.45367e-07
4.47323e-07
4.49312e-07
4.51338e-07
4.53347e-07
4.55308e-07
4.5729e-07
4.6141e-07
4.6135e-07
4.62543e-07
4.64577e-07
4.66565e-07
4.72954e-07
4.75524e-07
4.77531e-07
4.76001e-07
4.8003e-07
4.82128e-07
4.84221e-07
4.86289e-07
4.85141e-07
4.86747e-07
4.8955e-07
4.93226e-07
4.94451e-07
4.96444e-07
4.9855e-07
5.01281e-07
5.03927e-07
5.0456e-07
5.06642e-07
5.08749e-07
5.10891e-07
5.13022e-07
5.15186e-07
5.17378e-07
5.20001e-07
5.21305e-07
5.23387e-07
5.25569e-07
5.3154e-07
5.33721e-07
5.35814e-07
5.37934e-07
5.35764e-07
5.34365e-07
5.39002e-07
5.41922e-07
5.43983e-07
5.48294e-07
5.50566e-07
5.5269e-07
5.54835e-07
5.56904e-07
5.55818e-07
5.57498e-07
5.58582e-07
5.6063e-07
5.62672e-07
5.64724e-07
5.66817e-07
5.68951e-07
5.71079e-07
5.76652e-07
5.79126e-07
5.81186e-07
5.83248e-07
5.84601e-07
5.88027e-07
5.89608e-07
5.91675e-07
5.96086e-07
5.98111e-07
5.98806e-07
5.95062e-07
5.9718e-07
5.99258e-07
6.01199e-07
6.0237e-07
6.07772e-07
6.12487e-07
6.12237e-07
6.1254e-07
6.14543e-07
6.16522e-07
6.18478e-07
6.20488e-07
6.22459e-07
6.26045e-07
6.28891e-07
6.30795e-07
6.32172e-07
6.35571e-07
6.3748e-07
6.37095e-07
6.37424e-07
6.39324e-07
6.41225e-07
6.43112e-07
6.45005e-07
6.49338e-07
6.50667e-07
6.52532e-07
6.54395e-07
6.59925e-07
6.61799e-07
6.63314e-07
6.60619e-07
6.62709e-07
6.65268e-07
6.65988e-07
6.72814e-07
6.74598e-07
6.76397e-07
6.78111e-07
6.75147e-07
6.76886e-07
6.76391e-07
6.78238e-07
6.81282e-07
6.82605e-07
6.86169e-07
6.86743e-07
6.90008e-07
6.91666e-07
6.90837e-07
6.89495e-07
6.91168e-07
6.94531e-07
6.98783e-07
6.95969e-07
6.97788e-07
6.99735e-07
7.19328e-07
7.34511e-07
7.24721e-07
7.20526e-07
7.13078e-07
7.14529e-07
7.1614e-07
7.3449e-07
7.3633e-07
7.38049e-07
7.36825e-07
7.34976e-07
7.30915e-07
7.25876e-07
7.27297e-07
7.29217e-07
7.3534e-07
7.36807e-07
7.38139e-07
7.39176e-07
7.40719e-07
7.40692e-07
7.38868e-07
7.40001e-07
7.42448e-07
7.42382e-07
7.47182e-07
7.50516e-07
7.51907e-07
7.53252e-07
7.54547e-07
7.53596e-07
7.5006e-07
7.50219e-07
7.51491e-07
7.52783e-07
7.5405e-07
7.55301e-07
7.56578e-07
7.57804e-07
7.59017e-07
7.60245e-07
7.69449e-07
7.70687e-07
7.7046e-07
7.73308e-07
7.74494e-07
7.75645e-07
7.76779e-07
7.77918e-07
7.74994e-07
7.71898e-07
7.72997e-07
7.74056e-07
7.72317e-07
7.73403e-07
7.85364e-07
8.24547e-07
8.26184e-07
8.27784e-07
8.28929e-07
8.05347e-07
7.98098e-07
7.97353e-07
7.97127e-07
7.98091e-07
7.93404e-07
7.94344e-07
8.03767e-07
8.04932e-07
8.05986e-07
8.05219e-07
7.99504e-07
7.9912e-07
8.01427e-07
8.0239e-07
7.9972e-07
8.00639e-07
8.01641e-07
8.12094e-07
8.13627e-07
8.14555e-07
8.15481e-07
8.16335e-07
8.08911e-07
8.07223e-07
8.08111e-07
8.1076e-07
8.20931e-07
8.19728e-07
8.18149e-07
8.20001e-07
8.24357e-07
8.2521e-07
8.26059e-07
8.26846e-07
8.27621e-07
8.27556e-07
8.27011e-07
8.25919e-07
8.20122e-07
8.19214e-07
8.22008e-07
8.22741e-07
8.16453e-07
8.1704e-07
8.20737e-07
8.1839e-07
8.19028e-07
8.50938e-07
9.02516e-07
9.03166e-07
9.04107e-07
8.90734e-07
8.69238e-07
8.5651e-07
8.48357e-07
8.43476e-07
8.40223e-07
8.38416e-07
8.37939e-07
8.38499e-07
8.39081e-07
8.40427e-07
8.49562e-07
8.50151e-07
8.50711e-07
8.46555e-07
8.41827e-07
8.39706e-07
8.38602e-07
8.39104e-07
8.3964e-07
8.40669e-07
8.54551e-07
8.55141e-07
8.5564e-07
8.56152e-07
8.56633e-07
8.54234e-07
8.50127e-07
8.51946e-07
8.53078e-07
8.5359e-07
8.57474e-07
8.57287e-07
8.51834e-07
8.52237e-07
8.58249e-07
8.5725e-07
8.55415e-07
8.63909e-07
8.56523e-07
8.48092e-07
8.48448e-07
8.48818e-07
8.61094e-07
8.61478e-07
8.61814e-07
8.62157e-07
8.62468e-07
8.58509e-07
8.55794e-07
8.56104e-07
8.564e-07
8.56693e-07
8.56976e-07
8.57257e-07
8.57526e-07
8.57787e-07
8.5767e-07
8.57905e-07
8.58141e-07
8.58399e-07
8.58628e-07
8.58952e-07
8.64422e-07
8.64648e-07
8.64845e-07
8.63872e-07
8.63686e-07
8.64129e-07
8.65369e-07
8.64395e-07
8.64556e-07
8.62168e-07
8.62314e-07
8.62451e-07
8.6194e-07
8.62145e-07
8.62265e-07
8.61886e-07
8.62814e-07
8.62918e-07
8.62201e-07
8.64835e-07
8.64768e-07
8.61779e-07
8.6185e-07
8.63259e-07
8.63312e-07
8.63361e-07
8.69809e-07
8.70688e-07
8.77919e-07
9.26767e-07
9.33891e-07
9.3388e-07
9.33882e-07
3.63172e-07
3.60306e-07
3.55416e-07
3.56259e-07
3.57802e-07
3.66013e-07
3.63096e-07
3.64084e-07
3.67044e-07
3.66709e-07
3.67805e-07
3.68915e-07
3.69864e-07
3.70599e-07
3.71813e-07
3.73033e-07
3.74263e-07
3.81867e-07
3.82967e-07
3.80801e-07
3.82151e-07
3.83621e-07
3.85005e-07
3.85559e-07
3.83543e-07
3.8497e-07
3.86432e-07
3.87928e-07
3.8948e-07
3.91568e-07
3.95141e-07
3.97178e-07
4.01866e-07
4.08594e-07
4.10247e-07
4.01824e-07
4.02414e-07
4.07632e-07
4.09254e-07
4.10689e-07
4.10334e-07
4.1228e-07
4.15905e-07
4.16136e-07
4.23524e-07
4.26587e-07
4.25707e-07
4.2552e-07
4.27347e-07
4.29294e-07
4.32149e-07
4.34044e-07
4.33633e-07
4.32655e-07
4.33352e-07
4.34872e-07
4.36976e-07
4.45036e-07
4.48613e-07
4.50593e-07
4.50934e-07
4.51294e-07
4.53319e-07
4.63667e-07
4.62432e-07
4.64495e-07
4.66573e-07
4.68589e-07
4.69208e-07
4.66598e-07
4.68599e-07
4.70677e-07
4.77516e-07
4.79529e-07
4.76324e-07
4.78402e-07
4.80491e-07
4.82569e-07
4.84694e-07
4.86793e-07
4.88613e-07
4.95143e-07
4.9807e-07
5.00148e-07
4.98544e-07
5.00584e-07
5.01297e-07
5.07284e-07
5.09494e-07
5.11219e-07
5.12382e-07
5.15169e-07
5.17285e-07
5.19502e-07
5.21613e-07
5.22129e-07
5.23349e-07
5.25464e-07
5.28309e-07
5.31333e-07
5.29389e-07
5.30672e-07
5.35611e-07
5.34374e-07
5.36088e-07
5.44267e-07
5.47286e-07
5.49377e-07
5.47862e-07
5.49995e-07
5.52118e-07
5.54193e-07
5.56265e-07
5.58947e-07
5.60165e-07
5.6222e-07
5.63078e-07
5.65887e-07
5.72564e-07
5.76148e-07
5.78228e-07
5.76413e-07
5.78273e-07
5.8034e-07
5.82906e-07
5.84983e-07
5.86313e-07
5.87914e-07
5.89962e-07
5.91991e-07
5.92397e-07
5.94423e-07
5.96516e-07
5.98649e-07
6.0067e-07
6.02623e-07
6.02365e-07
6.04309e-07
6.09642e-07
6.12684e-07
6.1253e-07
6.18318e-07
6.20324e-07
6.19494e-07
6.20809e-07
6.22787e-07
6.24716e-07
6.28634e-07
6.30769e-07
6.32563e-07
6.33432e-07
6.35322e-07
6.36941e-07
6.3882e-07
6.42897e-07
6.44791e-07
6.43122e-07
6.48054e-07
6.51529e-07
6.53387e-07
6.53621e-07
6.52127e-07
6.5402e-07
6.55901e-07
6.6013e-07
6.63279e-07
6.65107e-07
6.6528e-07
6.63071e-07
6.70374e-07
6.74646e-07
6.76401e-07
6.78144e-07
6.79858e-07
6.81544e-07
6.75836e-07
6.77539e-07
6.79261e-07
6.8094e-07
6.826e-07
6.86593e-07
6.9203e-07
6.90823e-07
6.89583e-07
6.911e-07
6.91121e-07
6.92471e-07
6.94177e-07
6.95939e-07
6.9782e-07
7.3581e-07
7.60438e-07
7.41976e-07
7.20615e-07
7.1489e-07
7.13141e-07
7.14699e-07
7.16358e-07
7.19426e-07
7.28512e-07
7.30125e-07
7.28742e-07
7.25552e-07
7.24496e-07
7.27504e-07
7.32161e-07
7.33836e-07
7.35314e-07
7.36435e-07
7.36844e-07
7.38171e-07
7.38858e-07
7.37363e-07
7.37985e-07
7.39353e-07
7.40705e-07
7.42038e-07
7.43382e-07
7.5036e-07
7.51885e-07
7.51617e-07
7.48246e-07
7.47695e-07
7.48959e-07
7.50235e-07
7.51519e-07
7.52804e-07
7.54053e-07
7.55313e-07
7.56573e-07
7.57806e-07
7.59025e-07
7.65339e-07
7.74583e-07
7.68514e-07
7.66515e-07
7.72075e-07
7.74339e-07
7.71083e-07
7.70832e-07
7.71981e-07
7.73104e-07
7.74207e-07
7.73062e-07
7.71263e-07
7.72322e-07
7.73404e-07
8.16725e-07
8.24877e-07
8.26603e-07
8.27789e-07
8.07699e-07
7.9696e-07
7.94416e-07
7.9525e-07
7.95267e-07
7.93772e-07
7.93393e-07
7.94395e-07
7.97635e-07
8.04897e-07
8.05552e-07
8.00163e-07
7.98144e-07
7.99111e-07
8.00091e-07
7.99894e-07
7.99725e-07
8.0074e-07
8.10982e-07
8.12113e-07
8.06369e-07
8.07088e-07
8.07992e-07
8.09085e-07
8.07205e-07
8.07235e-07
8.0811e-07
8.15422e-07
8.20929e-07
8.218e-07
8.22653e-07
8.23528e-07
8.24374e-07
8.25216e-07
8.23884e-07
8.21125e-07
8.20648e-07
8.21052e-07
8.21809e-07
8.22593e-07
8.23439e-07
8.23476e-07
8.17899e-07
8.15471e-07
8.16245e-07
8.17031e-07
8.17769e-07
8.1847e-07
8.19199e-07
8.31724e-07
9.02168e-07
9.03242e-07
8.72245e-07
8.49682e-07
8.37842e-07
8.33545e-07
8.36252e-07
8.40336e-07
8.39664e-07
8.3735e-07
8.37921e-07
8.38507e-07
8.39142e-07
8.47923e-07
8.49543e-07
8.50127e-07
8.43509e-07
8.39502e-07
8.39442e-07
8.381e-07
8.38605e-07
8.39131e-07
8.39711e-07
8.53444e-07
8.54601e-07
8.55117e-07
8.53311e-07
8.53327e-07
8.55406e-07
8.51968e-07
8.489e-07
8.49366e-07
8.49822e-07
8.5001e-07
8.51229e-07
8.49831e-07
8.46251e-07
8.45995e-07
8.46406e-07
8.46799e-07
8.50167e-07
8.51302e-07
8.49696e-07
8.50068e-07
8.5309e-07
8.58408e-07
8.61127e-07
8.61465e-07
8.61817e-07
8.60166e-07
8.56823e-07
8.5598e-07
8.56298e-07
8.5765e-07
8.57947e-07
8.5669e-07
8.5723e-07
8.59352e-07
8.59621e-07
8.59745e-07
8.57652e-07
8.57899e-07
8.58156e-07
8.58393e-07
8.60643e-07
8.59651e-07
8.58037e-07
8.59723e-07
8.57632e-07
8.54764e-07
8.54951e-07
8.55125e-07
8.58634e-07
8.67603e-07
8.67873e-07
8.68015e-07
8.68167e-07
8.6533e-07
8.6195e-07
8.62861e-07
8.61916e-07
8.61443e-07
8.61559e-07
8.61717e-07
8.62203e-07
8.61619e-07
8.61702e-07
8.61778e-07
8.6478e-07
8.64909e-07
8.63314e-07
8.63363e-07
8.63873e-07
8.66394e-07
8.80285e-07
9.22007e-07
9.33871e-07
9.33877e-07
9.33883e-07
3.61274e-07
3.60429e-07
3.58104e-07
3.58818e-07
3.60832e-07
3.62082e-07
3.63114e-07
3.64089e-07
3.68031e-07
3.71045e-07
3.72115e-07
3.7288e-07
3.73299e-07
3.70948e-07
3.71803e-07
3.76855e-07
3.8004e-07
3.81865e-07
3.81046e-07
3.81188e-07
3.82094e-07
3.83465e-07
3.84849e-07
3.85537e-07
3.87582e-07
3.89021e-07
3.86612e-07
3.88932e-07
3.99359e-07
4.01683e-07
3.95064e-07
3.95149e-07
3.96514e-07
3.98043e-07
3.99668e-07
4.013e-07
4.06004e-07
4.07628e-07
4.046e-07
4.06311e-07
4.09133e-07
4.14362e-07
4.16774e-07
4.18451e-07
4.23368e-07
4.26545e-07
4.28349e-07
4.30152e-07
4.29977e-07
4.29285e-07
4.31208e-07
4.33162e-07
4.35643e-07
4.37256e-07
4.42574e-07
4.44483e-07
4.46127e-07
4.45996e-07
4.45651e-07
4.47329e-07
4.49288e-07
4.51274e-07
4.61217e-07
4.64428e-07
4.61469e-07
4.60164e-07
4.60496e-07
4.58209e-07
4.60195e-07
4.6775e-07
4.70664e-07
4.72615e-07
4.72344e-07
4.71572e-07
4.79914e-07
4.8649e-07
4.88563e-07
4.90631e-07
4.9277e-07
4.91608e-07
4.88622e-07
4.90761e-07
4.92869e-07
4.94925e-07
4.97006e-07
4.99161e-07
5.01294e-07
5.03438e-07
5.09475e-07
5.13841e-07
5.15973e-07
5.14988e-07
5.1712e-07
5.19476e-07
5.19984e-07
5.22066e-07
5.3331e-07
5.33264e-07
5.28389e-07
5.3055e-07
5.34287e-07
5.28134e-07
5.3019e-07
5.33235e-07
5.34826e-07
5.38491e-07
5.44633e-07
5.49171e-07
5.49879e-07
5.52884e-07
5.55107e-07
5.54143e-07
5.58536e-07
5.62318e-07
5.60502e-07
5.61049e-07
5.6308e-07
5.65244e-07
5.73449e-07
5.76157e-07
5.78225e-07
5.81436e-07
5.83515e-07
5.85563e-07
5.82146e-07
5.84238e-07
5.86325e-07
5.88937e-07
5.91423e-07
5.92929e-07
5.95873e-07
5.96543e-07
5.98379e-07
5.95945e-07
5.95146e-07
5.97083e-07
5.99797e-07
6.09114e-07
6.14116e-07
6.1603e-07
6.17995e-07
6.19977e-07
6.16873e-07
6.18804e-07
6.20783e-07
6.22769e-07
6.24724e-07
6.27073e-07
6.28645e-07
6.3047e-07
6.35299e-07
6.38682e-07
6.40552e-07
6.41314e-07
6.4049e-07
6.40902e-07
6.42794e-07
6.44707e-07
6.46569e-07
6.4838e-07
6.50243e-07
6.52116e-07
6.54023e-07
6.5592e-07
6.63979e-07
6.63252e-07
6.5884e-07
6.58252e-07
6.6002e-07
6.61806e-07
6.63573e-07
6.68055e-07
6.6975e-07
6.71459e-07
6.78572e-07
6.80584e-07
6.82296e-07
6.83998e-07
6.83194e-07
6.82626e-07
6.90347e-07
6.91996e-07
6.92302e-07
6.89328e-07
6.89796e-07
6.90724e-07
6.92421e-07
6.94179e-07
6.96059e-07
7.34064e-07
7.69565e-07
7.60836e-07
7.2033e-07
7.13951e-07
7.15867e-07
7.17649e-07
7.14826e-07
7.16417e-07
7.18057e-07
7.19716e-07
7.22769e-07
7.25246e-07
7.25208e-07
7.22907e-07
7.23835e-07
7.2581e-07
7.31786e-07
7.35265e-07
7.36415e-07
7.37939e-07
7.39358e-07
7.37493e-07
7.36572e-07
7.37959e-07
7.39344e-07
7.40707e-07
7.42053e-07
7.43392e-07
7.46298e-07
7.47416e-07
7.45602e-07
7.46392e-07
7.47678e-07
7.48965e-07
7.50368e-07
7.57212e-07
7.58484e-07
7.5915e-07
7.58344e-07
7.57797e-07
7.57803e-07
7.61728e-07
7.72321e-07
7.74614e-07
7.64622e-07
7.62835e-07
7.64017e-07
7.65183e-07
7.66523e-07
7.73124e-07
7.75867e-07
7.76991e-07
7.73064e-07
7.70216e-07
7.71278e-07
7.72393e-07
7.73769e-07
8.23483e-07
8.25308e-07
8.26614e-07
8.1268e-07
7.98593e-07
7.94985e-07
7.95679e-07
7.94443e-07
7.92504e-07
7.92384e-07
7.9339e-07
7.94424e-07
7.96371e-07
8.00234e-07
7.99243e-07
7.97136e-07
7.98103e-07
7.99108e-07
8.04955e-07
8.06968e-07
7.99745e-07
8.00702e-07
8.01689e-07
8.02645e-07
8.08689e-07
8.10002e-07
8.10886e-07
8.10667e-07
8.06378e-07
8.07231e-07
8.08134e-07
8.09018e-07
8.17804e-07
8.21811e-07
8.22677e-07
8.23522e-07
8.22332e-07
8.2155e-07
8.2236e-07
8.23152e-07
8.22747e-07
8.21437e-07
8.23816e-07
8.24562e-07
8.25277e-07
8.18516e-07
8.14709e-07
8.15472e-07
8.16287e-07
8.17092e-07
8.27091e-07
8.24284e-07
8.20344e-07
8.21749e-07
8.2883e-07
8.36468e-07
8.34694e-07
8.31373e-07
8.30393e-07
8.31005e-07
8.31634e-07
8.34026e-07
8.37202e-07
8.4015e-07
8.40747e-07
8.38624e-07
8.37145e-07
8.39843e-07
8.45484e-07
8.4863e-07
8.4918e-07
8.46696e-07
8.39083e-07
8.381e-07
8.38624e-07
8.45375e-07
8.53471e-07
8.54044e-07
8.5458e-07
8.53452e-07
8.49369e-07
8.46496e-07
8.47996e-07
8.50706e-07
8.51264e-07
8.49625e-07
8.47539e-07
8.44296e-07
8.4473e-07
8.45162e-07
8.45577e-07
8.46e-07
8.46403e-07
8.50004e-07
8.52296e-07
8.5268e-07
8.50078e-07
8.50069e-07
8.52491e-07
8.60755e-07
8.61109e-07
8.61465e-07
8.61798e-07
8.6069e-07
8.59758e-07
8.58781e-07
8.57172e-07
8.57482e-07
8.57944e-07
8.58233e-07
8.57161e-07
8.5738e-07
8.5765e-07
8.57911e-07
8.58166e-07
8.61346e-07
8.61587e-07
8.61116e-07
8.65238e-07
8.66675e-07
8.5768e-07
8.561e-07
8.54575e-07
8.54768e-07
8.54948e-07
8.55131e-07
8.56021e-07
8.63043e-07
8.67858e-07
8.68024e-07
8.68157e-07
8.64022e-07
8.63693e-07
8.64315e-07
8.64435e-07
8.61447e-07
8.6155e-07
8.61662e-07
8.61747e-07
8.61618e-07
8.63148e-07
8.65821e-07
8.688e-07
8.68935e-07
8.6899e-07
8.66505e-07
8.63873e-07
8.65265e-07
8.69873e-07
8.77595e-07
8.98848e-07
9.33878e-07
9.33875e-07
3.60556e-07
3.56323e-07
3.57759e-07
3.62352e-07
3.63487e-07
3.648e-07
3.66148e-07
3.67033e-07
3.71377e-07
3.72405e-07
3.71753e-07
3.72854e-07
3.70402e-07
3.75696e-07
3.76918e-07
3.74804e-07
3.76031e-07
3.7731e-07
3.78611e-07
3.82121e-07
3.83489e-07
3.84637e-07
3.85587e-07
3.86702e-07
3.88129e-07
3.88226e-07
3.86591e-07
3.90464e-07
4.01263e-07
4.04596e-07
4.06746e-07
4.08312e-07
4.00904e-07
4.11493e-07
4.02173e-07
3.9973e-07
4.0132e-07
4.02944e-07
4.04618e-07
4.09042e-07
4.11218e-07
4.13379e-07
4.18314e-07
4.20061e-07
4.19226e-07
4.20907e-07
4.24887e-07
4.2643e-07
4.2833e-07
4.30249e-07
4.31219e-07
4.33631e-07
4.37505e-07
4.39378e-07
4.37841e-07
4.39764e-07
4.43298e-07
4.44508e-07
4.47596e-07
4.4955e-07
4.49737e-07
4.57357e-07
4.64233e-07
4.66255e-07
4.68239e-07
4.70302e-07
4.72425e-07
4.60029e-07
4.60256e-07
4.62249e-07
4.64242e-07
4.66194e-07
4.68205e-07
4.71068e-07
4.74987e-07
4.83228e-07
4.88581e-07
4.90571e-07
4.92729e-07
4.94848e-07
4.96962e-07
4.90891e-07
4.92841e-07
4.94916e-07
4.97e-07
5.00436e-07
5.02582e-07
5.04174e-07
5.06304e-07
5.0844e-07
5.13385e-07
5.15477e-07
5.15688e-07
5.17813e-07
5.19912e-07
5.23993e-07
5.42754e-07
5.44873e-07
5.46955e-07
5.49082e-07
5.51289e-07
5.37208e-07
5.30238e-07
5.32257e-07
5.34332e-07
5.36413e-07
5.38497e-07
5.42925e-07
5.46468e-07
5.51088e-07
5.56899e-07
5.57883e-07
5.59352e-07
5.63449e-07
5.65576e-07
5.6762e-07
5.65183e-07
5.65245e-07
5.70074e-07
5.72717e-07
5.74969e-07
5.79603e-07
5.81268e-07
5.80776e-07
5.8442e-07
5.87108e-07
5.89166e-07
5.89477e-07
5.91389e-07
5.94164e-07
6.03177e-07
6.17014e-07
6.19147e-07
6.21249e-07
5.99814e-07
5.96879e-07
5.98785e-07
6.0068e-07
6.02593e-07
6.05023e-07
6.12088e-07
6.1978e-07
6.21829e-07
6.23815e-07
6.21828e-07
6.23611e-07
6.25563e-07
6.26685e-07
6.28578e-07
6.30482e-07
6.32366e-07
6.34118e-07
6.35958e-07
6.3785e-07
6.43499e-07
6.46644e-07
6.48551e-07
6.50427e-07
6.49996e-07
6.48346e-07
6.50214e-07
6.52101e-07
6.71665e-07
6.81856e-07
6.83695e-07
6.85495e-07
6.87371e-07
6.61754e-07
6.60125e-07
6.61854e-07
6.63722e-07
6.66745e-07
6.71266e-07
6.72967e-07
6.73888e-07
6.78352e-07
6.82252e-07
6.83288e-07
6.83773e-07
6.82874e-07
6.84517e-07
6.91788e-07
6.95405e-07
6.97003e-07
6.92016e-07
6.9064e-07
6.92457e-07
6.94395e-07
7.23875e-07
7.68076e-07
7.6997e-07
7.31174e-07
7.14983e-07
7.12237e-07
7.16177e-07
7.1775e-07
7.17871e-07
7.16596e-07
7.19345e-07
7.21326e-07
7.32028e-07
7.31722e-07
7.26175e-07
7.22775e-07
7.23822e-07
7.25285e-07
7.29106e-07
7.3345e-07
7.3482e-07
7.34882e-07
7.34021e-07
7.35133e-07
7.3654e-07
7.37945e-07
7.43749e-07
7.45629e-07
7.44048e-07
7.42363e-07
7.42958e-07
7.44288e-07
7.4561e-07
7.49239e-07
7.51536e-07
7.54878e-07
7.56934e-07
7.58212e-07
7.58263e-07
7.56896e-07
7.57721e-07
7.59261e-07
7.65866e-07
7.77229e-07
7.7848e-07
7.79723e-07
7.65992e-07
7.6287e-07
7.64048e-07
7.65198e-07
7.65475e-07
7.65757e-07
7.66905e-07
7.68049e-07
7.69147e-07
7.70226e-07
7.71346e-07
7.72592e-07
7.85108e-07
8.23951e-07
8.25323e-07
8.1906e-07
8.03067e-07
7.939e-07
7.90923e-07
7.9046e-07
7.90243e-07
7.91264e-07
7.92351e-07
7.9354e-07
7.94701e-07
7.97656e-07
7.9979e-07
8.00589e-07
7.99508e-07
8.01347e-07
8.18176e-07
8.19493e-07
8.20474e-07
7.99764e-07
8.00748e-07
8.0472e-07
8.08166e-07
8.09098e-07
8.09997e-07
8.08461e-07
8.05515e-07
8.06362e-07
8.07257e-07
8.08151e-07
8.12716e-07
8.20954e-07
8.21821e-07
8.20628e-07
8.19347e-07
8.21144e-07
8.21963e-07
8.20419e-07
8.21141e-07
8.21932e-07
8.22711e-07
8.23804e-07
8.24462e-07
8.19432e-07
8.13956e-07
8.14696e-07
8.1551e-07
8.27649e-07
8.52648e-07
8.5344e-07
8.53912e-07
8.39897e-07
8.55223e-07
8.39647e-07
8.30557e-07
8.29571e-07
8.3118e-07
8.3263e-07
8.33285e-07
8.33915e-07
8.33981e-07
8.33165e-07
8.3323e-07
8.3342e-07
8.34031e-07
8.34646e-07
8.35536e-07
8.36774e-07
8.37767e-07
8.3882e-07
8.38641e-07
8.3908e-07
8.45768e-07
8.52384e-07
8.52935e-07
8.53506e-07
8.54045e-07
8.53231e-07
8.48855e-07
8.4596e-07
8.4645e-07
8.51541e-07
8.66163e-07
8.66644e-07
8.67109e-07
8.67572e-07
8.55419e-07
8.47372e-07
8.45345e-07
8.45585e-07
8.45997e-07
8.48164e-07
8.4806e-07
8.48131e-07
8.48515e-07
8.49576e-07
8.59461e-07
8.60373e-07
8.60738e-07
8.57931e-07
8.56515e-07
8.57133e-07
8.55545e-07
8.5435e-07
8.55409e-07
8.59015e-07
8.59325e-07
8.59624e-07
8.58001e-07
8.57141e-07
8.5738e-07
8.5765e-07
8.57911e-07
8.5903e-07
8.637e-07
8.73384e-07
8.8976e-07
8.90011e-07
8.90253e-07
8.65688e-07
8.5661e-07
8.56176e-07
8.55067e-07
8.54955e-07
8.55128e-07
8.60344e-07
8.63037e-07
8.62257e-07
8.58605e-07
8.6105e-07
8.62202e-07
8.61085e-07
8.61212e-07
8.61337e-07
8.61444e-07
8.61561e-07
8.65267e-07
8.63911e-07
8.61081e-07
8.61166e-07
8.61521e-07
8.63739e-07
8.65974e-07
8.68992e-07
8.69035e-07
8.69079e-07
8.6911e-07
8.66245e-07
8.70577e-07
8.89442e-07
9.3385e-07
9.33858e-07
3.63763e-07
3.55962e-07
3.60865e-07
3.6414e-07
3.64918e-07
3.62663e-07
3.6617e-07
3.67142e-07
3.67417e-07
3.67173e-07
3.6824e-07
3.69309e-07
3.70425e-07
3.71767e-07
3.72972e-07
3.76313e-07
3.77553e-07
3.77764e-07
3.78595e-07
3.79887e-07
3.79846e-07
3.84397e-07
3.90376e-07
3.91737e-07
3.87132e-07
3.90788e-07
3.92226e-07
3.93696e-07
3.94552e-07
3.98385e-07
4.06747e-07
4.08326e-07
4.09922e-07
4.11566e-07
3.9939e-07
3.99728e-07
4.0132e-07
4.02951e-07
4.04632e-07
4.06365e-07
4.08137e-07
4.10585e-07
4.16102e-07
4.17256e-07
4.19032e-07
4.20849e-07
4.24705e-07
4.26523e-07
4.27563e-07
4.29481e-07
4.33896e-07
4.35781e-07
4.34977e-07
4.36887e-07
4.38785e-07
4.39748e-07
4.4168e-07
4.43628e-07
4.4666e-07
4.48603e-07
4.5278e-07
4.56103e-07
4.61599e-07
4.66245e-07
4.68251e-07
4.70324e-07
4.7246e-07
4.68186e-07
4.60276e-07
4.62254e-07
4.64225e-07
4.68336e-07
4.74011e-07
4.76054e-07
4.7557e-07
4.77654e-07
4.83497e-07
4.887e-07
4.92161e-07
4.9122e-07
4.90289e-07
4.92393e-07
4.96192e-07
4.96213e-07
4.96356e-07
4.98491e-07
5.00612e-07
5.02739e-07
5.0991e-07
5.14061e-07
5.1615e-07
5.13537e-07
5.15664e-07
5.19124e-07
5.26227e-07
5.38766e-07
5.42759e-07
5.4484e-07
5.46983e-07
5.49139e-07
5.51298e-07
5.30581e-07
5.30238e-07
5.32311e-07
5.3439e-07
5.36437e-07
5.40432e-07
5.42667e-07
5.44744e-07
5.53017e-07
5.58274e-07
5.60334e-07
5.6065e-07
5.58069e-07
5.60454e-07
5.67591e-07
5.69615e-07
5.68419e-07
5.66405e-07
5.68535e-07
5.7062e-07
5.72711e-07
5.74773e-07
5.76815e-07
5.79175e-07
5.85332e-07
5.87509e-07
5.89957e-07
5.96236e-07
6.12815e-07
6.14975e-07
6.17075e-07
6.1919e-07
6.21261e-07
5.97677e-07
5.96879e-07
5.98807e-07
6.00719e-07
6.02621e-07
6.0574e-07
6.12526e-07
6.17591e-07
6.1709e-07
6.22037e-07
6.24026e-07
6.25204e-07
6.24745e-07
6.26668e-07
6.31648e-07
6.33539e-07
6.3448e-07
6.34105e-07
6.3597e-07
6.37873e-07
6.40047e-07
6.4641e-07
6.48523e-07
6.46637e-07
6.46488e-07
6.48335e-07
6.50238e-07
6.52132e-07
6.75025e-07
6.81846e-07
6.83717e-07
6.85581e-07
6.8746e-07
6.67418e-07
6.60263e-07
6.61866e-07
6.64952e-07
6.6673e-07
6.6788e-07
6.69595e-07
6.71679e-07
6.78144e-07
6.80092e-07
6.81924e-07
6.81519e-07
6.82841e-07
6.86237e-07
6.91905e-07
6.93481e-07
6.87207e-07
6.88834e-07
6.90687e-07
6.92759e-07
7.34331e-07
7.66649e-07
7.68526e-07
7.29736e-07
7.13309e-07
7.07791e-07
7.07932e-07
7.13231e-07
7.17732e-07
7.19285e-07
7.19447e-07
7.26624e-07
7.3245e-07
7.34096e-07
7.33128e-07
7.2624e-07
7.2284e-07
7.23799e-07
7.25259e-07
7.27029e-07
7.29725e-07
7.31778e-07
7.33279e-07
7.33703e-07
7.35096e-07
7.3702e-07
7.42588e-07
7.44233e-07
7.45599e-07
7.44534e-07
7.43048e-07
7.47814e-07
7.51861e-07
7.53188e-07
7.5449e-07
7.54625e-07
7.52843e-07
7.52679e-07
7.53949e-07
7.55214e-07
7.56466e-07
7.57708e-07
7.62907e-07
7.75979e-07
7.77229e-07
7.7846e-07
7.79724e-07
7.68019e-07
7.63393e-07
7.64556e-07
7.641e-07
7.64631e-07
7.65781e-07
7.66962e-07
7.6809e-07
7.69186e-07
7.70271e-07
7.9236e-07
8.05441e-07
8.06815e-07
8.10229e-07
8.09805e-07
8.03549e-07
7.97406e-07
7.91371e-07
7.87211e-07
7.87714e-07
7.88756e-07
7.92451e-07
7.95493e-07
7.96527e-07
7.97562e-07
7.9809e-07
7.95269e-07
7.95898e-07
7.96878e-07
8.1086e-07
8.18479e-07
8.19468e-07
8.20482e-07
7.99833e-07
8.01104e-07
8.0726e-07
8.08193e-07
8.09092e-07
8.092e-07
8.05461e-07
8.05497e-07
8.06377e-07
8.0727e-07
8.10516e-07
8.17077e-07
8.18815e-07
8.16223e-07
8.13982e-07
8.14819e-07
8.15649e-07
8.16467e-07
8.18669e-07
8.22933e-07
8.23498e-07
8.20608e-07
8.1908e-07
8.18522e-07
8.14971e-07
8.14997e-07
8.50145e-07
8.51146e-07
8.51983e-07
8.528e-07
8.53504e-07
8.54249e-07
8.54976e-07
8.55719e-07
8.46524e-07
8.31693e-07
8.29554e-07
8.30246e-07
8.32596e-07
8.33248e-07
8.33879e-07
8.31928e-07
8.32145e-07
8.32758e-07
8.33366e-07
8.42814e-07
8.45056e-07
8.45665e-07
8.46245e-07
8.46098e-07
8.41897e-07
8.39123e-07
8.39382e-07
8.41992e-07
8.49979e-07
8.52957e-07
8.53497e-07
8.53194e-07
8.47943e-07
8.45446e-07
8.45946e-07
8.46444e-07
8.52299e-07
8.66155e-07
8.66638e-07
8.67105e-07
8.6757e-07
8.5656e-07
8.46965e-07
8.47145e-07
8.47565e-07
8.47981e-07
8.48352e-07
8.47693e-07
8.48539e-07
8.49036e-07
8.49414e-07
8.49789e-07
8.55042e-07
8.60733e-07
8.60852e-07
8.5551e-07
8.53641e-07
8.53975e-07
8.54347e-07
8.54668e-07
8.58669e-07
8.59324e-07
8.59623e-07
8.5979e-07
8.60209e-07
8.60578e-07
8.60848e-07
8.60354e-07
8.60148e-07
8.69757e-07
8.89527e-07
8.89763e-07
8.90015e-07
8.90258e-07
8.75594e-07
8.59215e-07
8.54579e-07
8.54772e-07
8.54956e-07
8.55135e-07
8.553e-07
8.55472e-07
8.55624e-07
8.56025e-07
8.61174e-07
8.6576e-07
8.66788e-07
8.66918e-07
8.6704e-07
8.67155e-07
8.65224e-07
8.65328e-07
8.65421e-07
8.61406e-07
8.61163e-07
8.61243e-07
8.61309e-07
8.61376e-07
8.62897e-07
8.63145e-07
8.67295e-07
8.65552e-07
8.6558e-07
8.65604e-07
8.79882e-07
9.33636e-07
9.33856e-07
3.59442e-07
3.60176e-07
3.63267e-07
3.64119e-07
3.61679e-07
3.62652e-07
3.66177e-07
3.65181e-07
3.66177e-07
3.67197e-07
3.68242e-07
3.6931e-07
3.7261e-07
3.74365e-07
3.75562e-07
3.76776e-07
3.7583e-07
3.76419e-07
3.77656e-07
3.78434e-07
3.7983e-07
3.8531e-07
3.86678e-07
3.8493e-07
3.86333e-07
3.87803e-07
3.89396e-07
3.91741e-07
3.94275e-07
3.95769e-07
4.06651e-07
4.0836e-07
4.09954e-07
4.11574e-07
3.98087e-07
3.9969e-07
4.0133e-07
4.02986e-07
4.04657e-07
4.06337e-07
4.08071e-07
4.09849e-07
4.15886e-07
4.17239e-07
4.20211e-07
4.22547e-07
4.24345e-07
4.25719e-07
4.27577e-07
4.29469e-07
4.31414e-07
4.33311e-07
4.34963e-07
4.36882e-07
4.38795e-07
4.39747e-07
4.41668e-07
4.45967e-07
4.48845e-07
4.50813e-07
4.52759e-07
4.5279e-07
4.59989e-07
4.66281e-07
4.6835e-07
4.60094e-07
4.70827e-07