/*--------------------------------*- C++ -*----------------------------------*\
  =========                 |
  \\      /  F ield         | OpenFOAM: The Open Source CFD Toolbox
   \\    /   O peration     | Website:  https://openfoam.org
    \\  /    A nd           | Version:  7
     \\/     M anipulation  |
\*---------------------------------------------------------------------------*/
FoamFile
{
    version     2.0;
    format      ascii;
    class       volScalarField;
    location    "2500";
    object      p;
}
// * * * * * * * * * * * * * * * * * * * * * * * * * * * * * * * * * * * * * //

dimensions      [1 -1 -2 0 0 0 0];

internalField   nonuniform List<scalar> 
160000
(
133990
133990
133988
133987
133985
133983
133980
133976
133972
133968
133964
133959
133954
133949
133944
133937
133930
133923
133917
133911
133903
133894
133884
133875
133865
133855
133846
133837
133826
133814
133799
133786
133777
133767
133753
133739
133726
133713
133696
133679
133665
133651
133637
133621
133603
133589
133573
133552
133533
133518
133501
133485
133468
133449
133431
133410
133391
133373
133345
133319
133303
133288
133264
133235
133203
133182
133162
133141
133118
133080
133055
133031
133002
132971
132939
132910
132882
132851
132822
132795
132768
132746
132721
132690
132659
132632
132601
132561
132521
132488
132454
132421
132396
132370
132335
132288
132242
132201
132159
132112
132067
132020
131976
131939
131894
131845
131795
131748
131707
131667
131627
131573
131521
131472
131411
131356
131301
131245
131202
131163
131116
131051
130986
130930
130878
130837
130797
130739
130674
130615
130548
130474
130422
130382
130334
130264
130196
130127
130033
129927
129857
129809
129750
129677
129626
129567
129494
129425
129352
129269
129185
129106
129017
128947
128877
128798
128726
128667
128608
128547
128487
128416
128344
128276
128204
128136
128084
128023
127945
127859
127782
127716
127634
127581
127533
127452
127369
127287
127228
127174
127094
127019
126954
126859
126770
126693
126620
126551
126482
126433
126398
126368
126346
126336
126330
126325
126311
126290
126269
126251
126241
126232
126228
126228
126224
126205
126160
126124
126105
126090
126075
126059
126037
126011
125985
125955
125913
125877
125840
125794
125755
125717
125670
125618
125559
125490
125416
125328
125242
125157
125032
124925
124842
124759
124665
124572
124470
124360
124242
124129
124028
123918
123820
123717
123594
123489
123393
123292
123221
123169
123129
123102
123074
123035
122999
122967
122923
122863
122792
122735
122683
122631
122582
122528
122468
122401
122323
122243
122161
122075
121965
121848
121754
121662
121585
121511
121431
121337
121197
121070
120978
120890
120803
120716
120618
120506
120412
120315
120237
120173
120098
119982
119821
119661
119502
119367
119245
119085
118915
118768
118630
118533
118469
118416
118359
118289
118219
118151
118071
118010
117947
117854
117757
117655
117513
117359
117241
117135
117039
116940
116800
116623
116456
116310
116155
116022
115946
115878
115781
115670
115566
115445
115303
115184
115065
114935
114827
114724
114626
114512
114323
114147
114002
113844
113686
113499
113212
112985
112806
112664
112532
112396
112280
112155
111975
111792
111637
111480
111287
111065
110851
110667
110495
110306
110124
109940
109736
109604
109467
109231
108923
108613
108342
108163
107976
107752
107542
107276
106986
106679
106410
106123
105850
105592
105312
105055
104826
104594
104331
104038
103728
103411
103130
102844
102495
102266
102062
101769
101565
101408
133989
133989
133987
133986
133984
133982
133979
133975
133971
133967
133964
133959
133953
133947
133942
133936
133929
133923
133917
133911
133903
133894
133885
133875
133865
133853
133844
133835
133825
133814
133800
133787
133776
133766
133752
133738
133726
133711
133692
133678
133665
133651
133636
133619
133602
133589
133573
133550
133531
133518
133503
133486
133465
133448
133430
133408
133388
133369
133346
133323
133303
133284
133262
133234
133206
133184
133161
133137
133111
133083
133058
133032
133003
132970
132938
132910
132882
132851
132823
132795
132770
132745
132717
132684
132655
132631
132601
132563
132523
132488
132456
132424
132396
132368
132331
132282
132238
132197
132156
132111
132067
132024
131974
131935
131897
131846
131795
131750
131708
131667
131627
131575
131520
131465
131406
131353
131298
131246
131201
131160
131116
131058
130994
130937
130884
130838
130791
130732
130672
130612
130541
130469
130423
130384
130332
130253
130191
130131
130030
129926
129853
129803
129748
129683
129629
129566
129491
129420
129341
129251
129183
129115
129016
128944
128878
128805
128735
128671
128606
128542
128479
128414
128348
128276
128199
128132
128080
128021
127947
127873
127795
127721
127634
127580
127524
127443
127372
127297
127229
127166
127088
127011
126934
126839
126760
126690
126618
126544
126475
126428
126394
126365
126347
126341
126339
126334
126314
126291
126272
126259
126252
126248
126244
126239
126228
126207
126169
126140
126120
126106
126091
126074
126055
126030
125997
125966
125930
125888
125847
125804
125762
125717
125667
125612
125550
125484
125414
125330
125245
125155
125032
124918
124839
124768
124681
124581
124473
124362
124241
124126
124020
123903
123814
123724
123599
123487
123391
123296
123221
123172
123137
123113
123093
123064
123020
122981
122935
122875
122807
122739
122681
122633
122586
122527
122467
122404
122327
122242
122160
122070
121956
121856
121767
121668
121586
121506
121427
121337
121191
121070
120977
120891
120804
120719
120630
120532
120432
120326
120235
120159
120073
119963
119826
119679
119516
119361
119225
119067
118912
118768
118636
118547
118484
118428
118374
118311
118241
118171
118093
118023
117949
117853
117756
117652
117528
117387
117258
117145
117043
116934
116791
116615
116446
116308
116167
116036
115955
115888
115797
115676
115581
115476
115322
115204
115089
114950
114841
114740
114624
114485
114310
114141
113997
113847
113670
113475
113251
113032
112838
112679
112539
112395
112273
112151
111985
111796
111642
111489
111298
111066
110847
110663
110495
110315
110143
109955
109766
109619
109456
109223
108961
108669
108389
108165
107957
107732
107490
107237
106958
106670
106415
106119
105877
105658
105349
105066
104827
104577
104308
104042
103737
103417
103146
102858
102522
102280
102054
101788
101577
101406
133987
133986
133985
133983
133982
133980
133977
133974
133970
133966
133962
133958
133951
133945
133940
133934
133928
133922
133916
133909
133902
133894
133885
133874
133863
133852
133842
133832
133823
133813
133799
133786
133775
133764
133752
133737
133724
133708
133689
133675
133663
133649
133634
133615
133601
133588
133570
133547
133530
133517
133504
133487
133465
133446
133426
133404
133385
133365
133346
133326
133302
133280
133259
133234
133206
133185
133164
133138
133110
133084
133056
133027
132999
132967
132936
132910
132880
132851
132825
132797
132769
132744
132716
132682
132651
132625
132595
132564
132528
132491
132459
132428
132395
132363
132323
132275
132233
132190
132150
132110
132067
132024
131978
131933
131892
131848
131800
131751
131705
131664
131620
131570
131520
131460
131404
131350
131295
131248
131205
131160
131111
131054
130997
130941
130887
130838
130786
130728
130667
130602
130533
130477
130430
130384
130328
130253
130183
130115
130023
129924
129850
129799
129747
129682
129626
129566
129491
129412
129330
129247
129179
129103
129008
128941
128883
128811
128739
128676
128606
128538
128472
128407
128344
128273
128198
128131
128075
128012
127942
127877
127805
127730
127654
127582
127502
127427
127366
127300
127226
127157
127083
126995
126904
126822
126748
126678
126606
126534
126469
126422
126388
126366
126357
126353
126351
126341
126324
126306
126291
126279
126273
126272
126267
126257
126235
126211
126180
126160
126146
126128
126112
126095
126077
126047
126012
125979
125945
125902
125854
125811
125771
125723
125666
125606
125541
125476
125405
125323
125247
125159
125039
124926
124838
124763
124685
124596
124484
124361
124228
124118
124015
123898
123809
123723
123605
123487
123389
123302
123227
123181
123151
123132
123112
123084
123042
122997
122948
122889
122821
122748
122690
122643
122590
122525
122459
122397
122333
122255
122162
122059
121958
121861
121765
121670
121589
121504
121421
121328
121186
121075
120979
120897
120819
120728
120635
120544
120450
120337
120238
120144
120051
119952
119822
119669
119504
119345
119198
119048
118924
118792
118664
118573
118511
118457
118405
118347
118276
118191
118108
118036
117953
117857
117765
117659
117531
117398
117281
117164
117047
116923
116776
116617
116458
116316
116179
116068
115979
115899
115803
115677
115583
115492
115357
115232
115119
114974
114861
114757
114626
114472
114299
114117
113975
113839
113657
113463
113285
113099
112884
112693
112549
112397
112270
112147
111968
111788
111641
111497
111324
111084
110847
110656
110498
110345
110188
109991
109797
109633
109432
109212
108986
108721
108440
108174
107944
107721
107469
107186
106906
106668
106427
106122
105891
105692
105416
105081
104810
104571
104319
104059
103754
103442
103165
102866
102557
102295
102028
101786
101591
101411
133985
133984
133983
133981
133980
133978
133975
133972
133969
133965
133961
133955
133948
133943
133938
133933
133926
133920
133914
133907
133899
133892
133883
133871
133862
133852
133839
133829
133821
133809
133797
133784
133772
133761
133750
133736
133721
133703
133685
133673
133661
133648
133632
133614
133599
133584
133565
133546
133529
133515
133501
133486
133465
133444
133425
133404
133383
133362
133343
133321
133298
133277
133256
133231
133204
133183
133163
133138
133111
133086
133058
133022
132991
132961
132935
132912
132883
132853
132826
132795
132769
132743
132712
132675
132646
132620
132591
132561
132527
132493
132461
132426
132392
132355
132310
132270
132232
132185
132142
132107
132072
132028
131980
131933
131889
131846
131801
131751
131703
131660
131609
131560
131514
131461
131405
131347
131290
131245
131206
131158
131104
131049
130994
130937
130888
130841
130786
130726
130661
130597
130532
130482
130436
130385
130329
130253
130176
130100
130016
129930
129857
129794
129733
129673
129616
129561
129493
129405
129316
129244
129176
129098
129016
128940
128873
128801
128736
128675
128598
128530
128468
128402
128339
128273
128197
128128
128072
128010
127943
127882
127812
127726
127649
127575
127496
127422
127357
127289
127211
127142
127074
126986
126885
126804
126732
126664
126595
126524
126458
126415
126389
126380
126378
126374
126365
126355
126347
126337
126327
126316
126305
126298
126291
126280
126256
126227
126198
126179
126166
126146
126129
126113
126092
126058
126020
125987
125953
125912
125864
125818
125772
125719
125662
125601
125532
125466
125398
125316
125237
125144
125044
124946
124842
124766
124687
124588
124482
124370
124240
124123
124013
123889
123798
123705
123592
123483
123389
123310
123247
123207
123182
123163
123137
123104
123067
123013
122959
122904
122839
122768
122704
122650
122592
122523
122449
122385
122325
122257
122157
122058
121976
121875
121764
121676
121593
121505
121415
121313
121195
121084
120985
120901
120820
120736
120650
120553
120453
120339
120245
120148
120032
119929
119807
119646
119474
119301
119155
119045
118952
118850
118733
118636
118566
118505
118439
118369
118292
118206
118122
118042
117946
117860
117777
117669
117543
117421
117297
117156
117043
116928
116775
116617
116468
116334
116207
116110
116017
115927
115832
115688
115576
115484
115376
115258
115144
115008
114880
114771
114628
114456
114291
114119
113957
113822
113665
113470
113291
113123
112937
112736
112580
112417
112265
112126
111951
111784
111631
111481
111321
111118
110882
110665
110494
110348
110219
110055
109850
109663
109443
109230
109017
108762
108485
108195
107925
107691
107441
107120
106852
106652
106434
106127
105906
105719
105462
105108
104808
104576
104330
104074
103808
103497
103193
102887
102571
102285
102017
101784
101581
101405
133983
133982
133980
133979
133977
133975
133972
133970
133966
133962
133957
133950
133944
133940
133936
133930
133924
133917
133910
133904
133897
133889
133880
133869
133858
133847
133835
133826
133816
133805
133795
133782
133769
133759
133748
133733
133715
133698
133684
133672
133658
133645
133631
133612
133595
133578
133560
133541
133527
133514
133499
133483
133463
133442
133422
133402
133380
133360
133340
133317
133294
133271
133250
133226
133200
133181
133163
133139
133111
133084
133054
133019
132991
132961
132934
132911
132884
132853
132822
132795
132770
132740
132707
132671
132642
132615
132587
132557
132526
132493
132456
132419
132386
132349
132303
132265
132228
132183
132139
132105
132072
132032
131980
131934
131887
131842
131797
131745
131699
131656
131604
131549
131502
131460
131413
131347
131281
131240
131201
131152
131098
131045
130991
130936
130891
130842
130782
130719
130655
130593
130530
130483
130439
130387
130330
130259
130175
130089
130010
129929
129855
129785
129725
129668
129607
129549
129479
129396
129315
129239
129162
129086
129012
128940
128869
128799
128732
128663
128584
128520
128462
128396
128333
128271
128196
128127
128077
128023
127949
127881
127804
127718
127644
127567
127488
127410
127338
127268
127193
127125
127058
126977
126886
126794
126710
126643
126577
126509
126453
126426
126409
126405
126410
126407
126390
126382
126377
126371
126364
126351
126335
126323
126313
126301
126279
126248
126218
126195
126179
126158
126140
126122
126092
126057
126018
125987
125960
125922
125874
125822
125764
125706
125653
125595
125525
125456
125385
125306
125222
125120
125033
124949
124851
124773
124692
124584
124475
124361
124232
124123
124017
123895
123787
123677
123571
123476
123406
123340
123281
123250
123227
123201
123170
123128
123085
123031
122967
122911
122853
122790
122725
122653
122585
122514
122437
122374
122322
122261
122160
122057
121969
121860
121765
121695
121612
121508
121412
121305
121199
121092
120998
120917
120831
120735
120642
120552
120463
120361
120250
120137
120021
119909
119764
119587
119405
119276
119169
119062
118970
118887
118799
118718
118637
118558
118477
118394
118295
118218
118138
118044
117942
117864
117787
117675
117544
117422
117305
117169
117041
116919
116774
116630
116495
116359
116242
116153
116059
115957
115858
115709
115572
115477
115393
115294
115164
115031
114896
114763
114601
114442
114296
114131
113961
113817
113653
113453
113287
113135
112965
112771
112609
112453
112281
112118
111941
111785
111631
111471
111305
111117
110899
110675
110487
110344
110230
110092
109903
109699
109479
109258
109035
108795
108539
108251
107908
107634
107397
107102
106827
106629
106426
106168
105931
105733
105468
105100
104806
104591
104362
104088
103820
103528
103240
102927
102549
102267
102036
101815
101589
101401
133979
133978
133977
133975
133972
133970
133968
133965
133962
133957
133952
133946
133941
133938
133933
133927
133921
133914
133906
133899
133893
133886
133877
133864
133853
133842
133832
133822
133810
133801
133792
133780
133767
133756
133744
133728
133711
133695
133681
133668
133654
133641
133626
133607
133590
133575
133557
133539
133524
133511
133497
133479
133458
133440
133419
133397
133377
133357
133334
133312
133288
133263
133243
133222
133198
133179
133162
133138
133109
133080
133048
133018
132993
132963
132933
132909
132884
132854
132822
132792
132764
132734
132701
132667
132639
132610
132580
132552
132525
132491
132450
132411
132380
132346
132300
132260
132221
132181
132143
132104
132068
132028
131981
131937
131888
131838
131785
131733
131692
131654
131604
131546
131496
131454
131406
131341
131276
131230
131192
131147
131093
131042
130987
130937
130893
130833
130773
130716
130653
130591
130532
130485
130438
130381
130322
130260
130185
130096
130008
129925
129848
129775
129716
129660
129597
129530
129463
129390
129312
129229
129152
129080
129010
128943
128869
128792
128711
128641
128571
128512
128459
128395
128323
128264
128204
128136
128081
128025
127951
127874
127794
127703
127632
127564
127481
127391
127317
127246
127175
127113
127049
126961
126866
126776
126697
126626
126559
126504
126462
126447
126444
126451
126457
126453
126432
126417
126408
126401
126390
126375
126357
126343
126332
126319
126299
126271
126241
126214
126192
126168
126144
126119
126087
126055
126018
125987
125960
125926
125878
125813
125750
125692
125639
125585
125520
125449
125369
125291
125211
125114
125011
124922
124851
124777
124684
124572
124464
124356
124237
124122
124003
123882
123773
123656
123563
123482
123429
123387
123330
123295
123270
123241
123205
123158
123106
123047
122981
122919
122854
122800
122743
122658
122575
122500
122434
122379
122323
122250
122148
122057
121968
121866
121771
121702
121622
121509
121407
121300
121206
121107
121011
120928
120838
120746
120645
120544
120446
120351
120249
120128
120007
119884
119719
119534
119388
119282
119190
119093
118996
118923
118846
118765
118691
118604
118509
118419
118313
118241
118165
118056
117945
117861
117781
117671
117543
117424
117308
117181
117052
116920
116785
116646
116502
116377
116277
116191
116096
115981
115871
115736
115585
115489
115406
115306
115183
115058
114917
114746
114578
114446
114312
114123
113947
113811
113657
113451
113270
113124
112985
112822
112627
112455
112297
112124
111948
111795
111631
111462
111290
111105
110902
110698
110494
110350
110241
110112
109930
109717
109501
109280
109050
108799
108555
108292
107933
107606
107365
107108
106829
106617
106418
106194
105942
105722
105473
105113
104829
104610
104372
104107
103843
103555
103255
102910
102511
102266
102058
101838
101601
101402
133974
133973
133972
133970
133968
133966
133963
133960
133956
133952
133947
133942
133938
133934
133929
133923
133916
133909
133902
133895
133888
133881
133870
133858
133847
133838
133828
133818
133807
133798
133788
133777
133764
133751
133738
133723
133708
133693
133677
133662
133649
133635
133620
133601
133586
133571
133553
133536
133521
133507
133493
133474
133454
133436
133416
133392
133372
133351
133327
133305
133281
133256
133238
133221
133199
133177
133159
133138
133109
133075
133043
133017
132993
132962
132933
132907
132880
132850
132819
132787
132758
132727
132692
132665
132638
132607
132576
132548
132519
132485
132443
132405
132374
132339
132294
132250
132213
132180
132145
132102
132065
132026
131981
131936
131882
131833
131779
131723
131686
131650
131594
131538
131490
131446
131395
131330
131270
131227
131187
131143
131096
131041
130982
130935
130891
130823
130763
130711
130655
130595
130532
130478
130427
130372
130319
130257
130186
130108
130005
129918
129842
129770
129705
129646
129586
129521
129452
129375
129294
129208
129146
129081
129006
128945
128869
128780
128692
128623
128557
128502
128455
128394
128313
128257
128202
128136
128075
128018
127951
127869
127791
127707
127626
127554
127471
127377
127302
127230
127159
127096
127028
126937
126844
126763
126690
126611
126554
126518
126490
126479
126484
126492
126496
126493
126476
126453
126436
126427
126414
126397
126377
126360
126348
126336
126318
126296
126267
126229
126201
126176
126146
126113
126083
126054
126017
125982
125953
125919
125870
125801
125741
125683
125624
125567
125509
125441
125359
125277
125189
125096
124989
124909
124840
124758
124660
124555
124453
124349
124233
124111
123992
123878
123773
123679
123597
123525
123455
123417
123373
123336
123309
123276
123232
123179
123126
123066
123001
122938
122873
122810
122741
122643
122564
122503
122441
122379
122311
122231
122153
122072
121984
121880
121778
121701
121617
121503
121406
121314
121222
121119
121013
120924
120836
120747
120644
120544
120440
120334
120227
120099
119981
119869
119709
119522
119389
119291
119212
119127
119042
118970
118896
118798
118715
118631
118542
118452
118350
118270
118194
118074
117942
117846
117759
117662
117552
117439
117314
117181
117058
116926
116806
116683
116529
116398
116298
116207
116113
116003
115876
115744
115624
115516
115417
115310
115193
115075
114936
114735
114565
114447
114324
114133
113948
113805
113648
113454
113265
113119
112991
112849
112669
112463
112287
112118
111957
111813
111646
111453
111269
111097
110919
110732
110523
110360
110240
110109
109945
109765
109549
109285
109045
108807
108567
108311
107975
107592
107317
107084
106851
106624
106395
106161
105923
105702
105460
105147
104872
104648
104409
104137
103860
103575
103272
102906
102560
102299
102055
101812
101571
101394
133967
133967
133966
133965
133963
133961
133959
133955
133951
133947
133941
133937
133933
133929
133923
133916
133910
133904
133897
133889
133882
133873
133863
133853
133842
133832
133824
133816
133804
133794
133784
133772
133758
133747
133735
133719
133703
133686
133669
133656
133643
133629
133613
133596
133581
133566
133549
133533
133518
133505
133488
133468
133449
133431
133410
133387
133365
133342
133319
133299
133277
133254
133235
133217
133197
133175
133156
133135
133108
133072
133041
133016
132991
132959
132929
132903
132876
132845
132810
132780
132752
132720
132691
132663
132634
132601
132569
132543
132515
132479
132437
132398
132365
132327
132287
132249
132209
132173
132141
132105
132066
132023
131980
131930
131874
131824
131769
131717
131679
131636
131582
131536
131483
131434
131379
131320
131270
131229
131183
131139
131093
131034
130975
130934
130891
130821
130751
130697
130649
130594
130525
130467
130420
130373
130319
130249
130181
130103
129991
129908
129842
129772
129693
129636
129580
129508
129426
129355
129283
129203
129136
129057
128994
128938
128861
128771
128686
128613
128544
128491
128442
128376
128304
128254
128202
128130
128060
128007
127953
127876
127781
127704
127632
127549
127452
127361
127287
127216
127138
127063
126993
126912
126831
126753
126685
126615
126566
126545
126534
126534
126539
126533
126530
126526
126516
126491
126468
126453
126440
126421
126398
126380
126364
126349
126331
126311
126287
126248
126212
126178
126141
126111
126082
126051
126014
125978
125946
125907
125857
125792
125725
125666
125612
125558
125495
125413
125337
125263
125172
125078
124978
124896
124822
124732
124634
124541
124443
124334
124211
124094
124000
123903
123804
123723
123648
123582
123514
123465
123426
123381
123344
123305
123255
123200
123148
123080
123012
122957
122892
122821
122738
122636
122559
122503
122444
122373
122299
122231
122166
122089
122000
121895
121792
121707
121610
121501
121404
121311
121226
121129
121014
120918
120830
120737
120630
120541
120446
120330
120210
120071
119958
119846
119705
119544
119411
119311
119238
119160
119086
119020
118946
118844
118740
118646
118564
118484
118396
118304
118210
118086
117939
117839
117756
117674
117574
117437
117304
117179
117064
116945
116824
116705
116559
116421
116321
116225
116128
116020
115875
115733
115638
115548
115433
115324
115206
115079
114933
114728
114566
114442
114304
114131
113949
113810
113659
113462
113272
113133
113004
112846
112676
112490
112281
112108
111969
111830
111662
111470
111274
111080
110919
110766
110586
110399
110244
110094
109936
109774
109574
109304
109055
108816
108575
108311
107987
107625
107311
107077
106858
106609
106356
106134
105921
105679
105430
105201
104951
104695
104433
104147
103865
103579
103262
102881
102601
102368
102093
101792
101549
101390
133961
133962
133961
133960
133958
133956
133954
133950
133946
133941
133936
133931
133927
133922
133916
133910
133904
133898
133890
133881
133873
133864
133857
133848
133838
133829
133820
133810
133798
133788
133777
133765
133753
133742
133729
133712
133695
133676
133663
133651
133639
133623
133607
133590
133576
133560
133545
133529
133514
133500
133482
133460
133443
133426
133403
133380
133359
133335
133313
133294
133273
133250
133231
133212
133194
133175
133154
133132
133105
133070
133037
133011
132983
132952
132925
132901
132872
132836
132801
132774
132747
132716
132687
132659
132628
132593
132563
132536
132507
132472
132431
132393
132357
132318
132279
132242
132202
132167
132135
132100
132060
132020
131976
131921
131870
131819
131763
131713
131668
131612
131569
131528
131476
131429
131373
131316
131270
131226
131177
131134
131088
131030
130976
130929
130879
130819
130751
130691
130636
130572
130516
130465
130418
130371
130314
130247
130172
130075
129976
129902
129842
129775
129691
129624
129557
129482
129412
129340
129259
129189
129126
129044
128980
128917
128843
128768
128682
128605
128532
128475
128421
128358
128305
128256
128197
128126
128056
127997
127937
127870
127788
127702
127623
127532
127431
127349
127275
127194
127099
127037
126974
126896
126820
126750
126692
126640
126604
126587
126582
126589
126592
126584
126573
126561
126546
126524
126501
126480
126464
126446
126420
126397
126379
126361
126340
126319
126294
126259
126221
126183
126147
126116
126084
126045
126003
125970
125937
125896
125845
125776
125710
125657
125604
125537
125466
125391
125318
125242
125149
125055
124963
124882
124793
124699
124618
124536
124437
124332
124224
124112
124020
123924
123831
123760
123698
123640
123577
123511
123464
123419
123372
123330
123281
123214
123157
123086
123018
122968
122913
122841
122748
122645
122564
122496
122419
122367
122315
122246
122173
122074
121994
121912
121815
121722
121607
121497
121399
121311
121229
121126
121011
120910
120827
120742
120643
120539
120425
120305
120185
120071
119946
119808
119688
119561
119445
119356
119282
119205
119119
119046
118975
118899
118805
118688
118581
118492
118414
118332
118228
118104
117957
117847
117756
117677
117586
117450
117323
117191
117065
116954
116838
116721
116596
116457
116343
116239
116132
116024
115897
115749
115647
115560
115450
115343
115235
115092
114903
114706
114549
114407
114276
114133
113958
113821
113680
113487
113290
113138
112997
112843
112689
112527
112325
112110
111964
111827
111658
111487
111292
111070
110911
110768
110617
110453
110268
110104
109944
109767
109550
109316
109091
108857
108586
108268
107939
107645
107351
107077
106840
106600
106376
106151
105926
105675
105414
105218
105014
104739
104458
104159
103860
103577
103273
102925
102636
102392
102116
101814
101576
101401
133955
133955
133956
133955
133953
133951
133948
133944
133940
133934
133930
133925
133921
133916
133910
133903
133896
133889
133881
133872
133864
133858
133852
133842
133832
133823
133812
133801
133791
133780
133768
133758
133748
133735
133720
133703
133689
133672
133657
133645
133632
133615
133599
133583
133568
133553
133539
133524
133510
133495
133475
133453
133436
133419
133396
133375
133353
133329
133308
133289
133267
133245
133226
133208
133191
133174
133152
133127
133099
133062
133029
133001
132974
132946
132920
132894
132864
132830
132799
132770
132740
132707
132681
132655
132623
132587
132556
132528
132499
132462
132425
132390
132351
132311
132267
132230
132194
132161
132131
132095
132054
132015
131971
131911
131862
131813
131760
131710
131658
131604
131560
131512
131470
131429
131372
131312
131265
131222
131175
131128
131076
131022
130973
130925
130871
130813
130747
130684
130624
130565
130512
130460
130410
130360
130301
130235
130153
130050
129979
129916
129840
129753
129667
129602
129537
129467
129399
129320
129236
129178
129119
129032
128963
128891
128828
128764
128671
128590
128519
128463
128410
128347
128296
128249
128192
128119
128054
127992
127921
127855
127781
127690
127608
127521
127417
127334
127256
127174
127090
127020
126947
126881
126818
126758
126712
126680
126658
126645
126637
126636
126630
126626
126616
126608
126582
126555
126530
126508
126486
126467
126443
126417
126394
126373
126348
126324
126299
126263
126223
126184
126148
126118
126086
126045
126000
125964
125927
125884
125832
125760
125695
125641
125581
125510
125449
125381
125296
125211
125131
125048
124948
124860
124769
124686
124618
124543
124446
124341
124236
124133
124048
123967
123873
123793
123727
123673
123617
123549
123494
123450
123406
123352
123294
123227
123166
123092
123026
122970
122915
122857
122779
122663
122567
122491
122421
122369
122316
122239
122160
122067
121998
121926
121824
121722
121607
121497
121395
121307
121221
121119
121016
120920
120836
120745
120640
120512
120396
120289
120183
120072
119927
119790
119689
119588
119477
119387
119312
119233
119151
119081
118999
118921
118843
118747
118630
118525
118427
118336
118227
118100
117983
117875
117776
117683
117583
117460
117339
117209
117062
116962
116858
116725
116612
116502
116378
116252
116138
116033
115913
115762
115657
115573
115468
115357
115248
115088
114875
114703
114534
114365
114264
114155
113984
113830
113676
113489
113312
113162
113008
112855
112694
112526
112344
112103
111957
111821
111662
111508
111301
111065
110908
110772
110626
110478
110306
110130
109958
109766
109566
109347
109101
108844
108547
108221
107926
107661
107375
107078
106836
106618
106411
106192
105948
105669
105402
105215
105024
104781
104511
104185
103864
103574
103263
102958
102676
102384
102085
101819
101607
101418
133949
133948
133948
133948
133946
133944
133941
133936
133930
133926
133922
133918
133914
133909
133902
133895
133888
133881
133872
133864
133857
133852
133845
133834
133824
133813
133803
133793
133783
133772
133763
133753
133741
133727
133710
133697
133683
133668
133651
133637
133621
133606
133590
133575
133561
133547
133534
133519
133505
133489
133469
133448
133430
133411
133389
133369
133346
133322
133303
133284
133260
133240
133223
133204
133188
133172
133146
133119
133089
133052
133021
132992
132964
132938
132913
132888
132857
132828
132800
132768
132733
132702
132677
132651
132614
132581
132551
132522
132491
132456
132420
132380
132341
132302
132258
132222
132190
132158
132126
132090
132049
132008
131964
131904
131853
131803
131752
131704
131654
131604
131555
131504
131462
131419
131366
131304
131254
131215
131172
131121
131066
131009
130967
130925
130866
130802
130738
130678
130620
130561
130505
130447
130394
130346
130292
130224
130128
130040
129975
129909
129821
129731
129652
129583
129518
129458
129393
129313
129232
129162
129089
129019
128947
128871
128809
128743
128656
128577
128507
128451
128398
128330
128282
128242
128192
128116
128046
127976
127907
127847
127773
127664
127595
127524
127406
127315
127234
127148
127076
127015
126937
126872
126820
126779
126746
126725
126710