/*--------------------------------*- C++ -*----------------------------------*\
  =========                 |
  \\      /  F ield         | OpenFOAM: The Open Source CFD Toolbox
   \\    /   O peration     | Website:  https://openfoam.org
    \\  /    A nd           | Version:  7
     \\/     M anipulation  |
\*---------------------------------------------------------------------------*/
FoamFile
{
    version     2.0;
    format      ascii;
    class       surfaceScalarField;
    location    "2500";
    object      phi;
}
// * * * * * * * * * * * * * * * * * * * * * * * * * * * * * * * * * * * * * //

dimensions      [0 3 -1 0 0 0 0];

internalField   nonuniform List<scalar> 
319200
(
4.37178e-17
1.46657e-16
1.43704e-16
1.04594e-16
2.2589e-16
1.3455e-16
3.19431e-16
1.375e-16
3.80213e-16
1.91157e-16
4.3822e-16
1.61275e-16
4.69014e-16
2.00021e-16
5.18048e-16
1.26401e-16
6.55135e-16
7.12761e-17
7.56288e-16
1.40353e-16
8.32173e-16
1.5606e-16
9.52229e-16
9.86533e-17
9.72505e-16
2.30974e-16
8.12337e-16
3.86878e-16
6.98229e-16
2.99412e-16
7.29219e-16
1.80698e-16
7.18848e-16
2.07527e-16
7.98968e-16
1.11303e-16
9.7156e-16
2.93234e-17
1.14355e-15
2.64184e-17
1.32018e-15
4.97725e-17
1.47044e-15
6.85299e-17
1.71642e-15
-3.6252e-17
2.00638e-15
-6.24098e-17
2.19485e-15
5.62188e-17
2.09331e-15
3.60771e-16
1.79088e-15
5.22445e-16
1.62832e-15
3.62848e-16
1.57862e-15
2.57462e-16
1.65014e-15
1.13123e-16
1.93472e-15
-1.01403e-16
2.33904e-15
-1.70546e-16
2.52321e-15
8.4919e-17
2.53286e-15
2.26718e-16
2.5898e-15
1.71454e-16
2.61115e-15
2.17135e-16
2.66937e-15
1.43907e-16
2.53701e-15
3.48451e-16
2.14682e-15
5.58641e-16
2.11976e-15
2.13196e-16
2.36655e-15
-1.37078e-17
2.51264e-15
8.6352e-17
2.48786e-15
2.62657e-16
2.39928e-15
2.64711e-16
2.39571e-15
2.0193e-16
2.54543e-15
4.70514e-17
2.67507e-15
6.04217e-17
2.65952e-15
2.15926e-16
2.51263e-15
3.74243e-16
2.6915e-15
2.54709e-17
3.28474e-15
-3.72709e-16
3.57394e-15
-7.78048e-17
3.33576e-15
4.32577e-16
3.27137e-15
2.46779e-16
3.34423e-15
1.31958e-16
3.1915e-15
3.19164e-16
2.83509e-15
5.81041e-16
2.54752e-15
4.70279e-16
2.77953e-15
-5.68774e-17
3.48141e-15
-5.19823e-16
3.62854e-15
9.05918e-17
3.19831e-15
6.1991e-16
3.07229e-15
3.12796e-16
3.12314e-15
1.26378e-16
3.54518e-15
-2.56586e-16
4.14129e-15
-3.73796e-16
4.15794e-15
1.98121e-16
3.42345e-15
9.5759e-16
2.62198e-15
9.71092e-16
3.17032e-15
-4.19109e-16
3.93699e-15
-5.60236e-16
4.26753e-15
-1.65529e-16
4.58663e-15
-1.1955e-16
4.59493e-15
1.64736e-16
4.56262e-15
2.22997e-16
4.67572e-15
6.8789e-17
4.87627e-15
-7.52179e-18
5.08351e-15
-3.04684e-17
5.35677e-15
-7.30181e-17
5.69157e-15
-1.53991e-16
6.158e-15
-2.6442e-16
6.08484e-15
2.88386e-16
5.50577e-15
7.7179e-16
4.72664e-15
9.6049e-16
4.00578e-15
8.98585e-16
3.93096e-15
2.48729e-16
4.12646e-15
-1.86137e-17
4.48396e-15
-1.9475e-16
4.98339e-15
-3.22744e-16
5.20116e-15
-2.16695e-17
5.79689e-15
-4.34335e-16
6.60902e-15
-6.18306e-16
6.82872e-15
-1.93001e-17
6.67962e-15
3.43323e-16
6.22218e-15
6.3738e-16
5.69611e-15
6.79053e-16
5.37847e-15
4.88444e-16
4.98573e-15
5.53507e-16
4.80607e-15
3.42088e-16
4.86472e-15
8.83156e-17
5.04044e-15
-9.50088e-18
5.64663e-15
-4.69724e-16
5.62806e-15
1.9882e-16
5.08758e-15
7.00951e-16
5.49793e-15
-2.68103e-16
5.78524e-15
-1.1069e-16
5.96826e-15
-3.8544e-17
6.64003e-15
-5.07801e-16
7.07845e-15
-2.67682e-16
7.42076e-15
-1.72777e-16
7.63804e-15
-3.85444e-17
8.03413e-15
-2.53662e-16
8.21462e-15
-6.26066e-18
7.62703e-15
7.39313e-16
7.34302e-15
4.32179e-16
7.13521e-15
3.70857e-16
7.01574e-15
2.65661e-16
7.38825e-15
-2.27947e-16
7.31431e-15
2.38321e-16
6.81915e-15
6.51021e-16
6.98556e-15
-1.69475e-17
7.95232e-15
-8.29463e-16
9.35454e-15
-1.25026e-15
1.07637e-14
-1.25234e-15
1.20541e-14
-1.1297e-15
1.24203e-14
-1.93302e-16
1.15505e-14
1.05275e-15
1.09124e-14
7.94223e-16
1.0873e-14
2.02334e-16
1.07085e-14
3.29383e-16
1.01906e-14
6.70226e-16
9.84739e-15
4.83976e-16
1.05639e-14
-5.79057e-16
1.13367e-14
-6.10895e-16
1.11892e-14
2.97631e-16
9.86181e-15
1.48779e-15
9.03158e-15
9.73471e-16
9.84424e-15
-6.58599e-16
9.80248e-15
1.80589e-16
9.94376e-15
-1.75679e-17
9.59316e-15
4.97053e-16
8.56908e-15
1.18714e-15
8.58394e-15
1.01302e-16
9.83343e-15
-1.10748e-15
1.07047e-14
-7.09395e-16
1.08363e-14
1.13964e-17
1.06749e-14
3.03811e-16
1.01866e-14
6.28343e-16
9.06395e-15
1.25753e-15
7.53757e-15
1.64996e-15
7.43462e-15
2.20085e-16
8.4876e-15
-9.20933e-16
8.56059e-15
4.53995e-17
8.2512e-15
4.53766e-16
8.50497e-15
-1.37931e-16
9.66658e-15
-1.02903e-15
1.09898e-14
-1.19059e-15
1.20066e-14
-8.69217e-16
1.18447e-14
3.01849e-16
1.08552e-14
1.13647e-15
9.85267e-15
1.13267e-15
9.58775e-15
4.00877e-16
1.03639e-14
-6.42597e-16
1.04848e-14
3.4453e-17
1.00657e-14
5.38092e-16
9.48777e-15
7.09949e-16
8.79146e-15
8.28318e-16
8.7116e-15
1.96711e-16
9.12456e-15
-2.88342e-16
1.07542e-14
-1.51417e-15
1.29663e-14
-2.07044e-15
1.40347e-14
-9.19976e-16
1.43515e-14
-1.84751e-16
1.40834e-14
4.2049e-16
1.2768e-14
1.45331e-15
1.14254e-14
1.46094e-15
1.20897e-14
-5.43357e-16
1.37538e-14
-1.53836e-15
1.42084e-14
-3.10775e-16
1.30038e-14
1.34537e-15
1.2536e-14
5.71628e-16
1.10771e-14
1.58928e-15
9.0139e-15
2.17257e-15
7.44883e-15
1.66576e-15
6.43089e-15
1.11584e-15
6.28079e-15
2.4759e-16
6.16458e-15
2.23887e-16
5.73011e-15
5.46268e-16
5.14862e-15
6.84868e-16
4.55082e-15
7.11234e-16
4.0051e-15
6.74244e-16
3.51431e-15
6.28105e-16
2.94117e-15
7.26037e-16
2.83427e-15
2.74083e-16
2.84729e-15
1.71156e-16
4.08694e-15
-1.12513e-15
6.14536e-15
-1.95923e-15
7.58101e-15
-1.26031e-15
8.66193e-15
-8.64949e-16
9.42217e-15
-5.37209e-16
1.01254e-14
-4.90387e-16
9.92534e-15
3.91801e-16
9.87915e-15
2.1239e-16
9.87777e-15
1.26826e-16
1.05514e-14
-5.79858e-16
1.1711e-14
-1.04453e-15
1.22198e-14
-3.70733e-16
1.29855e-14
-6.11435e-16
1.32916e-14
-1.60699e-16
1.36313e-14
-2.03897e-16
1.37821e-14
-1.84344e-17
1.39141e-14
1.26387e-18
1.39338e-14
1.04841e-16
1.39749e-14
7.31258e-17
1.3838e-14
2.5286e-16
1.33175e-14
6.3561e-16
1.36674e-14
-2.4956e-16
1.50223e-14
-1.25626e-15
1.52936e-14
-1.52687e-16
1.46134e-14
8.07876e-16
1.35873e-14
1.15725e-15
1.14692e-14
2.23705e-15
1.00312e-14
1.52364e-15
9.40078e-15
7.03522e-16
8.90656e-15
5.6242e-16
8.7126e-15
2.69883e-16
8.38455e-15
4.17363e-16
8.62867e-15
-1.71149e-16
9.1498e-15
-4.21238e-16
8.89654e-15
3.52975e-16
8.93999e-15
3.15399e-17
8.43212e-15
5.91022e-16
8.16485e-15
3.42533e-16
9.48957e-15
-1.23665e-15
1.13088e-14
-1.73181e-15
1.26409e-14
-1.23263e-15
1.31033e-14
-3.73643e-16
1.34944e-14
-2.92284e-16
1.3637e-14
-5.74342e-17
1.34491e-14
2.80896e-16
1.27572e-14
7.78629e-16
1.1355e-14
1.47933e-15
1.06467e-14
7.85566e-16
1.17167e-14
-9.97825e-16
1.25549e-14
-7.58694e-16
1.24914e-14
1.41052e-16
1.24159e-14
1.59117e-16
1.30589e-14
-5.58241e-16
1.31113e-14
7.28903e-17
1.29042e-14
3.99255e-16
1.24354e-14
6.64583e-16
1.19251e-14
6.91766e-16
1.15739e-14
5.0293e-16
1.07932e-14
9.02555e-16
1.08465e-14
4.3892e-17
1.12225e-14
-2.80457e-16
1.05333e-14
7.82122e-16
1.23093e-14
-1.70525e-15
1.6489e-14
-4.11203e-15
1.87361e-14
-2.12663e-15
1.63611e-14
2.5144e-15
1.33427e-14
3.14247e-15
1.13534e-14
2.08447e-15
1.06514e-14
7.74185e-16
1.1318e-14
-6.04051e-16
1.24957e-14
-1.09801e-15
1.31696e-14
-5.89832e-16
1.40069e-14
-7.7549e-16
1.51725e-14
-1.10266e-15
1.44385e-14
8.21009e-16
1.26001e-14
1.91684e-15
1.27912e-14
-1.04285e-16
1.32562e-14
-3.71551e-16
1.27104e-14
6.34946e-16
1.2539e-14
2.46461e-16
1.27577e-14
-1.58622e-16
1.38123e-14
-9.96244e-16
1.45891e-14
-6.98245e-16
1.35532e-14
1.11098e-15
1.27536e-14
8.8593e-16
1.23758e-14
4.54624e-16
1.26139e-14
-1.6505e-16
1.2796e-14
-1.04964e-16
1.31354e-14
-2.54593e-16
1.42557e-14
-1.02583e-15
1.69716e-14
-2.62622e-15
1.97552e-14
-2.69056e-15
2.12595e-14
-1.42628e-15
2.12703e-14
6.29447e-17
1.80506e-14
3.28939e-15
1.44599e-14
3.65991e-15
1.32608e-14
1.24867e-15
1.48252e-14
-1.51399e-15
1.75467e-14
-2.66558e-15
1.96479e-14
-2.0427e-15
1.89956e-14
7.12929e-16
1.66264e-14
2.44222e-15
1.54231e-14
1.25838e-15
1.51618e-14
3.23307e-16
1.52851e-14
-5.97763e-17
1.63525e-14
-9.54266e-16
1.95441e-14
-3.02258e-15
2.30391e-14
-3.32134e-15
2.47552e-14
-1.54291e-15
2.5803e-14
-8.84465e-16
2.62406e-14
-2.85927e-16
2.68757e-14
-4.96521e-16
2.62776e-14
7.21576e-16
2.55978e-14
7.87388e-16
2.54686e-14
2.18439e-16
2.33332e-14
2.2128e-15
2.1559e-14
1.84069e-15
2.14087e-14
2.05792e-16
2.17813e-14
-3.07566e-16
2.29778e-14
-1.11562e-15
2.40732e-14
-9.96931e-16
2.287e-14
1.30262e-15
2.12982e-14
1.65302e-15
2.09011e-14
4.58611e-16
2.03431e-14
6.13881e-16
2.04406e-14
-4.95088e-17
2.09368e-14
-4.49741e-16
2.09167e-14
6.20706e-17
2.15395e-14
-5.65223e-16
2.28319e-14
-1.21481e-15
2.43756e-14
-1.43909e-15
2.55329e-14
-1.05617e-15
2.64369e-14
-8.11409e-16
2.665e-14
-1.24358e-16
2.5387e-14
1.34898e-15
2.55295e-14
-6.50346e-17
2.7085e-14
-1.47928e-15
2.71655e-14
-4.12476e-18
2.90202e-14
-1.78193e-15
3.10111e-14
-1.91847e-15
3.19754e-14
-8.92209e-16
3.41734e-14
-2.12998e-15
3.7453e-14
-3.21878e-15
3.59981e-14
1.53636e-15
2.97823e-14
6.30934e-15
2.67699e-14
3.08159e-15
2.55343e-14
1.30297e-15
2.49833e-14
6.25112e-16
2.57651e-14
-7.10662e-16
2.42216e-14
1.59871e-15
2.21546e-14
2.1163e-15
2.45236e-14
-2.31816e-15
2.87566e-14
-4.17656e-15
3.16898e-14
-2.85524e-15
3.28528e-14
-1.0853e-15
3.22899e-14
6.35715e-16
3.08498e-14
1.50322e-15
2.85982e-14
2.30987e-15
2.76793e-14
9.71457e-16
2.81786e-14
-4.41909e-16
2.78105e-14
4.25966e-16
2.75656e-14
3.02898e-16
2.77033e-14
-7.57609e-17
2.76693e-14
9.59388e-17
2.67914e-14
9.33923e-16
2.59106e-14
9.3311e-16
2.56622e-14
2.97621e-16
2.61092e-14
-3.95478e-16
2.77166e-14
-1.55782e-15
3.14001e-14
-3.62569e-15
3.32448e-14
-1.78315e-15
3.80784e-14
-4.77719e-15
4.23016e-14
-4.15708e-15
3.98164e-14
2.55223e-15
3.79063e-14
1.97585e-15
4.08616e-14
-2.89473e-15
4.66076e-14
-5.68308e-15
5.2861e-14
-6.19089e-15
5.26647e-14
2.69334e-16
4.91541e-14
3.57096e-15
4.45579e-14
4.66431e-15
3.66196e-14
7.99646e-15
3.07729e-14
5.90136e-15
2.78777e-14
2.9454e-15
2.68988e-14
1.02909e-15
2.75075e-14
-5.5596e-16
2.71698e-14
3.89319e-16
3.16605e-14
-4.44078e-15
3.98653e-14
-8.14892e-15
4.43036e-14
-4.38061e-15
4.61614e-14
-1.80001e-15
4.63646e-14
-1.39114e-16
4.38182e-14
2.60967e-15
4.06286e-14
3.24823e-15
4.11882e-14
-5.03709e-16
4.23766e-14
-1.12907e-15
4.32901e-14
-8.5551e-16
4.62182e-14
-2.86405e-15
4.83144e-14
-2.02681e-15
5.18979e-14
-3.51746e-15
5.60986e-14
-4.10621e-15
5.46987e-14
1.49502e-15
5.78339e-14
-3.06144e-15
6.15532e-14
-3.60944e-15
8.08375e-16
8.65024e-17
3.23646e-16
1.53041e-16
2.3412e-16
1.76583e-16
3.05149e-16
2.44636e-16
2.84358e-16
3.03506e-16
3.40217e-16
4.21096e-16
2.63128e-16
5.38441e-16
3.13102e-16
5.83821e-16
2.97194e-16
6.62773e-16
2.10097e-16
7.39184e-16
2.87492e-16
7.96593e-16
3.2783e-16
8.42586e-16
2.56644e-16
9.41926e-16
3.38131e-16
1.03375e-15
5.08666e-16
1.00131e-15
5.6292e-16
1.04266e-15
3.34444e-16
1.25403e-15
2.03495e-16
1.47138e-15
1.43639e-16
1.46865e-15
2.76314e-16
1.38262e-15
3.54563e-16
1.39427e-15
2.54538e-16
1.53116e-15
1.37911e-16
1.65951e-15
5.9399e-17
1.57334e-15
2.46446e-16
1.60521e-15
2.21744e-16
2.00076e-15
1.61817e-16
2.25892e-15
5.01857e-16
2.16949e-15
6.81995e-16
2.15183e-15
4.75775e-16
2.2772e-15
2.05111e-16
2.14214e-15
2.5125e-16
1.919e-15
2.68851e-16
1.8313e-15
4.03048e-16
1.90192e-15
3.74348e-16
2.14911e-15
1.26825e-16
2.38002e-15
1.88028e-16
2.342e-15
3.98239e-16
2.46066e-15
3.76272e-16
2.79104e-15
4.23565e-16
2.72562e-15
5.22872e-16
2.50827e-15
4.40288e-16
2.50565e-15
3.04172e-16
2.5557e-15
4.51661e-16
2.53193e-15
4.55619e-16
2.72858e-15
2.02231e-16
2.86369e-15
1.26481e-16
2.70892e-15
4.03184e-16
2.7564e-15
3.4961e-16
2.9913e-15
3.59019e-16
2.99533e-15
2.66826e-16
2.83092e-15
2.98601e-18
3.03382e-15
-8.87992e-17
3.54326e-15
1.0505e-16
3.49346e-15
5.27817e-16
3.17119e-15
6.16665e-16
3.13089e-15
5.40565e-16
3.06827e-15
8.40089e-16
2.9844e-15
7.3553e-16
3.03406e-15
8.11375e-17
3.01564e-15
-3.11055e-16
3.04529e-15
2.53029e-16
3.11016e-15
7.55479e-16
3.14659e-15
4.54497e-16
3.37306e-15
7.34311e-17
3.24864e-15
6.14264e-17
3.21902e-15
-1.49988e-16
3.91017e-15
-3.26023e-16
5.15029e-15
-7.75994e-17
6.19808e-15
1.25963e-16
6.24023e-15
-2.44915e-16
5.50418e-15
4.02899e-16
4.61141e-15
9.37531e-16
4.16951e-15
4.96358e-16
4.18689e-15
3.31018e-16
4.36809e-15
2.2834e-16
4.52188e-15
1.18553e-16
4.41645e-15
2.83737e-16
4.48894e-15
8.29883e-17
5.0469e-15
-4.5886e-16
5.27302e-15
-1.83541e-16
5.02218e-15
1.79431e-16
5.2135e-15
2.83232e-16
5.88546e-15
2.83561e-16
6.80643e-15
2.21598e-16
6.91987e-15
9.96587e-16
6.01912e-15
1.36335e-15
5.12621e-15
1.04383e-15
5.23257e-15
-1.29988e-16
5.71668e-15
-6.30632e-16
6.35677e-15
-4.74085e-16
6.68802e-15
-5.68787e-16
6.85535e-15
-6.01362e-16
6.8993e-15
1.4135e-16
6.47087e-15
9.63372e-16
6.54047e-15
7.29646e-16
6.61305e-15
7.83748e-16
6.60703e-15
6.63906e-16
6.46011e-15
8.76457e-16
6.15897e-15
8.27792e-16
6.37198e-15
3.88678e-17
6.66087e-15
-1.10229e-16
6.54495e-15
-1.74631e-16
7.43292e-15
-5.44788e-16
7.86023e-15
4.49494e-16
7.11516e-15
6.46115e-16
7.53154e-15
-3.74903e-16
8.44286e-15
-7.73178e-16
8.30559e-15
-1.76789e-16
7.7414e-15
4.75357e-16
7.19436e-15
5.55374e-16
6.50901e-15
8.21556e-16
5.84788e-15
5.55949e-16
6.00419e-15
-1.55894e-17
6.61528e-15
2.70575e-16
7.02455e-15
1.68363e-16
7.37187e-15
1.71748e-16
7.55183e-15
2.33657e-16
7.8379e-15
-3.58489e-16
9.03724e-15
-8.0165e-16
1.00623e-14
-2.01109e-16
9.59399e-15
6.22001e-16
8.60907e-15
3.17448e-16
8.04731e-15
-5.27605e-16
7.59139e-15
-6.35389e-16
7.31333e-15
-6.94439e-16
7.63045e-15
-3.52399e-16
8.38715e-15
4.54717e-16
9.03356e-15
2.93153e-16
8.98787e-15
4.0569e-16
8.60318e-15
8.6787e-16
8.70458e-15
7.17936e-16
1.08459e-14
-1.53502e-15
1.25032e-14
-2.07981e-15
1.21928e-14
-1.35553e-16
1.22581e-14
3.81483e-16
1.41089e-14
-2.4368e-16
1.34162e-14
1.82001e-15
1.08742e-14
2.02299e-15
1.07419e-14
4.42813e-16
1.09384e-14
-8.04094e-17
1.10183e-14
5.5881e-16
1.12629e-14
1.092e-15
1.14454e-14
6.3943e-17
1.03752e-14
1.12872e-16
9.3706e-15
4.47043e-16
9.72598e-15
-2.16579e-16
1.0236e-14
-6.09889e-17
1.00975e-14
9.06248e-16
1.02831e-14
1.2061e-15
1.18119e-14
2.40467e-16
1.15179e-14
6.76879e-16
9.65325e-15
1.07019e-15
9.05734e-15
7.62845e-16
9.26642e-15
3.7395e-16
1.01668e-14
-9.06591e-16
1.01125e-14
-8.31825e-16
9.69283e-15
-6.43931e-16
9.76281e-15
-7.99898e-16
1.03172e-14
-1.25888e-16
1.10591e-14
5.34573e-16
1.15034e-14
8.24593e-16
1.0981e-14
1.06618e-15
1.00267e-14
4.56742e-16
9.99273e-15
2.06552e-16
1.06885e-14
-2.58623e-17
1.15554e-14
-2.58335e-17
1.16245e-14
9.01665e-16
1.0868e-14
1.07902e-15
1.01353e-14
5.73766e-16
9.54059e-15
-7.77795e-16
9.18314e-15
-1.57003e-15
9.85097e-15
-1.44913e-15
1.22612e-14
-2.477e-15
1.34267e-14
-6.03339e-16
1.29003e-14
2.10388e-15
1.20276e-14
2.45203e-15
1.0798e-14
8.08074e-16
1.00179e-14
-6.40094e-16
9.71044e-15
1.18812e-16
1.0117e-14
1.05787e-15
1.05746e-14
2.26384e-16
1.05879e-14
1.69952e-15
9.72569e-15
3.14521e-15
9.64963e-15
1.83198e-15
9.3614e-15
1.5113e-15
8.26221e-15
1.4499e-15
7.35143e-15
1.24425e-15
6.95619e-15
1.04277e-15
7.00751e-15
7.35412e-16
6.57276e-15
1.26981e-15
5.76925e-15
1.61582e-15
5.40385e-15
1.18821e-15
6.16026e-15
1.72797e-16
7.15371e-15
-5.36512e-16
7.96941e-15
-5.04294e-16
8.58966e-15
-1.63009e-15
8.62856e-15
-1.83876e-15
1.00751e-14
-2.53305e-15
1.19478e-14
-2.51524e-15
1.34042e-14
-1.79357e-15
1.46512e-14
-1.56387e-15
1.57499e-14
-5.58807e-16
1.66578e-14
-5.70247e-16
1.78258e-14
-9.31575e-16
1.80714e-14
-7.14825e-16
1.68544e-14
3.03915e-16
1.57775e-14
8.42095e-16
1.68116e-14
-1.51028e-15
1.72092e-14
-4.40934e-16
1.70534e-14
6.11398e-17
1.67811e-14
3.63462e-16
1.72619e-14
-3.74357e-16
1.7388e-14
7.18341e-17
1.65953e-14
9.54568e-16
1.61887e-14
7.51845e-16
1.63689e-14
5.45227e-16
1.60824e-14
1.22725e-16
1.51065e-14
-1.77505e-16
1.39139e-14
1.15349e-15
1.29336e-14
1.89002e-15
1.27381e-14
1.4396e-15
1.3777e-14
1.26891e-15
1.4478e-14
8.91652e-16
1.4751e-14
4.98953e-16
1.46889e-14
7.01842e-16
1.4031e-14
1.01323e-15
1.31041e-14
1.43546e-15
1.20735e-14
9.38581e-16
1.21208e-14
-3.81106e-16
1.28498e-14
-2.93297e-16
1.3678e-14
-7.13862e-16
1.55229e-14
-1.17191e-15
1.60294e-14
-6.69212e-17
1.41062e-14
8.08242e-16
1.3161e-14
-6.9312e-16
1.40743e-14
-2.05816e-15
1.51795e-14
-1.38176e-15
1.51488e-14
-1.62392e-16
1.42084e-14
9.68659e-16
1.36086e-14
9.70632e-16
1.40532e-14
4.17903e-16
1.52122e-14
3.94583e-16
1.5316e-14
7.60674e-16
1.46368e-14
-2.3835e-16
1.50201e-14
-1.07731e-15
1.5567e-14
-3.31925e-16
1.55435e-14
2.62561e-16
1.61612e-14
-1.04497e-15
1.6699e-14
-2.72942e-16
1.68045e-14
4.91009e-16
1.68546e-14
7.96413e-16
1.78999e-14
-2.03512e-16
1.77121e-14
8.06029e-16
1.72289e-14
1.48606e-15
1.72675e-14
9.82643e-17
1.7202e-14
-1.2296e-16
1.80676e-14
-2.78478e-18
1.88319e-14
-2.39957e-15
1.77579e-14
-2.94552e-15
1.58307e-14
-6.94321e-17
1.60448e-14
2.41794e-15
1.72479e-14
2.02437e-15
1.77581e-14
1.64335e-15
1.78624e-14
7.3443e-16
1.6581e-14
7.5246e-16
1.49597e-14
6.09366e-16
1.61175e-14
-1.68132e-15
1.8988e-14
-3.5893e-15
1.96826e-14
-1.71671e-15
1.85926e-14
2.00032e-15
1.9244e-14
1.35995e-15
1.84687e-14
7.58982e-16
1.61723e-14
2.01866e-15
1.56811e-14
1.20696e-15
1.64944e-14
-4.95713e-16
1.74235e-14
-1.02695e-15
1.71975e-14
-7.01381e-16
1.63007e-14
2.7683e-16
1.58377e-14
1.65142e-15
1.62137e-14
5.93702e-16
1.63864e-14
3.62447e-16
1.7423e-14
-1.12061e-15
1.937e-14
-1.9625e-15
2.00831e-14
-8.66279e-16
1.88156e-14
3.40022e-16
1.74355e-14
-1.15908e-15
1.66553e-14
-1.83476e-15
1.68452e-14
-1.54873e-15
1.80208e-14
-1.04757e-15
1.92247e-14
2.15109e-15
1.90907e-14
3.84734e-15
1.98569e-14
5.33153e-16
1.96389e-14
-1.24171e-15
1.73455e-14
-3.11269e-16
1.51786e-14
1.72936e-16
1.44013e-14
1.53304e-15
1.41976e-14
2.69338e-15
1.38555e-14
1.65491e-15
1.58306e-14
-1.60903e-15
1.82805e-14
-2.45398e-15
2.0959e-14
-3.50617e-15
2.21531e-14
-4.04826e-15
2.30277e-14
-4.02695e-15
2.54718e-14
-3.84098e-15
2.77281e-14
-3.021e-15
2.92295e-14
-1.69147e-15
2.94679e-14
-6.56221e-16
2.84143e-14
1.84546e-15
2.72924e-14
1.97484e-15
2.64352e-14
1.13763e-15
2.6572e-14
2.13534e-15
2.75238e-14
9.46019e-16
2.87509e-14
-9.59498e-16
2.89573e-14
-4.43206e-16
2.59241e-14
1.99426e-15
2.21995e-14
2.81439e-15
2.22623e-14
1.31128e-15
2.35081e-14
4.62277e-16
2.38239e-14
1.94249e-16
2.37975e-14
6.89105e-16
2.36726e-14
1.19912e-16
2.58215e-14
-2.55573e-15
2.95616e-14
-3.62235e-15
3.06145e-14
-1.54623e-15
2.99279e-14
-4.56483e-16
3.28502e-14
-4.25963e-15
3.55793e-14
-3.69746e-15
3.53679e-14
-5.17687e-16
3.38781e-14
1.44759e-15
3.30817e-14
2.22046e-15
3.11313e-14
1.95172e-15
2.9528e-14
1.86008e-16
3.07207e-14
-1.13378e-15
3.17253e-14
-2.72405e-15
3.16158e-14
-1.74366e-15
3.22082e-14
-1.41681e-15
3.27941e-14
-2.65189e-15
3.15741e-14
-1.9383e-15
3.21373e-14
1.03534e-15
3.49792e-14
3.52857e-15
3.55662e-14
2.55152e-15
3.3106e-14
3.82548e-15
2.9734e-14
4.0691e-15
2.82162e-14
8.71771e-16
2.83868e-14
1.47857e-15
2.85462e-14
2.00923e-15
2.91783e-14
-2.89735e-15
3.07442e-14
-5.66809e-15
3.06974e-14
-2.73801e-15
3.00294e-14
-3.50311e-16
3.07772e-14
-5.15782e-17
3.15028e-14
8.34483e-16
3.24139e-14
1.45139e-15
3.20654e-14
1.37411e-15
2.9091e-14
2.58814e-15
2.73928e-14
2.1758e-15
2.66461e-14
1.09944e-15
2.66827e-14
-6.15008e-17
2.78252e-14
-9.95826e-16
2.91966e-14
-3.87188e-16
2.97214e-14
4.58022e-16
2.91699e-14
9.00166e-16
2.96342e-14
-8.07775e-16
3.27745e-14
-4.64435e-15
3.65269e-14
-7.31582e-15
3.79376e-14
-3.13207e-15
3.78829e-14
-4.66248e-15
3.57342e-14
-1.93799e-15
3.46417e-14
3.70639e-15
3.42272e-14
2.44364e-15
3.37269e-14
-2.34153e-15
3.32342e-14
-5.13947e-15
3.2475e-14
-5.37719e-15
3.35182e-14
-7.2011e-16
3.45486e-14
2.5974e-15
3.71135e-14
2.15214e-15
4.17381e-14
3.42359e-15
4.04025e-14
7.29303e-15
3.70174e-14
6.38067e-15
3.76759e-14
4.22953e-16
3.84173e-14
-1.23711e-15
3.9087e-14
-2.3573e-16
3.74162e-14
-2.70976e-15
3.36671e-14
-4.34392e-15
3.52303e-14
-5.89716e-15
3.53463e-14
-1.85987e-15
3.29709e-14
2.29247e-15
3.47889e-14
8.4383e-16
3.95928e-14
-1.5041e-15
4.1639e-14
-2.49219e-15
4.23031e-14
-1.74179e-15
4.54517e-14
-3.9479e-15
4.59609e-14
-3.31274e-15
4.50946e-14
-1.09896e-15
4.69507e-14
-5.31457e-15
4.61014e-14
-3.17667e-15
4.41444e-14
3.52702e-15
4.08784e-14
2.95763e-16
4.04272e-14
-3.07929e-15
-1.23456e-15
9.61154e-17
4.13742e-16
1.46952e-16
3.53933e-16
2.09456e-16
4.49636e-16
2.65449e-16
3.9639e-16
3.43157e-16
4.82722e-16
3.97531e-16
3.94043e-16
5.56337e-16
3.61299e-16
6.48045e-16
4.34849e-16
7.61995e-16
2.91097e-16
9.65139e-16
3.14014e-16
1.12674e-15
4.17255e-16
1.11706e-15
4.91487e-16
1.13069e-15
5.27573e-16
1.34403e-15
5.25212e-16
1.55436e-15
6.04426e-16
1.67312e-15
4.34804e-16
1.61922e-15
5.05506e-16
1.46323e-15
5.50134e-16
1.39193e-15
5.62459e-16
1.39291e-15
5.87337e-16
1.40904e-15
4.51558e-16
1.33089e-15
4.35355e-16
1.2967e-15
2.94773e-16
1.24836e-15
4.81029e-16
1.29804e-15
3.51333e-16
1.48674e-15
1.66058e-16
1.72424e-15
4.64686e-16
2.05889e-15
5.49482e-16
2.18169e-15
5.90268e-16
2.03625e-15
5.55694e-16
2.08258e-15
4.06496e-16
2.13143e-15
4.37323e-16
2.13256e-15
6.26732e-16
2.05007e-15
6.99611e-16
1.97216e-15
4.04006e-16
2.05733e-15
2.93109e-16
2.07406e-15
5.7919e-16
2.10789e-15
5.3698e-16
2.12391e-15
6.00528e-16
2.21438e-15
6.31048e-16
2.37319e-15
4.82566e-16
2.55904e-15
3.18568e-16
2.91667e-15
3.00492e-16
3.30042e-15
2.65417e-16
3.09325e-15
6.65322e-16
2.60653e-15
8.19142e-16
2.52832e-15
6.67759e-16
2.73864e-15
3.21905e-16
3.12163e-15
1.86632e-16
3.09957e-15
5.28476e-16
2.67796e-15
6.32909e-16
2.54717e-15
2.2805e-16
2.66836e-15
1.65408e-16
3.02024e-15
3.58348e-16
3.54135e-15
2.82021e-16
4.17427e-15
9.41491e-17
4.81382e-15
4.08763e-16
5.13645e-15
6.34971e-16
4.58029e-15
8.81609e-16
3.61167e-15
8.52468e-16
3.43125e-15
6.2135e-16
3.70895e-15
6.65311e-16
3.81733e-15
5.55953e-16
3.66975e-15
4.13344e-16
3.61669e-15
3.02785e-16
3.334e-15
3.56e-16
2.98727e-15
2.07086e-16
3.03003e-15
6.10466e-17
3.30394e-15
1.14637e-17
3.44535e-15
-2.04803e-16
4.07292e-15
-7.33828e-17
4.48454e-15
7.19167e-16
4.08736e-15
1.09751e-15
3.66796e-15
9.14064e-16
3.8425e-15
2.15798e-16
4.55101e-15
-4.08111e-16
5.2968e-15
-2.79718e-16
5.95612e-15
-3.85064e-16
5.7969e-15
-9.14127e-17
5.48666e-15
3.09711e-16
5.81279e-15
4.26096e-17
6.1688e-15
1.35883e-16
5.98626e-15
6.77387e-16
5.47673e-15
9.07789e-16
5.37698e-15
1.28248e-15
5.88136e-15
1.02897e-15
6.25565e-15
8.54687e-16
5.7159e-15
6.11855e-16
5.0502e-15
2.11107e-16
5.17679e-15
-4.38776e-16
5.00988e-15
-2.11755e-16
4.29867e-15
2.83626e-16
4.3426e-15
2.50002e-16
4.54538e-15
9.35012e-16
4.36918e-15
1.05609e-15
4.5933e-15
6.9726e-16
5.38027e-15
3.44527e-17
5.84241e-15
5.7839e-16
5.63425e-15
1.20489e-15
5.43283e-15
4.02534e-16
6.17802e-15
-7.10104e-16
6.74562e-15
-5.79115e-16
6.71182e-15
-3.53849e-16
7.40961e-15
-9.51913e-17
7.63437e-15
5.8511e-16
7.07748e-15
3.58354e-16
6.70042e-15
-2.1853e-16
6.7149e-15
-3.21541e-17
7.19083e-15
1.5845e-16
7.33065e-15
5.89658e-16
7.13789e-15
1.17067e-15
6.39086e-15
1.46127e-15
6.01165e-15
5.1561e-16
6.63954e-15
-2.18307e-16
7.29916e-15
-3.35371e-16
7.40302e-15
2.17793e-16
7.19537e-15
5.90032e-16
6.8066e-15
1.89012e-16
6.5727e-15
-3.95978e-16
6.49906e-15
4.15278e-17
6.72182e-15
5.53605e-16
6.89151e-15
2.91568e-16
6.46678e-15
4.8574e-17
5.89701e-15
8.23055e-17
5.71961e-15
-3.72854e-16
6.16698e-15
-6.54251e-16
7.1312e-15
-3.73349e-16
7.72419e-15
-1.55147e-16
7.80124e-15
4.76958e-16
8.51776e-15
2.86081e-16
9.6083e-15
-2.37932e-16
9.45314e-15
-1.22319e-15
8.77753e-15
-1.243e-15
9.33563e-15
-5.49327e-16
1.02331e-14
-3.74998e-16
1.04331e-14
-3.07476e-16
1.14556e-14
9.29049e-16
1.18745e-14
1.73911e-15
1.19643e-14
4.89305e-16
1.30519e-14
-1.02985e-15
1.53978e-14
-1.63979e-15
1.56292e-14
1.03996e-15
1.35142e-14
2.33499e-15
1.23593e-14
1.41102e-15
1.09458e-14
2.01221e-15
1.01077e-14
7.59746e-16
1.06549e-14
-4.72934e-16
1.10475e-14
6.55668e-16
1.09343e-14
1.45839e-15
1.09288e-14
3.77348e-16
1.14221e-14
3.25752e-16
1.21781e-14
4.44446e-16
1.42234e-14
-1.14983e-15
1.46655e-14
8.69996e-17
1.23691e-14
1.55282e-15
1.05237e-14
1.14228e-15
9.68109e-15
3.31044e-16
8.96535e-15
5.46555e-17
8.21789e-15
7.57372e-16
7.9067e-15
9.79364e-16
8.56235e-15
2.88172e-16
9.08435e-15
6.72679e-16
9.1151e-15
5.54058e-16
9.54773e-15
-9.91107e-17
9.66654e-15
-1.33158e-17
9.49491e-15
2.79607e-16
1.02281e-14
3.00349e-16
1.13938e-14
3.60625e-17
1.25049e-14
-4.16424e-16
1.32364e-14
-1.35965e-15
1.30875e-14
-1.26961e-15
1.1541e-14
2.45859e-16
8.72839e-15
4.77722e-16
7.70172e-15
5.51008e-16
9.62494e-15
2.87805e-16
1.14945e-14
6.90223e-16
1.11181e-14
1.308e-15
9.43945e-15
1.16074e-15
8.31052e-15
1.35454e-15
7.89684e-15
1.57952e-15
7.61002e-15
6.22075e-16
9.05369e-15
3.62052e-16
1.06489e-14
1.65544e-15
1.02845e-14
2.30596e-15
9.77668e-15
2.12264e-15
9.39563e-15
1.93285e-15
9.50448e-15
1.23751e-15
9.29834e-15
1.36127e-15
8.73367e-15
1.43212e-15
8.19719e-15
1.9532e-15
8.98973e-15
1.07615e-15
1.13439e-14
-9.08311e-16
1.30124e-14
-1.29965e-15
1.32832e-14
-6.57309e-16
1.3589e-14
-6.78006e-16
1.39293e-14
-1.83101e-15
1.46834e-14
-2.43935e-15
1.58447e-14
-3.54393e-15
1.70722e-14
-3.6013e-15
1.77515e-14
-2.32854e-15
1.78698e-14
-1.55088e-15
1.84463e-14
-1.01899e-15
1.86227e-14
-6.42921e-16
1.84841e-14
-6.89176e-16
1.82677e-14
-3.81377e-16
1.91642e-14
-4.66162e-16
1.96081e-14
5.16865e-16
1.97918e-14
-1.58817e-15
1.8893e-14
5.57586e-16
1.81229e-14
9.31296e-16
1.86892e-14
-1.04601e-16
1.87813e-14
-3.78055e-16
1.80999e-14
8.34285e-16
1.78375e-14
1.301e-15
1.74576e-14
1.21531e-15
1.68723e-14
1.2117e-15
1.6146e-14
9.34225e-16
1.52919e-14
7.66517e-16
1.53358e-14
1.20628e-15
1.59898e-14
1.31941e-15
1.56512e-14
1.85252e-15
1.50245e-14
1.96734e-15
1.50437e-14
9.4747e-16
1.53065e-14
3.18616e-16
1.53495e-14
7.45144e-16
1.50139e-14
1.43661e-15
1.56199e-14
9.1042e-16
1.5848e-14
7.89081e-16
1.42422e-14
1.31259e-15
1.27902e-14
1.24168e-15
1.29216e-14
-7.70105e-16
1.38992e-14
-2.06727e-15
1.48166e-14
-8.81866e-16
1.66182e-14
-8.96894e-16
1.67588e-14
-7.48973e-16
1.42698e-14
5.18355e-16
1.32616e-14
-2.85993e-16
1.4579e-14
-1.39771e-15
1.71924e-14
-1.56751e-15
1.94374e-14
-1.1897e-15
2.01928e-14
-2.47352e-16
2.00251e-14
6.45804e-16
1.87803e-14
2.09031e-15
1.68843e-14
1.72842e-15
1.47626e-14
1.11467e-15
1.43583e-14
1.47139e-16
1.49483e-14
-2.33927e-16
1.47413e-14
-6.69278e-16
1.52809e-14
-6.32195e-16
1.70792e-14
-1.12257e-15
1.82242e-14
-2.01229e-16
1.89266e-14
-7.95237e-16
1.85492e-14
1.27898e-15
1.99078e-14
2.17288e-16
2.01949e-14
-1.03648e-16
1.98789e-14
2.73671e-16
2.02982e-14
-3.48452e-16
2.00085e-14
-2.03398e-15
1.89553e-14
-1.8043e-15
1.87164e-14
2.63396e-16
1.96968e-14
1.5241e-15
1.99666e-14
1.82874e-15
2.0221e-14
1.45747e-15
2.04618e-14
5.63722e-16
2.02883e-14
1.0017e-15
1.92327e-14
1.73651e-15
1.78264e-14
-2.10934e-16
1.6551e-14
-2.245e-15
1.57241e-14
-8.11049e-16
1.71316e-14
6.84868e-16
1.94363e-14
-8.64592e-16
1.99415e-14
3.27718e-16
1.98094e-14
2.22985e-15
2.04555e-14
6.35863e-16
2.09341e-14
-9.02236e-16
2.19979e-14
-2.02563e-15
2.2515e-14
-1.14876e-15
2.14717e-14
1.39666e-15
2.26173e-14
5.91568e-16
2.29838e-14
3.16617e-16
2.30222e-14
4.1688e-16
2.19489e-14
4.90294e-17
1.93199e-14
7.62057e-16
1.88877e-14
-3.46589e-16
2.03679e-14
-1.06575e-15
2.02312e-14
-9.55677e-16
1.90475e-14
-5.8762e-16
1.84411e-14
-8.81286e-16
1.99324e-14
-2.47751e-15
2.41471e-14
-2.00217e-15
2.53654e-14
2.69091e-15
2.31222e-14
2.8347e-15
2.24501e-14
-5.18288e-16
2.13727e-14
8.0667e-16
1.95458e-14
2.04365e-15
1.65616e-14
4.57193e-15
1.45518e-14
4.75808e-15
1.51696e-14
1.08625e-15
1.70893e-14
-3.47194e-15
1.86883e-14
-4.00428e-15
2.14216e-14
-6.14575e-15
2.42107e-14
-6.67798e-15
2.94422e-14
-9.12635e-15
3.20924e-14
-6.39118e-15
3.19399e-14
-2.79138e-15
3.02477e-14
6.42291e-17
2.80512e-14
1.5979e-15
2.79259e-14
2.03225e-15
2.86176e-14
1.34685e-15
2.78426e-14
1.9737e-15
2.71216e-14
2.91605e-15
2.70459e-14
1.08366e-15
2.68185e-14
-6.68398e-16
2.63134e-14
1.27799e-16
2.68694e-14
1.51394e-15
2.84732e-14
1.27809e-15
2.82876e-14
1.55512e-15
2.5774e-14
3.03018e-15
2.49765e-14
1.04529e-15
2.75962e-14
-1.87898e-15
2.99979e-14
-2.23455e-15
2.96099e-14
-2.11073e-15
2.79451e-14
-1.88724e-15
2.75165e-14
-1.04556e-15
2.86947e-14
-1.53807e-15
2.94289e-14
-4.91153e-15
2.85116e-14
-2.70747e-15
3.03145e-14
-2.25272e-15
3.33322e-14
-1.5042e-15
3.44845e-14
1.13279e-15
3.25955e-14
3.90093e-15
2.95929e-14
3.24804e-15
2.9044e-14
-5.26309e-16
2.85534e-14
-2.17829e-15
2.93617e-14
-2.49843e-15
3.02301e-14
-2.23211e-15
3.06421e-14
-3.01274e-15
3.0067e-14
-1.31547e-15
3.01052e-14
1.04449e-15
3.04104e-14
3.26959e-15
3.09138e-14
2.09521e-15
3.4167e-14
6.25159e-16
3.48188e-14
3.47188e-15
3.26526e-14
3.09266e-15
3.47021e-14
-5.14978e-16
3.68712e-14
-1.00089e-16
3.37345e-14
3.07755e-16
2.94633e-14
-1.32542e-15
2.91058e-14
-2.31568e-15
3.1473e-14
-2.66165e-15
3.41544e-14
-2.67882e-15
3.62862e-14
-1.24323e-15
3.60501e-14
1.74456e-15
3.35127e-14
3.97157e-15
3.35254e-14
2.63184e-15
3.42876e-14
1.4651e-15
3.29945e-14
2.44373e-15
2.90752e-14
3.91287e-15
2.68672e-14
1.26807e-15
2.91083e-14
-2.5794e-15
3.26517e-14
-3.03672e-15
3.49379e-14
-1.33521e-15
3.37265e-14
4.60252e-16
2.97339e-14
-5.92832e-16
2.69934e-14
-4.51587e-15
2.77496e-14
-3.83334e-15
2.98065e-14
-6.66906e-15
3.09478e-14
-3.02869e-15
3.52241e-14
-5.20434e-16
3.98549e-14
-2.14239e-15
4.11601e-14
-3.604e-15
4.00477e-14
-3.98114e-15
3.93132e-14
-4.59686e-15
4.04336e-14
-1.78803e-15
3.94813e-14
3.61459e-15
3.6855e-14
4.84074e-15
3.6845e-14
3.49415e-15
3.75338e-14
6.65946e-15
3.59274e-14
8.03769e-15
3.36546e-14
2.74864e-15
3.31078e-14
-6.40704e-16
3.33284e-14
-4.06052e-16
3.39559e-14
-3.28405e-15
3.4234e-14
-4.56612e-15
3.29353e-14
-4.54707e-15
3.37588e-14
-2.63583e-15
3.60566e-14
4.77115e-17
3.79305e-14
-9.75444e-16
3.7981e-14
-1.49902e-15
3.78285e-14
-2.28293e-15
4.20102e-14
-5.87232e-15
4.5294e-14
-7.17343e-15
4.56952e-14
-3.65538e-15
4.73274e-14
-2.67553e-15
4.39415e-14
-1.86574e-15
3.9623e-14
1.21454e-15
4.19931e-14
1.23256e-15
4.20124e-14
3.69296e-16
3.69245e-14
2.10032e-15
1.50971e-15
1.94642e-16
4.69769e-16
3.09436e-16
4.80821e-16
3.64409e-16
6.29984e-16
4.42838e-16
5.56571e-16
5.6799e-16
6.02935e-16
6.06373e-16
5.98866e-16
7.26383e-16
4.67393e-16
8.20418e-16
5.85392e-16
8.74781e-16
4.69011e-16
8.92961e-16
5.48272e-16
9.41328e-16
5.84163e-16
1.04333e-15
6.08923e-16
1.01411e-15
7.7771e-16