/*--------------------------------*- C++ -*----------------------------------*\
  =========                 |
  \\      /  F ield         | OpenFOAM: The Open Source CFD Toolbox
   \\    /   O peration     | Website:  https://openfoam.org
    \\  /    A nd           | Version:  7
     \\/     M anipulation  |
\*---------------------------------------------------------------------------*/
FoamFile
{
    version     2.0;
    format      ascii;
    class       volScalarField;
    location    "2500";
    object      rho;
}
// * * * * * * * * * * * * * * * * * * * * * * * * * * * * * * * * * * * * * //

dimensions      [1 -3 0 0 0 0 0];

internalField   nonuniform List<scalar> 
160000
(
22.4966
22.5015
15.37
16.3767
14.8819
14.3543
19.0859
28.0351
19.8764
19.2667
18.2415
16.9644
15.9641
21.4177
20.108
17.352
17.3556
19.7655
26.8559
26.8611
16.1442
15.9308
20.9919
20.212
13.8426
13.8454
23.6317
23.6368
23.6403
23.6453
23.6482
14.9085
14.9113
14.9143
14.917
15.2213
26.4343
26.4388
26.4431
26.4474
13.4162
13.4187
15.0214
25.527
25.5311
25.5353
25.5394
15.582
15.5846
15.5872
15.5898
26.5327
26.537
26.5428
26.5445
26.5509
19.8652
18.0924
18.0951
20.6754
20.6802
20.6816
20.6859
20.6874
20.6915
18.8465
16.6307
16.6331
16.6355
21.6092
21.8217
21.8236
21.8281
21.8297
21.8343
21.8356
21.8396
21.8413
21.8454
21.847
21.8502
20.7986
20.0336
20.0361
20.6245
20.6267
19.708
18.8945
18.8969
18.362
18.3649
21.0979
21.103
21.1027
21.1075
21.1094
21.5616
21.5632
21.5662
21.5677
21.5714
21.165
20.7906
20.7926
21.6741
19.4837
19.4857
22.6536
22.6588
22.658
22.6637
22.6632
22.6688
22.6673
21.1747
19.7321
19.734
24.3674
24.3695
24.3738
24.3746
24.3775
24.421
24.4235
24.4259
24.4282
19.0223
17.7456
17.7499
17.7489
17.753
17.7539
25.227
25.2288
24.4897
18.3656
18.3689
18.368
18.3718
18.3725
20.8795
19.1553
19.1569
22.8656
22.862
22.8696
22.8653
22.8752
22.8685
21.8212
21.5974
21.4843
21.1431
20.5386
20.5409
23.0782
23.0825
23.0812
21.3883
19.6838
19.685
19.6861
17.6566
17.6578
17.659
22.1814
22.1825
22.1846
22.1855
22.1889
22.1875
22.1924
18.6233
19.6625
19.6205
19.6216
22.1126
20.7699
20.7715
20.7729
20.774
21.7906
21.789
21.8588
24.6761
26.5233
23.2944
20.1557
20.1572
22.8228
19.4435
14.8211
13.9512
13.7994
13.8016
13.8102
21.6616
13.1364
11.7976
11.7928
11.7989
11.7963
11.8011
14.384
23.5306
23.5629
22.3925
18.2922
18.2906
18.2942
18.2926
18.2966
18.2962
18.4343
19.1392
19.1405
19.1421
21.7512
21.7507
20.6656
18.2721
18.2747
18.2743
21.5446
28.4773
28.7657
28.7603
28.7679
21.3894
19.1908
19.1887
24.7059
27.1557
27.1548
26.4215
20.5905
18.1832
18.5654
18.5643
19.5727
19.5743
21.3697
26.3572
27.17
26.6915
26.5975
26.6008
26.599
19.0663
7.53457
7.30913
7.30758
7.31665
9.20041
13.5644
17.2369
17.2358
17.2385
22.4695
15.4075
15.4128
15.411
15.4141
15.6317
24.2733
24.2706
22.5031
22.5044
28.2072
28.2118
27.6243
16.5581
16.5519
16.5577
16.556
20.1134
29.7797
29.7916
29.7779
19.1717
17.8302
19.9458
19.9462
19.7868
16.3546
16.3644
16.3572
16.3638
17.3722
21.6853
21.6946
21.6953
32.4317
32.7825
32.7873
32.7917
24.7975
24.7992
29.3599
23.4228
9.77018
5.2232
5.20192
5.22374
5.20849
5.22431
5.22773
6.14288
7.29705
10.445
15.3043
17.6677
22.6207
22.8052
19.848
15.0246
15.0157
15.0244
15.0225
19.1637
22.7968
24.9966
31.9897
31.9914
26.0501
15.2394
15.2571
15.2457
15.2624
15.2508
15.2633
15.2618
15.2683
15.2648
15.2693
15.2703
15.2744
21.1611
16.6137
11.1513
11.1528
11.1529
11.153
11.1532
32.4262
35.5431
35.5691
35.5397
19.3397
17.1198
17.1325
17.1283
20.2282
24.9251
24.9345
24.9258
24.9353
21.513
20.9355
20.9356
20.9357
23.3195
25.5593
25.5596
25.5839
25.5615
25.5803
25.5635
25.5956
19.399
18.8766
18.8668
18.8755
18.8715
18.8756
18.873
18.8767
21.5326
22.4147
24.3182
24.3186
24.3189
24.9521
24.9509
24.9499
24.949
21.4672
21.2456
21.2455
21.7059
21.4392
19.7527
19.1235
13.6595
11.387
7.96898
5.27015
5.27297
5.27336
5.2742
17.4198
17.4343
27.1901
14.8615
14.8648
15.393
18.6113
18.6151
18.8827
18.9157
19.1279
20.087
21.7541
21.7593
21.7631
20.7072
17.3555
20.2819
20.2863
15.9875
15.9909
20.988
20.992
20.996
16.4808
23.6269
23.6324
23.636
23.6411
23.6441
20.0374
15.5784
14.9786
14.9142
14.9171
26.4288
26.4334
21.1728
26.4429
18.4807
13.4163
13.4187
14.6838
25.0837
25.531
25.5353
25.5394
19.2644
16.3522
15.5873
15.5899
24.2384
23.2762
21.9788
21.984
26.5477
24.3628
20.0829
20.6725
20.6763
20.6785
20.6832
20.6845
20.6888
20.6902
18.8581
20.7353
21.6026
21.6057
21.6086
17.7849
17.425
17.4269
20.2639
18.5379
18.5226
18.5243
18.5274
21.4808
22.0216
21.2898
19.7919
20.642
20.7252
20.7277
20.1971
19.7076
21.0877
21.0906
21.0949
21.0955
21.0999
21.1003
21.1055
20.575
21.3443
21.346
21.2623
17.878
17.8149
17.8168
17.8187
21.5948
26.2746
22.688
21.683
21.6851
19.5144
19.3877
19.3916
19.3916
19.3954
22.6312
23.0862
24.3593
24.3617
24.3647
24.3667
24.3716
24.3717
24.3765
20.2522
19.8409
19.8427
19.8444
20.545
19.3001
19.7154
19.6854
17.7514
17.7515
18.7409
25.2268
25.2299
25.2308
25.2345
26.4931
21.7338
18.9765
20.9873
22.8552
22.8568
22.8619
22.8603
22.8681
22.8637
20.9526
20.0456
20.0488
20.5083
19.1035
19.1056
21.2506
23.0755
23.0766
23.0807
23.0802
23.0832
20.3102
20.8536
20.8554
20.8573
17.6566
17.6579
17.8945
22.1796
21.887
21.0338
22.1863
17.4775
17.4809
17.4794
17.4831
21.7685
21.7722
24.6089
24.3637
22.5384
23.0094
20.8301
22.0342
20.2861
20.2895
23.0597
27.7588
27.761
24.8951
21.5452
28.4128
28.4123
28.4117
12.9653
9.42389
12.3772
14.8302
21.6642
21.6615
21.6694
11.7894
11.7978
11.7975
12.7508
14.1236
17.243
23.5611
23.5603
23.0133
18.2891
18.2928
18.3628
18.6722
18.5577
19.8094
23.4357
23.7436
22.3049
24.1571
20.0098
18.2723
18.2712
18.2737
18.2738
20.2576
26.6592
28.7621
28.7593
28.7689
28.7607
28.7735
28.7613
28.7711
28.7618
28.7729
18.3802
18.3895
19.6312
18.1823
18.1829
18.1835
18.1846
18.1852
22.1745
28.9437
28.9444
28.9452
36.537
36.5276
18.3601
7.29096
7.3037
7.29712
7.30986
11.8319
15.3048
16.3354
17.147
17.1477
22.465
22.4673
15.4126
15.4105
15.4129
16.4603
22.4883
24.2964
22.474
22.4745
28.2066
28.2111
28.208
16.951
16.5504
16.5572
16.5524
16.5581
25.0041
29.7911
29.7778
26.2766
16.3693
17.8292
19.9458
19.0024
16.356
16.3651
16.3559
16.365
16.3634
16.9125
17.8708
19.4358
28.5463
32.4246
27.6504
27.6495
56.3528
57.8211
39.7001
58.2596
58.2949
10.6953
5.20032
5.2182
5.21441
5.99703
8.09387
10.5377
13.3523
16.1676
19.0644
21.5034
22.7977
22.8049
22.7983
21.8647
15.0133
15.0227
15.0215
18.1098
23.7418
28.245
31.9891
31.9896
32.0137
30.8849
15.2568
15.245
15.2573
15.2545
15.2626
17.0783
21.172
19.7501
19.1118
19.0498
16.4062
16.8181
22.2749
22.2931
17.0173
18.0692
20.0633
14.3673
19.7332
35.5389
35.565
35.526
17.132
17.1188
17.1309
17.1255
17.1326
20.9299
24.9303
24.9256
24.9312
24.9265
24.9293
24.9271
24.9304
24.9286
25.5319
25.5581
25.5754
25.5597
25.5889
25.4375
19.0312
19.0272
19.0314
20.1448
20.527
20.251
19.2154
20.3313
20.3323
23.3837
23.3853
23.3862
24.3166
24.2026
24.2024
24.9621
23.7272
23.7222
24.9482
21.4823
21.6567
26.0643
26.0596
23.908
23.9093
23.9087
17.284
16.687
12.9629
5.64551
5.27311
5.27417
5.27434
17.4197
20.208
27.1901
27.196
26.1458
18.3782
21.77
21.7746
19.8966
21.1682
21.173
21.1776
21.3353
21.7584
21.7638
21.7674
21.7727
16.7201
16.8493
19.3554
19.3593
19.273
19.2767
19.9895
23.6224
23.6271
23.6312
23.6369
23.6399
22.9842
20.7762
20.3292
17.8521
14.9144
14.9171
22.3291
23.608
19.815
19.8184
20.0537
22.1858
21.9919
20.1374
21.6333
17.0224
16.2869
18.0237
19.5769
19.5802
19.5833
18.8435
18.8462
20.8676
24.1826
25.9483
26.5478
26.2573
19.1878
17.9608
17.9635
19.2138
20.6815
20.686
14.9122
16.6816
16.6842
16.6864
16.6892
17.5951
21.6086
21.6109
21.521
17.4273
17.4295
22.0055
22.0097
22.0135
22.0158
22.0196
22.0218
22.3175
18.1947
17.6258
17.628
20.728
20.8183
22.3342
18.6285
18.5606
18.8477
19.6787
19.1362
19.1385
19.0738
19.0769
20.4674
21.3465
21.3477
20.6152
19.7719
24.3645
25.5843
21.7995
26.2754
26.8972
19.3869
18.6201
18.6221
22.0867
22.0889
22.0912
22.0933
22.0956
21.3737
22.3008
22.3026
23.7942
22.8269
18.3329
17.2689
17.2801
20.4768
20.6759
20.6775
20.1758
20.1774
20.9157
21.386
21.3878
21.3897
23.2846
23.2868
23.2892
23.227
23.229
23.2306
26.4941
26.495
21.7421
20.5186
22.8545
18.9534
18.9527
21.668
22.455
22.4546
22.4565
20.2739
20.047
20.1185
21.1637
21.1642
21.4003
21.4011
19.2992
19.3003
23.0813
19.7486
18.3679
18.3693
19.7641
23.5343
23.5396
23.5373
20.7205
19.4452
19.4464
21.0346
26.3989
19.4795
17.4737
17.482
17.4765
17.4842
17.4843
25.3983
25.3994
25.4018
25.4021
25.4044
22.1792
18.4311
21.0795
24.7443
24.938
27.7625
28.4158
28.4155
28.415
28.4146
8.57359
6.2406
8.26728
14.0557
18.4974
21.6606
21.668
21.6636
20.2109
14.9191
14.9496
16.6896
20.548
23.4844
21.5056
18.4321
18.2916
18.2934
18.5572
19.4464
19.5339
20.221
23.5881
24.6684
24.6711
24.6711
24.6732
24.674
18.4108
18.2731
19.6529
25.4023
28.7536
28.7593
28.7578
28.7658
28.7593
28.762
28.7604
28.7719
28.761
28.7624
21.0894
15.0055
20.373
24.3065
19.2487
18.3067
22.8221
24.7822
24.7825
24.7838
24.784
28.8109
36.5401
36.5351
36.5562
8.05608
7.30264
7.29046
7.30421
10.825
15.3202
17.6367
17.7657
18.5461
20.9016
22.473
22.473
20.0471
15.4131
15.6188
20.5843
24.2958
24.2969
24.298
26.1467
28.2075
28.0802
17.0553
16.9449
23.5192
23.8234
23.826
23.4989
28.0383
29.7798
29.797
20.0906
16.3677
16.3624
16.367
16.3588
16.3663
16.3629
17.886
21.2161
22.7309
23.2071
23.2077
23.1552
22.9938
23.9339
39.1394
58.2764
58.2848
58.3333
58.3161
58.3586
58.2605
21.0257
5.22446
5.21675
7.53964
12.1145
18.9556
24.7651
21.9028
18.4158
19.5457
22.7806
22.8001
22.798
22.7402
15.5942
15.0248
15.0227
20.388
26.6265
27.7297
31.9793
31.9817
32.0085
31.9869
15.5801
15.2471
15.2571
16.6825
17.0178
15.9701
18.8583
22.6419
22.6423
22.6425
22.9818
21.9824
24.4716
32.7484
34.7534
34.7487
34.7544
27.3757
26.0032
30.0069
30.0136
24.9024
19.0014
17.1165
17.1322
17.125
18.6843
22.5511
24.1569
24.1525
22.7003
22.7001
24.927
24.5282
22.0043
22.0052
22.1709
25.5566
25.5665
25.5583
25.5825
22.625
24.3421
27.5046
24.9151
29.2174
38.1591
38.1515
38.171
28.6221
17.4971
17.4171
17.4264
17.4213
19.9879
24.3014
23.1783
24.7344
25.6911
25.684
25.5909
24.9464
26.0676
26.0658
26.0652
21.8144
21.733
23.9087
23.9081
23.2444
20.2835
12.1007
5.93487
5.27408
5.27437
5.27434
18.7639
20.1012
23.3612
23.5273
22.2174
21.8685
21.7702
21.7748
19.0852
17.6365
17.6403
17.8542
18.3537
21.3962
21.7627
18.376
17.0466
16.7203
18.132
19.0483
19.4037
19.4076
19.4114
19.9893
19.4709
19.4745
23.3946
22.4252
15.5738
15.1712
20.856
22.4269
22.7131
22.8782
22.9447
22.9496
19.8117
19.8151
25.0476
25.0506
23.6329
19.9371
19.373
19.4342
17.1175
16.2869
16.2894
16.2923
17.5845
19.5836
19.5866
19.5912
19.0629
19.2637
16.8024
16.8049
16.9713
18.4238
20.3931
20.676
20.6784
20.6824
15.1294
14.5473
17.3184
19.9558
21.7058
27.7835
27.7893
20.4777
19.6387
19.6413
21.89
25.5197
18.6104
15.6901
15.6912
15.6943
15.6955
17.7138
22.3182
22.321
22.324
22.3266
22.3311
22.3318
22.3366
22.3368
18.5613
16.9556
16.9576
19.273
19.2747
19.0747
20.4953
20.4972
14.3763
15.4391
20.4972
20.4983
19.0818
30.4528
30.455
28.3691
29.3184
26.3896
21.0577
18.7878
19.9879
19.1963
19.0886
22.0934
19.7298
18.2882
21.9285
23.7913
23.7937
23.6591
17.6824
17.2686
17.2699
16.5101
16.5114
16.5132
20.9119
20.9137
20.9156
20.3447
19.8907
20.3836
19.5168
20.8606
21.1484
27.4758
33.955
33.9566
31.7863
20.2524
17.6594
17.6579
17.6622
17.6607
22.4023
22.4523
22.4571
22.4556
22.4611
21.9381
22.2862
22.3622
19.3361
18.094
18.0952
19.0001
21.6929
23.5213
23.5229
23.5244
23.5079
23.5328
23.5328
23.54
23.5358
23.5403
17.4294
19.4908
27.7101
33.2191
33.2328
33.2244
33.2379
27.0331
27.0365
27.0351
19.9201
19.625
19.6277
19.6276
22.2259
25.2774
18.4301
18.4313
19.5475
25.0212
26.9945
28.4164
28.418
28.4177
28.4173
8.57657
5.57379
6.23706
13.5299
18.0509
17.7598
17.5998
21.6626
21.6688
21.6647
21.6673
20.1673
19.3262
20.8374
25.8212
26.7157
25.8435
20.0855
18.2932
18.5311
18.4557
18.4565
21.6262
24.6674
24.67
24.6702
24.6727
24.6731
24.6745
22.5134
22.7853
27.7257
28.7503
28.7559
28.7545
28.5077
20.4334
20.4377
21.0594
23.594
26.3964
28.7599
24.0877
15.5664
14.991
25.3986
31.4693
31.4703
31.4713
30.9762
21.7104
19.999
19.9998
26.6968
36.5098
36.5425
36.5637
35.9851
7.30132
7.2896
7.29885
9.44911
13.9217
16.4514
16.6775
18.347
21.1544
22.475
22.4742
22.4736
21.4
18.6157
20.4744
24.2922
24.2933
24.2659
18.7637
17.9056
28.2093
28.22
28.2106
28.2212
20.7149
20.3259
20.3267
21.4772
29.7792
29.7962
29.7805
29.7889
18.7029
16.3681
16.3648
16.3674
17.8009
19.1451
19.1453
19.1463
20.2828
22.6697
20.7663
20.7668
20.7671
34.333
58.2671
58.2839
58.3235
58.3422
24.2614
31.1902
50.7436
46.8157
26.5399
18.2478
20.6035
26.0718
29.3279
29.4156
29.4154
25.9249
22.1693
19.6166
19.6188
22.6448
25.719
22.6205
17.6176
15.8687
15.8699
17.9671
28.4311
31.9729
32.0005
21.2433
15.2617
15.2569
15.2599
16.2454
19.8886
23.9245
22.5467
20.0274
19.9497
22.3027
26.0702
34.7469
34.7598
34.7478
34.7658
34.7484
34.7663
26.9529
23.8209
23.8212
29.1341
30.0071
25.8986
17.1264
17.1334
17.1285
17.1323
18.2361
19.3323
20.6223
22.9162
22.9148
22.6999
22.7022
24.633
24.7254
24.7264
24.7284
24.7285
20.8938
20.9044
21.7313
17.9591
17.0566
28.2354
32.5179
38.1512
38.1513
38.1708
38.1516
35.5768
21.837
17.4264
17.4178
17.4265
21.3884
21.9374
21.3562
21.356
25.6839
25.6996
25.6859
25.6986
26.0685
23.7714
20.5603
17.8959
17.8392
17.8392
20.0942
23.2447
21.525
17.2843
13.1015
8.11599
5.27433
5.27476
19.3302
24.594
23.7858
19.8773
19.6637
19.3392
19.0081
19.0781
16.7652
16.7689
17.8871
17.8541
20.7483
17.495
17.4991
20.0502
20.0546
20.0588
20.0631
18.3253
18.3292
18.4916
18.8122
19.0161
19.0196
20.1492
23.3941
20.7991
14.6167
13.8446
13.6219
13.6245
18.568
13.6489
20.3496
25.0357
25.0391
25.0447
25.0472
21.7153
21.2533
20.8508
18.1692
18.1724
20.3317
20.4556
18.5941
18.8031
18.8056
18.8097
19.5871
19.1661
17.6571
17.6599
20.4569
20.4603
19.0319
19.6408
18.7149
18.7171
20.228
16.0918
13.7418
13.7439
13.746
13.7483
13.7506
24.9295
27.7879
27.7945
27.7952
27.8006
27.8013
26.3657
23.6174
17.7221
15.6922
15.7386
15.6964
15.6983
15.7005
22.1688
22.324
22.3272
22.3295
20.9311
20.9325
21.4909
21.4931
21.4954
18.8443
18.8463
20.5543
20.5556
20.5315
18.741
11.0937
11.095
11.0965
11.0981
11.0998
18.484
30.4596
30.4611
30.47
30.4658
30.4766
25.9613
23.786
20.848
17.6695
18.4782
18.9558
17.4309
17.4315
17.4343
21.2687
23.6582
20.5482
20.0226
19.8595
17.7552
18.0542
20.2206
18.8132
18.3499
18.3516
19.8031
19.8907
19.2181
14.6665
10.6306
10.6306
10.6325
24.5333
34.6638
34.6645
34.6659
34.667
33.2259
23.4584
17.7747
17.7254
17.7281
21.256
21.4636
21.4639
22.359
22.3607
22.3623
22.3643
22.5094
22.5561
22.5585
18.7631
17.787
17.7883
17.7895
19.6555
23.5313
23.54
23.5343
11.9727
9.85771
9.85855
9.86006
9.86091
25.9648
33.2228
33.2346
32.8315
29.5881
24.5186
24.5209
25.7321
21.9183
19.6343
20.2648
21.5113
24.8403
24.8407
18.5424
17.0406
17.0416
23.3819
28.421
28.4206
28.42
10.1463
5.56752
5.57252
9.87573
16.2866
19.5226
17.5529
17.5504
18.6826
21.4414
20.2254
19.8917
13.9453
14.8659
19.8271
26.0067
26.7133
26.7188
23.0997
19.8454
19.9089
21.3247
24.2292
24.6655
24.6682
24.6684
19.4505
18.991
21.9787
26.3241
27.6752
27.6777
27.6802
23.8366
22.499
20.1999
19.463
19.4638
20.6589
23.8561
24.4742
24.0376
18.2503
12.7263
12.727
12.7275
23.3911
31.4694
31.4704
31.4714
33.7996
36.5179
36.543
36.527
36.5345
36.5346
36.5678
36.5353
18.0522
7.28948
7.2986
8.20903
11.7903
16.4131
19.5571
21.0877
22.5608
22.5591
22.4763
22.2759
22.1237
20.0111
18.9616
19.1254
21.1755
20.2527
11.5208
11.4251
11.4255
28.215
28.2099
23.2531
20.3249
20.3254
20.3259
23.1399
29.777
29.7956
29.7798
29.7962
23.291
16.37
16.3671
17.8113
19.634
18.7587
18.7598
21.0546
21.1335
21.1346
21.1354
20.7672
20.8473
29.9268
58.204
58.2171
58.2603
21.543
9.72267
9.72007
9.77832
14.5653
9.82008
15.5354
24.983
28.0544
26.3337
25.0371
25.0374
25.0378
25.943
28.6507
29.8401
30.8302
30.8243
30.8191
30.1364
28.6848
27.8057
26.8383
28.2343
28.4214
19.6985
15.2543
15.2643
15.2585
15.2621
16.0531
19.883
23.9536
23.96
18.7731
11.5202
11.5209
11.521
11.5213
17.5503
28.0737
34.1929
34.7481
34.7642
29.9735
31.1794
31.9979
32.0017
30.282
17.5333
17.1386
17.1397
19.7919
21.689
21.3618
23.8335
26.2674
25.0238
20.7067
20.707
20.707
23.0085
24.6644
24.7253
24.726
24.7269
23.4475
18.6064
13.0776
8.88587
8.8859
8.88603
17.9767
31.1854
32.8801
37.0445
38.1515
38.1709
25.4205
21.8467
23.0411
29.7451
25.28
23.7273
25.6782
25.6855
25.6807
25.6937
25.6831
20.7932
22.5045
27.0423
27.0387
26.524
23.1465
20.5367
17.8375
17.8419
17.8404
17.8421
20.4704
16.8005
9.69562
5.27574
5.27558
17.0359
25.0693
20.4146
18.4382
18.5207
21.2811
19.0083
19.0123
19.6045
20.7354
20.7394
20.7441
20.7479
20.6161
20.6201
18.8165
18.82
19.6657
20.0631
20.1107
21.4821
18.6653
15.7252
15.7283
19.8389
18.0877
18.0895
18.0929
18.5721
16.9888
13.6217
13.6245
13.6272
13.6299
23.33
25.0361
25.0409
25.0438
25.0501
25.0514
25.0017
24.048
19.9564
20.5029
20.5061
20.5092
18.7387
18.7418
19.4108
19.4142
17.5383
17.5415
19.6049
19.6079
19.6108
20.46
20.4636
20.4661
19.475
19.4776
17.7497
16.8297
14.8985
13.7439
13.7462
13.7484
13.7506
17.0257
27.7904
27.7916
27.7978
24.392
20.2453
20.2464
22.9281
22.9303
19.1539
16.8687
16.0306
17.9976
20.5653
20.5678
19.0271
20.912
23.116
23.1189
23.1218
23.1246
18.2278
16.8332
16.8352
20.5519
20.5535
19.3359
15.8212
11.6091
11.0935
11.0947
11.0964
11.098
11.0996
25.9214
30.4589
30.4668
30.4636
30.4715
26.6373
26.3011
26.3021
19.0395
16.7421
16.7441
17.9357
22.3128
21.9879
17.4331
17.4366
20.0823
24.9931
24.9932
24.9996
24.9972
25.0035
25.0013
24.5953
19.8482
19.7282
19.3505
16.2337
10.6565
10.6293
10.6287
10.631
10.6317
28.0926
34.6636
34.6805
34.6683
34.6706
31.397
22.8858
19.5537
22.0941
19.1226
19.1244
19.8176
22.3566
22.3586
19.2142
19.2163
20.0768
22.5259
22.557
22.5593
22.2326
17.9737
17.7881
21.1355
23.5298
23.5369
23.5328
23.5393
11.0047
9.85681
9.85873
9.85939
9.86093
19.1907
32.973
33.2263
29.7987
29.5882
30.7971
30.798
29.9489
22.1333
21.8319
21.6729
24.3445
24.8394
22.4521
18.4035
18.4053
28.4283
28.4241
28.4233
28.4228
8.08873
5.56143
5.56615
9.85141
16.3763
22.6776
24.5744
20.0382
17.5496
17.5513
18.6408
14.9476
13.061
13.0618
14.1571
19.7363
25.86
26.7151
26.7148
26.1586
24.1767
23.3099
23.215
24.6317
24.6659
23.9184
19.2172
18.9902
18.991
21.388
25.1488
20.7178
18.232
18.2327
18.2335
19.2132
22.4699
24.4562
24.4702
24.4719
24.4734
24.4749
19.7462
12.7252
12.7264
12.7269
12.7275
20.9645
30.2831
30.2799
34.5533
36.517
36.5479
36.519
36.544
36.5285
36.5669
12.7731
9.58625
9.58736
9.19862
9.52165
11.2825
13.8922
18.1784
23.7463
24.5396
24.537
21.0963
19.1052
19.1084
19.1069
19.5583
24.022
24.5452
24.541
13.8257
11.4247
11.4251
11.4255
28.1926
27.648
20.3244
20.3249
20.3254
21.1516
28.0382
29.7892
29.7776
29.7963
25.2753
18.6036
17.8892
21.098
25.2346
25.24
25.2422
25.2409
23.1736
19.3068
19.5166
23.7645
27.573
30.3482
45.8036
49.777
9.72311
9.7121
9.72055
9.71464
9.72296
9.72207
9.72537
9.72631
12.4216
23.3038
28.0554
28.0535
25.0363
25.0375
25.0377
29.9836
30.9168
30.9087
30.9162
18.2931
17.0554
17.0548
17.0565
17.5746
22.1715
27.276
27.8299
24.2673
16.7532
15.2594
15.2648
15.7505
20.2734
23.9534
23.9584
23.9539
18.1268
11.5196
11.5208
11.521
11.5212
16.7315
28.9283
29.4668
29.4677
29.4672
29.538
32.1338
30.9496
30.6792
30.6808
30.6796
22.1678
17.14
17.3136
22.9461
26.3512
26.3495
26.2686
26.2676
21.0841
20.7068
20.7071
20.8425
20.6979
20.6017
20.6018
21.4396
21.9845
14.6026
8.88283
8.88577
8.88594
8.88598
12.6034
25.7681
38.155
38.1514
38.1554
38.1517
38.1787
38.1512
38.1677
37.2256
25.0753
19.5621
18.7479
18.7487
18.75
18.7496
20.7282
20.7268
20.7269
26.4436
27.0451
27.0388
27.0435
27.0353
24.5382
24.2349
19.368
21.1964
21.1964
21.1964
12.2532
5.28608
5.27574
20.2826
20.3089
18.4339
18.4383
21.3141
21.2813
19.0082
20.7264
20.7312
20.7351
20.7398
20.7436
18.8781
18.4542
18.4582
18.4619
20.2649
20.899
20.9422
21.4777
21.4821
17.9878
17.991
20.5432
20.5469
20.5516
20.4307
19.6571
18.8066
18.8438
13.6575
13.6247
13.6273
13.63
25.0317
25.0384
25.0401
25.0462
25.0474
25.0531
25.0555
25.0598
20.1471
20.5119
19.4505
19.0294
19.0326
19.4077
19.4111
19.4142
19.4177
19.4206
19.605
19.6081
19.6112
20.4602
20.4631
18.4515
17.7567
17.7474
17.7498
19.2233
15.7161
13.7441
13.7463
20.0555
14.4495
27.7852
27.7886
27.795
27.7956
27.804
27.8025
27.8098
21.9256
19.7099
19.7127
18.5393
16.0953
16.1847
16.1868
16.1892
19.0272
23.1127
23.1156
21.551
19.2226
18.9245
18.9267
18.8607
16.8351
20.5512
20.555
17.9735
14.0014
13.7709
19.5758
19.5782
11.8149
11.41
11.0999
30.3919
30.463
30.4609
30.4689
30.4656
23.2134
23.2136
26.3012
21.0371
16.7414
19.8541
22.3107
22.3128
22.3149
17.4433
20.212
24.9906
24.991
24.9973
18.707
18.5103
18.5108
25.0024
25.0018
19.7744
19.5379
20.1341
18.4147
16.376
12.2276
10.6306
10.631
10.6324
27.9408
34.6756
34.667
34.6852
29.9892
22.8842
22.8866
23.6803
23.6814
23.6827
23.6368
17.1751
17.132
17.1335
17.4919
21.7854
22.1283
22.1332
22.1343
22.6158
17.7857
17.7868
17.7881
22.5623
23.5319
23.5313
23.54
23.5344
14.8197
11.0572
9.85855
9.86011
9.86097
23.2302
33.2246
33.2276
33.2298
33.2327
30.7973
30.7987
30.7992
25.584
21.8688
20.5648
19.2329
18.0998
18.1015
18.5145
28.5846
33.728
23.4026
5.54628
5.55307
5.55125
5.55988
9.28069
13.9607
18.8683
24.45
24.5733
24.5755
24.0903
19.585
18.3376
13.9544
13.061
13.0618
13.0626
16.3739
22.1403
26.6516
26.7191
26.7167
26.7224
24.7267
24.5634
24.6306
19.7189
17.8419
18.6932
19.2169
18.991
19.8051
23.7303
23.7463
23.7503
21.8115
21.1967
20.3744
20.3751
24.0116
24.4711
24.4725
24.474
24.475
21.5892
13.9637
12.7264
12.7269
12.7275
23.6567
35.0192
36.2375
36.5107
36.5469
36.518
36.5608
36.5186
36.5437
24.2588
13.0708
9.58606
9.58679
10.4367
12.0474
13.7133
16.4324
21.28
24.5356
24.5364
24.5419
24.5378
24.546
24.5389
24.5475
24.5399
24.5492
24.541
23.0547
13.0894
11.4246
11.4251
11.4255
16.0865
19.9463
20.7789
24.3354
26.4274
26.8584
29.6315
29.7756
29.7902
29.7771
29.7841
28.6677
22.3309
19.8438
19.8448
20.063
21.4146
19.2797
18.322
18.3225
19.5351
22.7998
23.7757
28.3977
45.7723
27.5944
9.71205
9.72059
9.71415
9.7211
10.8692
10.8693
12.6693
10.8024
13.5552
19.572
23.3827
27.5168
28.4814
28.4825
29.9727
30.9187
30.9101
24.327
17.0532
17.055
17.0543
17.0556
20.1694
24.7877
25.6601
25.661
25.1784
25.178
25.1824
23.9517
19.5919
17.7068
19.1288
23.5834
23.9536
23.9603
16.9461
11.5188
11.5206
11.521
11.5213
15.1882
28.2747
32.1438
29.4866
29.4688
31.1313
32.145
32.134
32.1411
32.1345
29.3348
21.9737
17.1446
17.1486
21.1902
26.3584
26.3514
26.2198
21.0884
21.088
22.0141
24.74
24.7468
24.7403
23.2082
24.5288
24.9668
24.9668
23.2361
16.8483
8.88576
8.8859
8.88603
17.6228
31.4084
31.3937
32.3643
36.6075
38.1594
38.1519
38.183
29.7103
26.1716
26.1743
26.1722
19.7869
18.7499
18.7496
23.9889
25.433
23.8061
23.5244
27.0494
27.0405
19.1525
18.8977
18.8822
18.8976
18.887
18.8976
18.8956
21.1964
18.3621
10.6593
5.27617
5.27575
18.3832
19.5875
18.9814
21.3093
21.3142
19.2597
19.2532
20.7264
20.2435
20.1517
20.4045
18.8583
19.4197
19.4239
19.3601
19.3613
20.2647
18.9513
18.9549
18.9632
21.4822
20.6418
21.7931
19.2609
19.2648
20.5507
20.5554
19.6216
19.9812
19.1581
15.3282
14.5563
19.1508
21.833
25.0308
24.4646
22.536
22.539
24.9738
24.977
25.0561
25.0591
25.0422
24.7842
24.7802
21.0392
21.0159
19.1423
18.2264
18.2296
18.9173
18.0281
17.723
17.7258
18.5823
18.585
20.4637
20.4662
20.4698
20.4722
20.4761
19.269
18.006
15.5364
16.6431
23.0925
27.7817
27.7849
27.7918
27.7922
27.8013
27.7991
20.674
20.6747
20.7622
21.2963
21.2988
21.3017
21.1365
21.3968
20.275
19.4321
17.584
17.5864
17.6955
17.6976
20.9712
19.5435
17.9252
17.9285
19.3159
20.5516
20.5535
20.5573
20.5579
20.5617
18.8542
19.578
19.5815
19.5823
15.1277
24.2069
25.4153
25.4179
26.8511
29.4536
25.009
24.5181
19.2866
16.7396
16.7413
16.743
17.1726
20.0649
22.3154
22.3311
22.3331
19.7806
19.7826
20.8368
22.1926
21.0798
21.471
21.2715
17.0671
17.0685
17.0699
20.1365
20.1367
20.1399
13.9792
13.4368
25.1558
34.6628
34.6777
34.6657
34.6826
34.6693
28.8399
24.9643
24.9659
24.9667
22.0845
21.4983
17.1293
17.1307
17.132
22.618
22.6175
21.5237
20.6304
20.6309
22.6931
22.6997
21.6048
17.7948
19.7061
21.7686
22.9825
23.5351
23.5329
21.8381
17.4417
22.1082
22.1088
22.1109
19.4317
32.3721
32.3753
28.7003
28.7027
34.0365
34.038
24.4529
21.6737
21.6747
21.6758
18.0974
18.0984
18.0995
23.2555
35.8644
35.9018
33.769
5.53811
5.54877
5.54574
5.55465
9.4006
15.9078
20.9229
21.5217
21.5214
23.0492
24.5744
24.5759
24.0486
20.2884
18.3085
16.3382
14.9347
16.4098
18.9725
23.4487
26.6765
26.7156
26.722
26.7178
24.329
17.6365
17.6371
17.6379
17.799
20.0898
22.3933
23.1834
23.7452
23.7454
23.7528
23.7471
23.7527
22.1153
22.94
24.0091
24.0098
23.1504
23.1506
24.1932
25.1107
25.109
21.179
19.201
23.5483
26.7876
26.7909
26.7936
30.3364
36.5151
28.2412
20.9801
20.9726
22.857
24.3853
24.3371
21.2444
18.7265
16.4266
15.1614
15.1534
16.0523
17.2331
18.5677
20.0311
22.9868
24.537
24.544
24.5383
24.5462
24.5393
24.5485
24.5404
21.529
16.2207
16.0007
16.5339
16.5381
15.1162
15.3358
15.3648
21.1566
24.3364
24.316
24.3146
24.7226
28.9345
29.7762
29.7181
27.1278
25.7897
25.3814
23.7158
21.898
21.6331
21.2635
19.6269
20.933
23.0642
23.066
23.0679
23.0699
27.9693
45.7362
29.7182
9.72057
9.71438
9.71985
9.71914
10.2702
12.9507
19.6727
23.1675
23.1684
23.1689
23.1692
23.1696
28.3531
30.9088
30.9206
30.9108
30.9268
29.0979
18.8302
17.0542
19.3737
19.8864
19.8873
19.887
19.8887
22.888
25.1777
25.1831
25.1777
25.1847
22.2103
20.8443
23.1901
23.9531
23.9597
15.5791
13.7959
13.7942
16.7255
20.885
22.6093
31.3932
32.1429
32.1336
32.1516
32.1341
32.1456
32.1346
25.2911
19.6433
19.6446
19.6454
18.1452
17.1485
19.0833
24.5817
26.3616
26.2934
26.2729
22.3747
22.28
24.7398
24.7467
24.7402
23.3014
19.2738
19.2743
20.6588
24.9669
24.9664
22.7056
16.3878
13.9854
15.0963
29.8501
38.1501
38.162
37.5766
38.1593
38.1518
38.1832
38.152
34.022
25.8144
25.8167
22.2746
18.7517
18.7504
25.4031
25.433
25.4421
27.0387
27.0487
27.043
27.0478
22.7191
25.8627
25.8586
25.6366
21.929
22.2924
22.2917
20.9372
12.3612
6.10535
5.27701
5.27617
16.8021
19.4374
17.8677
19.1005
21.5451
21.5497
19.9781
20.198
18.6277
20.1516
20.156
18.8586
19.4198
17.393
17.3965
20.2602
20.2646
18.9511
20.4149
22.212
22.2163
22.2207
22.2249
22.2291
19.8099
20.5514
20.3326
19.6219
19.9813
16.5433
14.5588
14.5564
15.8291
15.8317
25.0298
25.0338
25.0371
25.0412
25.0442
25.0496
20.0195
18.1005
19.5613
21.037
17.7858
17.7888
17.7918
17.7947
20.924
20.928
19.1283
19.1004
20.9193
17.9536
17.9563
20.4604
20.4632
20.467
20.4692
20.4732
17.2067
15.8289
13.9437
11.4853
11.4876
11.4896
11.4915
27.7335
27.7886
27.7955
27.7956
27.8028
25.2163
23.1197
23.1227
19.2897
18.7935
18.7955
21.8467
23.4369
23.4397
17.5926
17.5842
19.619
20.9327
20.9006
22.6167
22.6196
20.2453
17.9273
17.9307
19.968
20.5542
20.5556
20.5592
17.259
13.4312
13.4326
13.4345
13.4363
13.438
27.2359
28.783
28.786
28.7892
28.7923
25.8733
23.0994
16.7384
16.7402
22.1756
22.2618
22.2644
22.2669
22.2691
19.4918
17.5964
17.5982
20.2262
22.1906
22.1926
22.1945
21.4709
21.1588
21.9234
20.6532
17.0691
16.8281
17.4542
17.6385
13.6039
13.4371
13.4387
13.4403
30.3141
34.6739
34.667
30.8905
24.7242
24.9641
24.9649
24.9656
18.4127
17.129
17.1304
19.8209
24.0791
24.0791
22.1676
22.6883
22.6917
22.6915
22.6966
22.6946
22.7015
22.6977
18.8679
17.8434
17.8445
21.2228
23.5358
23.5338
13.4389
11.2683
11.271
11.271
11.2723
22.0029
34.0287
34.0299
34.0387
34.0364
34.044
27.229
23.2504
23.6358
18.7783
18.0974
18.0985
24.2585
35.8531
35.9002
35.8662
10.0618
5.54512
5.5417
5.55067
7.73528
11.0813
16.4743
21.3573
21.521
21.5229
22.8484
24.2071
24.5748
24.071
20.3902
15.569
14.4048
14.4056
15.4372
18.5448
22.3586
26.0657
26.7178
26.7172
26.7234
26.7188
26.7244
23.5777
18.5614
17.6358
17.6368
17.6374
17.6383
19.688
23.7053
23.7462
23.7536
22.8077
22.7489
23.1976
23.1987
21.6909
21.6919
23.4282
25.1123
25.1091
24.5929
19.6985
12.4366
11.8051
11.8051
17.9907
29.4085
36.4953
36.4999
25.6878
20.9694
20.9794
20.9741
20.9813
21.2797
23.2514
23.4775
23.4783
22.019
18.8994
17.4484
17.3084
19.2025
23.0815
24.5349
24.5383
21.722
19.8032
21.1021
24.5402
24.5398
24.3461
13.3282
11.9053
11.9022
11.9054
11.9047
11.9053
18.1875
23.764
23.764
23.7649
23.7651
26.9459
29.41
29.4057
23.2504
20.8855
20.8858
21.8533
23.9213
22.4628
18.0129
17.1501
18.9598
22.48
23.0581
23.061
17.3873
17.3894
21.6429
39.3276
44.7351
25.6117
13.0201
9.72134
9.71799
11.602
13.8973
13.8233
13.8249
13.8265
20.8387
30.4895
30.4885
23.1706
23.1753
26.2969
30.9104
30.9254
30.9112
30.9247
25.0278
18.4109
18.9797
24.7467
25.5684
25.5695
25.569
24.024
23.5153
23.2376
22.4311
20.4176
20.417
20.4163
20.4175
22.0631
23.9533
23.9296
17.177
12.6085
12.6104
12.6105
12.6107
22.3082
32.1415
32.1512
25.2365
22.6226
22.6226
24.319
24.852
22.7661
24.1087
27.7265
27.7213
27.7345
24.0739
24.1173
26.9925
26.9899
26.9895
23.6546
17.2337
17.2451
18.3208
18.8457
19.2726
19.2734
19.2739
19.2745
22.5015
24.9635
24.9683
14.0222
13.9866
13.987
22.8432
37.2468
38.1512
38.1906
38.1516
38.1909
29.0434
29.0804
32.0626
32.0578
28.9742
25.3146
24.6274
24.6269
23.9242
21.2294
18.7047
18.7132
25.7007
27.0474
27.0419
27.0416
26.0789
20.3393
20.3435
20.343
20.3439
22.2924
22.2906
15.5527
12.9856
7.5998
5.27701
22.9393
18.6051
17.8677
18.9766
21.545
20.6761
20.4761
18.1002
18.1043
18.2999
17.5802
17.5841
19.0526
18.5033
17.7506
17.754
19.93
19.3669
18.3646
21.3425
22.2163
22.2207
18.9784
19.6022
18.0904
17.7684
17.7721
19.9777
19.9814
16.5434
19.9963
20.0721
20.076
21.4809
25.0296
25.033
25.0381
25.0404
25.0454
25.0479
19.082
18.1003
18.3472
17.8118
17.7861
20.5333
20.9176
20.9207
20.9248
20.9274
20.9309
20.9106
20.9193
18.7667
19.7452
20.4599
17.9624
17.9647
20.4696
20.4722
18.4874
17.2075
16.5171
16.581
16.9561
16.9583
16.0291
24.5101
24.5128
24.515
27.32
27.7986
23.4591
19.2809
19.2833
19.286
18.7932
21.6908
23.4341
23.4369
23.4398
20.8297
21.0401
21.0428
21.0454
21.0481
22.4309
22.7985
22.7993
20.3638
20.3658
19.0504
17.6507
17.6533
17.6547
19.4229
20.8821
21.8353
21.838
21.8409
23.6099
28.7802
28.7827
28.7862
28.789
23.7097
18.075
16.7377
16.7394
19.461
22.2556
22.2619
22.2648
22.267
22.269
17.4337