/*--------------------------------*- C++ -*----------------------------------*\
  =========                 |
  \\      /  F ield         | OpenFOAM: The Open Source CFD Toolbox
   \\    /   O peration     | Website:  https://openfoam.org
    \\  /    A nd           | Version:  7
     \\/     M anipulation  |
\*---------------------------------------------------------------------------*/
FoamFile
{
    version     2.0;
    format      ascii;
    class       volScalarField;
    location    "2500";
    object      rho1;
}
// * * * * * * * * * * * * * * * * * * * * * * * * * * * * * * * * * * * * * //

dimensions      [1 -3 0 0 0 0 0];

internalField   nonuniform List<scalar> 
160000
(
974.085
974.277
974.468
974.659
974.855
975.047
975.236
975.42
975.598
975.784
975.972
976.153
976.333
976.517
976.692
976.865
977.037
977.208
977.381
977.553
977.722
977.888
978.049
978.21
978.371
978.533
978.695
978.852
979.007
979.158
979.305
979.454
979.612
979.769
979.916
980.063
980.207
980.348
980.484
980.619
980.761
980.904
981.047
981.182
981.313
981.449
981.581
981.709
981.841
981.974
982.105
982.235
982.362
982.485
982.609
982.728
982.85
982.973
983.088
983.203
983.325
983.446
983.561
983.673
983.782
983.895
984.011
984.125
984.234
984.335
984.44
984.547
984.65
984.753
984.854
984.957
985.059
985.159
985.258
985.358
985.456
985.557
985.656
985.751
985.845
985.94
986.033
986.123
986.212
986.304
986.393
986.481
986.573
986.664
986.751
986.834
986.916
987
987.083
987.164
987.245
987.325
987.403
987.484
987.56
987.637
987.713
987.789
987.866
987.943
988.02
988.092
988.164
988.236
988.305
988.376
988.445
988.513
988.584
988.655
988.724
988.791
988.857
988.924
988.99
989.056
989.124
989.188
989.251
989.314
989.376
989.436
989.496
989.559
989.621
989.68
989.738
989.795
989.851
989.905
989.96
990.019
990.074
990.128
990.185
990.241
990.294
990.348
990.4
990.451
990.502
990.552
990.602
990.652
990.702
990.751
990.801
990.85
990.9
990.948
990.996
991.043
991.09
991.138
991.184
991.229
991.275
991.319
991.362
991.404
991.447
991.492
991.534
991.575
991.617
991.657
991.696
991.735
991.775
991.816
991.854
991.892
991.931
991.967
992.004
992.042
992.08
992.119
992.158
992.198
992.24
992.282
992.324
992.364
992.403
992.436
992.466
992.498
992.536
992.578
992.617
992.652
992.684
992.713
992.74
992.768
992.798
992.83
992.861
992.891
992.919
992.948
992.976
993.003
993.031
993.058
993.084
993.11
993.137
993.164
993.192
993.218
993.243
993.267
993.29
993.314
993.339
993.364
993.388
993.413
993.436
993.459
993.483
993.506
993.53
993.553
993.575
993.597
993.619
993.64
993.661
993.682
993.702
993.722
993.742
993.761
993.782
993.803
993.827
993.856
993.887
993.912
993.934
993.952
993.969
993.986
994.003
994.02
994.036
994.053
994.074
994.095
994.112
994.128
994.143
994.16
994.177
994.193
994.208
994.225
994.242
994.259
994.275
994.291
994.306
994.32
994.333
994.348
994.363
994.378
994.393
994.407
994.421
994.435
994.45
994.464
994.478
994.491
994.503
994.516
994.528
994.54
994.551
994.563
994.575
994.587
994.6
994.611
994.622
994.632
994.643
994.658
994.675
994.691
994.704
994.715
994.726
994.736
994.745
994.754
994.764
994.773
994.781
994.79
994.8
994.81
994.82
994.829
994.837
994.845
994.853
994.861
994.869
994.877
994.886
994.895
994.905
994.913
994.921
994.929
994.936
994.944
994.951
994.958
994.965
994.971
994.978
994.984
994.991
994.997
995.004
995.009
995.015
995.021
995.027
995.033
995.038
995.044
995.049
995.055
995.06
995.065
995.07
995.074
995.079
995.084
995.088
995.092
995.097
995.101
995.105
995.109
995.112
995.116
995.12
995.124
995.127
995.13
995.134
995.137
995.14
995.143
995.145
995.148
995.151
995.153
995.155
995.158
995.16
995.162
995.164
995.165
995.167
995.169
995.17
995.172
995.173
995.174
995.175
995.176
995.177
995.178
995.179
995.18
995.18
995.18
995.181
995.181
995.181
995.181
974.089
974.283
974.47
974.661
974.854
975.044
975.233
975.42
975.602
975.786
975.973
976.155
976.332
976.51
976.69
976.865
977.034
977.208
977.384
977.557
977.725
977.889
978.052
978.215
978.374
978.53
978.689
978.85
979.006
979.158
979.309
979.459
979.613
979.768
979.917
980.061
980.208
980.346
980.479
980.62
980.764
980.904
981.045
981.18
981.312
981.449
981.582
981.709
981.838
981.974
982.108
982.236
982.36
982.485
982.609
982.727
982.849
982.971
983.089
983.207
983.325
983.444
983.56
983.672
983.784
983.899
984.011
984.121
984.23
984.336
984.442
984.549
984.652
984.753
984.854
984.957
985.059
985.159
985.259
985.358
985.458
985.557
985.654
985.749
985.843
985.94
986.033
986.123
986.213
986.303
986.394
986.484
986.573
986.664
986.749
986.832
986.915
986.999
987.083
987.164
987.245
987.327
987.404
987.482
987.561
987.637
987.713
987.79
987.867
987.943
988.02
988.093
988.164
988.235
988.305
988.375
988.444
988.514
988.584
988.654
988.725
988.792
988.858
988.925
988.991
989.057
989.123
989.187
989.25
989.314
989.376
989.436
989.496
989.56
989.622
989.68
989.737
989.795
989.851
989.905
989.96
990.018
990.074
990.129
990.186
990.241
990.294
990.348
990.4
990.45
990.501
990.553
990.602
990.652
990.702
990.752
990.801
990.851
990.9
990.948
990.995
991.043
991.091
991.138
991.184
991.229
991.275
991.319
991.362
991.405
991.449
991.492
991.534
991.575
991.617
991.656
991.696
991.736
991.775
991.815
991.853
991.892
991.93
991.966
992.003
992.041
992.08
992.118
992.157
992.197
992.24
992.285
992.328
992.368
992.404
992.435
992.466
992.501
992.54
992.58
992.617
992.65
992.681
992.71
992.739
992.768
992.8
992.831
992.861
992.89
992.919
992.948
992.976
993.003
993.03
993.057
993.084
993.11
993.138
993.165
993.192
993.217
993.242
993.266
993.29
993.315
993.34
993.364
993.388
993.413
993.436
993.459
993.483
993.507
993.531
993.553
993.575
993.597
993.619
993.64
993.661
993.682
993.702
993.722
993.742
993.761
993.781
993.802
993.83
993.862
993.89
993.913
993.932
993.951
993.968
993.986
994.003
994.019
994.036
994.055
994.075
994.094
994.111
994.127
994.143
994.16
994.177
994.192
994.208
994.225
994.243
994.259
994.275
994.291
994.305
994.319
994.333
994.348
994.364
994.378
994.393
994.407
994.421
994.436
994.45
994.464
994.477
994.49
994.503
994.515
994.528
994.539
994.551
994.563
994.575
994.587
994.6
994.612
994.622
994.633
994.645
994.661
994.678
994.692
994.704
994.715
994.725
994.735
994.744
994.754
994.763
994.772
994.781
994.791
994.8
994.81
994.82
994.829
994.837
994.845
994.853
994.861
994.869
994.877
994.886
994.896
994.905
994.913
994.921
994.929
994.936
994.943
994.951
994.958
994.965
994.971
994.978
994.984
994.991
994.997
995.003
995.009
995.015
995.021
995.027
995.033
995.038
995.044
995.049
995.055
995.06
995.065
995.07
995.074
995.079
995.084
995.088
995.092
995.097
995.101
995.105
995.109
995.112
995.116
995.12
995.124
995.127
995.131
995.134
995.137
995.14
995.143
995.145
995.148
995.151
995.153
995.155
995.158
995.16
995.162
995.164
995.165
995.167
995.169
995.17
995.172
995.173
995.174
995.175
995.176
995.177
995.178
995.179
995.18
995.18
995.18
995.181
995.181
995.181
995.181
974.086
974.279
974.471
974.662
974.854
975.045
975.231
975.42
975.604
975.785
975.973
976.155
976.331
976.506
976.687
976.863
977.036
977.213
977.386
977.557
977.726
977.892
978.056
978.215
978.374
978.531
978.688
978.845
979.004
979.16
979.309
979.46
979.613
979.768
979.918
980.062
980.206
980.345
980.481
980.621
980.763
980.904
981.043
981.176
981.313
981.451
981.582
981.709
981.839
981.974
982.109
982.237
982.36
982.483
982.606
982.727
982.847
982.968
983.09
983.21
983.325
983.441
983.559
983.673
983.785
983.9
984.014
984.124
984.231
984.337
984.442
984.545
984.651
984.753
984.853
984.956
985.058
985.159
985.261
985.36
985.457
985.556
985.655
985.749
985.843
985.938
986.031
986.124
986.216
986.305
986.395
986.486
986.574
986.662
986.748
986.831
986.914
986.998
987.082
987.165
987.246
987.327
987.405
987.483
987.56
987.638
987.715
987.791
987.866
987.943
988.018
988.091
988.164
988.235
988.305
988.375
988.444
988.514
988.585
988.656
988.725
988.792
988.858
988.925
988.991
989.057
989.122
989.186
989.25
989.313
989.374
989.436
989.499
989.562
989.622
989.68
989.737
989.794
989.85
989.905
989.96
990.018
990.075
990.13
990.185
990.24
990.294
990.347
990.399
990.45
990.501
990.552
990.601
990.651
990.703
990.753
990.802
990.851
990.9
990.948
990.995
991.043
991.091
991.138
991.184
991.23
991.275
991.32
991.362
991.406
991.45
991.492
991.534
991.576
991.616
991.655
991.695
991.736
991.775
991.814
991.853
991.891
991.928
991.965
992.003
992.04
992.078
992.117
992.156
992.198
992.245
992.295
992.335
992.371
992.404
992.436
992.47
992.506
992.542
992.579
992.614
992.648
992.679
992.709
992.738
992.769
992.8
992.831
992.86
992.89
992.919
992.947
992.975
993.002
993.03
993.057
993.084
993.111
993.138
993.165
993.191
993.216
993.241
993.265
993.29
993.315
993.34
993.364
993.388
993.413
993.436
993.459
993.483
993.507
993.531
993.553
993.576
993.597
993.619
993.64
993.661
993.682
993.702
993.722
993.742
993.761
993.781
993.805
993.838
993.867
993.891
993.912
993.931
993.949
993.967
993.985
994.002
994.019
994.037
994.056
994.075
994.093
994.109
994.126
994.143
994.16
994.176
994.192
994.209
994.226
994.243
994.259
994.275
994.29
994.305
994.319
994.333
994.348
994.364
994.378
994.393
994.407
994.422
994.436
994.45
994.464
994.477
994.49
994.503
994.515
994.527
994.539
994.551
994.563
994.575
994.588
994.6
994.612
994.624
994.636
994.648
994.664
994.679
994.691
994.703
994.714
994.724
994.734
994.744
994.753
994.763
994.772
994.781
994.791
994.8
994.81
994.819
994.828
994.836
994.845
994.853
994.861
994.869
994.878
994.887
994.896
994.905
994.913
994.921
994.928
994.936
994.943
994.951
994.958
994.965
994.971
994.978
994.984
994.991
994.997
995.003
995.009
995.015
995.021
995.027
995.033
995.038
995.044
995.049
995.055
995.06
995.065
995.069
995.074
995.079
995.084
995.088
995.092
995.097
995.101
995.105
995.108
995.112
995.116
995.12
995.124
995.127
995.131
995.134
995.137
995.14
995.143
995.145
995.148
995.151
995.153
995.155
995.158
995.16
995.162
995.164
995.165
995.167
995.169
995.17
995.172
995.173
995.174
995.175
995.176
995.177
995.178
995.179
995.18
995.18
995.181
995.181
995.181
995.181
995.181
974.086
974.279
974.472
974.664
974.857
975.048
975.234
975.421
975.606
975.791
975.974
976.151
976.329
976.506
976.685
976.863
977.037
977.213
977.386
977.558
977.725
977.892
978.056
978.213
978.376
978.534
978.687
978.844
979.005
979.159
979.31
979.461
979.613
979.766
979.918
980.063
980.206
980.345
980.48
980.621
980.764
980.905
981.042
981.177
981.312
981.448
981.58
981.71
981.842
981.974
982.106
982.238
982.361
982.482
982.607
982.729
982.848
982.969
983.088
983.207
983.323
983.44
983.558
983.673
983.786
983.901
984.015
984.125
984.232
984.34
984.445
984.546
984.648
984.75
984.853
984.959
985.06
985.161
985.263
985.361
985.458
985.557
985.654
985.747
985.841
985.937
986.03
986.124
986.215
986.306
986.396
986.485
986.573
986.661
986.745
986.829
986.914
986.998
987.08
987.164
987.248
987.329
987.407
987.484
987.561
987.638
987.715
987.791
987.866
987.942
988.017
988.09
988.163
988.235
988.305
988.375
988.444
988.514
988.585
988.656
988.724
988.791
988.859
988.925
988.99
989.057
989.123
989.187
989.249
989.312
989.374
989.437
989.501
989.563
989.623
989.681
989.737
989.793
989.849
989.905
989.961
990.018
990.073
990.129
990.185
990.24
990.294
990.347
990.398
990.45
990.501
990.552
990.602
990.652
990.703
990.752
990.802
990.852
990.9
990.947
990.995
991.042
991.091
991.139
991.185
991.231
991.276
991.321
991.364
991.408
991.451
991.492
991.533
991.574
991.615
991.655
991.696
991.736
991.774
991.813
991.852
991.89
991.927
991.963
992.001
992.039
992.077
992.117
992.159
992.207
992.259
992.302
992.338
992.371
992.405
992.439
992.473
992.507
992.542
992.577
992.612
992.646
992.678
992.708
992.738
992.769
992.799
992.83
992.859
992.889
992.918
992.946
992.974
993.002
993.03
993.057
993.084
993.111
993.137
993.164
993.19
993.215
993.24
993.265
993.29
993.315
993.34
993.364
993.388
993.412
993.436
993.46
993.484
993.508
993.531
993.553
993.576
993.597
993.619
993.64
993.661
993.682
993.702
993.722
993.742
993.762
993.784
993.812
993.843
993.869
993.89
993.91
993.929
993.948
993.966
993.984
994.001
994.019
994.037
994.056
994.074
994.091
994.108
994.125
994.142
994.16
994.176
994.193
994.209
994.226
994.243
994.259
994.275
994.29
994.305
994.319
994.334
994.349
994.364
994.378
994.393
994.408
994.422
994.436
994.45
994.463
994.477
994.489
994.502
994.515
994.527
994.539
994.551
994.562
994.575
994.588
994.601
994.614
994.626
994.639
994.652
994.665
994.678
994.69
994.702
994.713
994.723
994.733
994.743
994.753
994.762
994.772
994.781
994.791
994.8
994.81
994.819
994.828
994.836
994.845
994.853
994.861
994.87
994.879
994.888
994.896
994.905
994.913
994.92
994.928
994.936
994.943
994.95
994.958
994.965
994.971
994.978
994.985
994.991
994.997
995.003
995.009
995.015
995.021
995.027
995.033
995.038
995.044
995.049
995.055
995.06
995.065
995.069
995.074
995.079
995.083
995.088
995.092
995.097
995.101
995.105
995.109
995.112
995.116
995.12
995.124
995.127
995.131
995.134
995.137
995.14
995.143
995.145
995.148
995.151
995.153
995.155
995.158
995.16
995.162
995.164
995.165
995.167
995.169
995.17
995.172
995.173
995.174
995.175
995.176
995.177
995.178
995.179
995.18
995.18
995.181
995.181
995.181
995.181
995.181
974.085
974.277
974.471
974.667
974.859
975.05
975.236
975.422
975.61
975.793
975.974
976.147
976.322
976.509
976.692
976.864
977.036
977.21
977.382
977.558
977.729
977.894
978.056
978.214
978.375
978.532
978.684
978.843
979
979.156
979.314
979.465
979.614
979.768
979.922
980.064
980.202
980.341
980.481
980.624
980.765
980.904
981.043
981.178
981.311
981.445
981.577
981.708
981.842
981.976
982.106
982.236
982.361
982.484
982.606
982.729
982.849
982.968
983.089
983.207
983.322
983.438
983.556
983.672
983.785
983.9
984.017
984.129
984.235
984.34
984.445
984.546
984.648
984.751
984.853
984.958
985.061
985.162
985.261
985.362
985.461
985.557
985.653
985.747
985.84
985.936
986.031
986.123
986.215
986.306
986.396
986.484
986.572
986.659
986.744
986.828
986.913
986.998
987.08
987.164
987.25
987.332
987.409
987.484
987.562
987.639
987.715
987.79
987.865
987.941
988.016
988.088
988.16
988.234
988.307
988.377
988.445
988.514
988.585
988.655
988.723
988.791
988.859
988.924
988.991
989.058
989.123
989.186
989.248
989.311
989.373
989.436
989.501
989.565
989.625
989.682
989.738
989.793
989.849
989.905
989.961
990.017
990.073
990.13
990.185
990.24
990.294
990.346
990.398
990.45
990.501
990.551
990.602
990.652
990.703
990.753
990.803
990.852
990.899
990.946
990.994
991.042
991.09
991.139
991.186
991.231
991.278
991.324
991.367
991.409
991.451
991.492
991.533
991.573
991.614
991.654
991.695
991.735
991.774
991.812
991.85
991.888
991.925
991.962
991.999
992.037
992.078
992.122
992.171
992.223
992.268
992.305
992.339
992.372
992.405
992.439
992.473
992.507
992.541
992.576
992.611
992.645
992.677
992.707
992.738
992.768
992.799
992.829
992.858
992.887
992.916
992.945
992.973
993.002
993.03
993.057
993.084
993.11
993.137
993.163
993.189
993.215
993.24
993.266
993.291
993.316
993.34
993.364
993.388
993.412
993.436
993.46
993.484
993.508
993.531
993.554
993.576
993.598
993.619
993.64
993.661
993.682
993.703
993.723
993.743
993.766
993.791
993.819
993.845
993.868
993.889
993.908
993.927
993.946
993.964
993.983
994.001
994.019
994.037
994.055
994.073
994.091
994.107
994.124
994.142
994.159
994.176
994.193
994.21
994.227
994.244
994.26
994.275
994.29
994.304
994.319
994.334
994.349
994.364
994.379
994.393
994.408
994.422
994.436
994.449
994.463
994.476
994.489
994.502
994.515
994.527
994.538
994.55
994.562
994.575
994.589
994.603
994.616
994.628
994.641
994.653
994.666
994.678
994.69
994.701
994.712
994.723
994.733
994.742
994.752
994.762
994.771
994.781
994.791
994.801
994.81
994.819
994.828
994.836
994.844
994.853
994.862
994.871
994.88
994.888
994.896
994.904
994.912
994.92
994.928
994.935
994.943
994.95
994.958
994.965
994.972
994.978
994.985
994.991
994.997
995.003
995.009
995.015
995.021
995.027
995.033
995.038
995.044
995.049
995.054
995.059
995.064
995.069
995.074
995.079
995.083
995.088
995.092
995.097
995.101
995.105
995.108
995.112
995.116
995.12
995.124
995.127
995.131
995.134
995.137
995.14
995.143
995.145
995.148
995.151
995.153
995.155
995.157
995.16
995.162
995.164
995.165
995.167
995.169
995.17
995.172
995.173
995.174
995.175
995.176
995.177
995.178
995.179
995.18
995.18
995.181
995.181
995.181
995.181
995.181
974.084
974.273
974.466
974.666
974.858
975.051
975.241
975.427
975.61
975.789
975.971
976.147
976.325
976.51
976.689
976.868
977.042
977.21
977.38
977.552
977.724
977.893
978.058
978.216
978.373
978.533
978.688
978.843
978.997
979.153
979.314
979.467
979.618
979.771
979.921
980.064
980.202
980.342
980.483
980.625
980.765
980.904
981.042
981.176
981.31
981.445
981.578
981.709
981.84
981.974
982.108
982.235
982.359
982.485
982.607
982.728
982.849
982.97
983.088
983.205
983.322
983.436
983.553
983.672
983.785
983.901
984.019
984.131
984.236
984.341
984.444
984.546
984.651
984.754
984.855
984.958
985.062
985.163
985.263
985.361
985.459
985.557
985.652
985.747
985.841
985.936
986.029
986.122
986.215
986.307
986.396
986.482
986.571
986.659
986.743
986.829
986.913
986.997
987.081
987.166
987.25
987.331
987.409
987.487
987.564
987.64
987.715
987.789
987.864
987.94
988.016
988.089
988.161
988.233
988.306
988.376
988.445
988.514
988.584
988.655
988.723
988.792
988.859
988.924
988.991
989.057
989.122
989.185
989.248
989.311
989.374
989.438
989.503
989.565
989.624
989.682
989.739
989.794
989.85
989.905
989.961
990.016
990.072
990.129
990.185
990.239
990.293
990.346
990.398
990.45
990.501
990.551
990.602
990.653
990.703
990.753
990.802
990.85
990.898
990.946
990.994
991.043
991.091
991.139
991.186
991.233
991.28
991.325
991.368
991.409
991.451
991.491
991.532
991.573
991.614
991.654
991.694
991.734
991.773
991.811
991.85
991.887
991.923
991.959
991.996
992.038
992.085
992.136
992.189
992.233
992.271
992.305
992.339
992.372
992.405
992.439
992.473
992.506
992.54
992.575
992.61
992.644
992.676
992.707
992.737
992.768
992.798
992.827
992.857
992.886
992.915
992.944
992.973
993.001
993.029
993.057
993.083
993.11
993.137
993.163
993.189
993.215
993.24
993.265
993.291
993.315
993.34
993.364
993.388
993.412
993.436
993.46
993.484
993.508
993.532
993.555
993.577
993.598
993.619
993.641
993.662
993.683
993.703
993.724
993.746
993.771
993.797
993.821
993.845
993.867
993.888
993.907
993.926
993.945
993.963
993.982
994
994.019
994.037
994.055
994.072
994.09
994.107
994.124
994.141
994.159
994.176
994.194
994.211
994.228
994.244
994.26
994.275
994.289
994.304
994.319
994.334
994.349
994.364
994.379
994.393
994.407
994.421
994.435
994.449
994.463
994.476
994.489
994.502
994.514
994.526
994.538
994.549
994.562
994.578
994.592
994.605
994.617
994.629
994.642
994.654
994.666
994.678
994.689
994.701
994.711
994.722
994.732
994.742
994.752
994.761
994.771
994.781
994.791
994.801
994.81
994.819
994.827
994.836
994.845
994.853
994.862
994.871
994.88
994.888
994.896
994.904
994.912
994.92
994.928
994.935
994.943
994.95
994.958
994.965
994.972
994.978
994.985
994.991
994.997
995.003
995.009
995.015
995.021
995.027
995.033
995.038
995.044
995.049
995.054
995.059
995.064
995.069
995.074
995.079
995.083
995.088
995.092
995.097
995.101
995.105
995.108
995.112
995.116
995.12
995.124
995.128
995.131
995.134
995.137
995.14
995.143
995.145
995.148
995.151
995.153
995.155
995.157
995.16
995.162
995.164
995.165
995.167
995.169
995.17
995.172
995.173
995.174
995.175
995.176
995.177
995.178
995.179
995.18
995.18
995.181
995.181
995.181
995.181
995.181
974.083
974.274
974.466
974.661
974.854
975.049
975.242
975.429
975.612
975.793
975.971
976.147
976.329
976.513
976.692
976.868
977.04
977.211
977.38
977.548
977.722
977.893
978.055
978.213
978.371
978.533
978.69
978.846
979
979.154
979.313
979.47
979.621
979.771
979.919
980.061
980.203
980.345
980.484
980.623
980.763
980.904
981.042
981.176
981.311
981.447
981.578
981.709
981.841
981.973
982.106
982.234
982.358
982.484
982.608
982.728
982.848
982.969
983.087
983.205
983.321
983.435
983.552
983.674
983.791
983.903
984.018
984.132
984.238
984.341
984.443
984.547
984.652
984.755
984.857
984.96
985.061
985.162
985.262
985.36
985.459
985.557
985.651
985.746
985.842
985.936
986.029
986.122
986.215
986.306
986.395
986.482
986.57
986.658
986.744
986.828
986.911
986.996
987.083
987.166
987.25
987.332
987.41
987.488
987.564
987.639
987.715
987.788
987.863
987.941
988.016
988.088
988.16
988.232
988.305
988.375
988.444
988.514
988.585
988.655
988.724
988.793
988.859
988.924
988.991
989.057
989.121
989.185
989.248
989.312
989.375
989.438
989.501
989.564
989.624
989.682
989.739
989.795
989.85
989.905
989.961
990.016
990.072
990.128
990.183
990.238
990.293
990.346
990.398
990.449
990.5
990.552
990.602
990.653
990.704
990.753
990.802
990.85
990.898
990.946
990.995
991.044
991.092
991.139
991.186
991.234
991.281
991.326
991.368
991.409
991.451
991.491
991.532
991.572
991.613
991.653
991.693
991.733
991.772
991.811
991.849
991.885
991.921
991.956
991.994
992.045
992.105
992.155
992.198
992.236
992.271
992.305
992.338
992.371
992.405
992.438
992.472
992.506
992.54
992.574
992.609
992.643
992.675
992.706
992.736
992.767
992.797
992.827
992.856
992.885
992.914
992.943
992.972
993.001
993.028
993.056
993.083
993.11
993.136
993.163
993.189
993.215
993.24
993.265
993.29
993.315
993.34
993.364
993.388
993.412
993.436
993.46
993.484
993.508
993.532
993.555
993.577
993.598
993.619
993.642
993.664
993.685
993.706
993.727
993.75
993.775
993.799
993.822
993.845
993.866
993.886
993.906
993.925
993.944
993.962
993.981
993.999
994.018
994.036
994.054
994.072
994.089
994.106
994.124
994.141
994.159
994.177
994.195
994.212
994.228
994.244
994.259
994.274
994.289
994.304
994.319
994.334
994.349
994.364
994.379
994.393
994.407
994.421
994.435
994.449
994.462
994.476
994.489
994.502
994.514
994.526
994.538
994.55
994.564
994.58
994.593
994.606
994.618
994.63
994.642
994.654
994.666
994.678
994.689
994.7
994.711
994.721
994.732
994.741
994.751
994.761
994.771
994.781
994.791
994.8
994.81
994.819
994.827
994.836
994.845
994.854
994.862
994.871
994.88
994.888
994.896
994.904
994.912
994.92
994.927
994.935
994.943
994.95
994.958
994.965
994.972
994.978
994.985
994.991
994.997
995.003
995.009
995.015
995.021
995.027
995.033
995.038
995.044
995.049
995.054
995.059
995.064
995.069
995.074
995.079
995.083
995.088
995.092
995.097
995.101
995.105
995.109
995.112
995.116
995.12
995.124
995.128
995.131
995.134
995.137
995.14
995.143
995.145
995.148
995.151
995.153
995.155
995.157
995.16
995.162
995.164
995.165
995.167
995.169
995.17
995.172
995.173
995.174
995.175
995.176
995.177
995.178
995.179
995.18
995.18
995.181
995.181
995.181
995.181
995.181
974.083
974.277
974.467
974.659
974.855
975.048
975.238
975.426
975.614
975.795
975.975
976.151
976.33
976.514
976.693
976.865
977.037
977.214
977.385
977.55
977.718
977.887
978.051
978.212
978.372
978.53
978.691
978.85
979.002
979.157
979.315
979.469
979.62
979.771
979.92
980.062
980.204
980.343
980.482
980.623
980.762
980.902
981.04
981.175
981.31
981.446
981.579
981.711
981.843
981.976
982.105
982.232
982.359
982.484
982.607
982.727
982.847
982.967
983.085
983.203
983.321
983.436
983.553
983.674
983.792
983.906
984.019
984.131
984.239
984.342
984.444
984.548
984.654
984.757
984.857
984.959
985.062
985.163
985.261
985.359
985.457
985.554
985.651
985.748
985.843
985.936
986.028
986.121
986.216
986.307
986.395
986.481
986.569
986.656
986.742
986.828
986.912
986.996
987.082
987.167
987.252
987.333
987.411
987.488
987.564
987.639
987.713
987.787
987.863
987.94
988.015
988.089
988.161
988.232
988.303
988.374
988.444
988.515
988.586
988.655
988.724
988.792
988.858
988.924
988.992
989.058
989.121
989.184
989.248
989.312
989.376
989.438
989.501
989.563
989.624
989.683
989.739
989.796
989.85
989.905
989.96
990.017
990.072
990.127
990.183
990.239
990.292
990.344
990.397
990.449
990.5
990.551
990.602
990.653
990.704
990.753
990.802
990.85
990.898
990.946
990.996
991.045
991.092
991.14
991.188
991.235
991.281
991.325
991.367
991.41
991.451
991.491
991.531
991.573
991.613
991.653
991.692
991.733
991.772
991.81
991.847
991.884
991.919
991.957
992.004
992.068
992.12
992.163
992.2
992.235
992.27
992.304
992.337
992.371
992.404
992.437
992.471
992.505
992.539
992.574
992.608
992.642
992.674
992.705
992.735
992.765
992.796
992.826
992.855
992.885
992.914
992.943
992.972
993
993.028
993.055
993.082
993.109
993.136
993.162
993.189
993.214
993.24
993.265
993.29
993.315
993.34
993.364
993.388
993.412
993.435
993.459
993.484
993.509
993.533
993.556
993.577
993.599
993.62
993.643
993.665
993.687
993.708
993.73
993.753
993.776
993.799
993.822
993.843
993.865
993.885
993.905
993.924
993.943
993.961
993.98
993.999
994.017
994.036
994.054
994.071
994.089
994.106
994.124
994.141
994.159
994.178
994.195
994.212
994.228
994.244
994.259
994.274
994.289
994.304
994.319
994.334
994.349
994.364
994.378
994.393
994.407
994.421
994.435
994.449
994.462
994.475
994.488
994.501
994.514
994.526
994.538
994.551
994.565
994.581
994.594
994.607
994.618
994.63
994.642
994.654
994.666
994.678
994.689
994.7
994.711
994.721
994.731
994.741
994.751
994.761
994.771
994.781
994.791
994.8
994.809
994.818
994.827
994.836
994.845
994.854
994.862
994.871
994.88
994.888
994.896
994.904
994.912
994.92
994.928
994.935
994.943
994.95
994.957
994.965
994.971
994.978
994.985
994.991
994.997
995.003
995.009
995.015
995.021
995.027
995.033
995.038
995.044
995.049
995.054
995.059
995.064
995.069
995.074
995.079
995.083
995.088
995.092
995.097
995.101
995.105
995.109
995.112
995.116
995.12
995.124
995.128
995.131
995.134
995.137
995.14
995.143
995.145
995.148
995.151
995.153
995.155
995.157
995.16
995.162
995.164
995.165
995.167
995.169
995.17
995.172
995.173
995.174
995.175
995.177
995.177
995.178
995.179
995.18
995.18
995.181
995.181
995.181
995.181
995.181
974.085
974.277
974.468
974.662
974.854
975.047
975.239
975.426
975.611
975.792
975.974
976.154
976.335
976.518
976.694
976.865
977.04
977.215
977.383
977.549
977.717
977.885
978.05
978.213
978.373
978.532
978.693
978.85
979.003
979.159
979.315
979.468
979.619
979.772
979.921
980.062
980.203
980.34
980.479
980.622
980.765
980.903
981.039
981.175
981.311
981.447
981.581
981.713
981.844
981.977
982.106
982.231
982.356
982.484
982.606
982.726
982.847
982.966
983.083
983.202
983.321
983.436
983.553
983.673
983.791
983.908
984.023
984.133
984.24
984.343
984.445
984.549
984.653
984.756
984.858
984.961
985.064
985.163
985.26
985.357
985.457
985.555
985.652
985.748
985.843
985.936
986.028
986.121
986.214
986.306
986.395
986.482
986.569
986.656
986.741
986.827
986.912
986.996
987.082
987.168
987.252
987.333
987.411
987.488
987.564
987.639
987.713
987.788
987.864
987.939
988.013
988.087
988.16
988.232
988.303
988.374
988.445
988.516
988.586
988.655
988.725
988.792
988.859
988.925
988.991
989.057
989.121
989.185
989.248
989.311
989.374
989.437
989.501
989.565
989.625
989.683
989.739
989.795
989.85
989.905
989.961
990.017
990.073
990.128
990.183
990.237
990.29
990.344
990.396
990.448
990.5
990.551
990.602
990.653
990.703
990.753
990.802
990.851
990.899
990.947
990.996
991.044
991.093
991.142
991.19
991.237
991.282
991.325
991.367
991.409
991.45
991.491
991.532
991.572
991.613
991.652
991.692
991.733
991.772
991.81
991.847
991.884
991.923
991.967
992.026
992.08
992.124
992.163
992.199
992.234
992.268
992.303
992.337
992.37
992.404
992.437
992.471
992.505
992.539
992.573
992.607
992.641
992.673
992.704
992.734
992.765
992.795
992.825
992.854
992.884
992.913
992.942
992.971
992.999
993.027
993.055
993.082
993.109
993.135
993.162
993.188
993.214
993.239
993.265
993.29
993.315
993.34
993.364
993.388
993.412
993.435
993.459
993.484
993.51
993.535
993.557
993.578
993.6
993.622
993.645
993.667
993.689
993.71
993.732
993.754
993.776
993.799
993.821
993.843
993.864
993.884
993.904
993.923
993.942
993.961
993.98
993.998
994.017
994.035
994.053
994.071
994.088
994.106
994.124
994.142
994.16
994.178
994.195
994.212
994.228
994.244
994.259
994.274
994.289
994.304
994.319
994.334
994.349
994.364
994.378
994.393
994.407
994.421
994.435
994.448
994.462
994.475
994.488
994.502
994.514
994.527
994.539
994.553
994.567
994.581
994.594
994.607
994.619
994.631
994.643
994.655
994.666
994.678
994.689
994.7
994.71
994.721
994.731
994.741
994.751
994.761
994.771
994.781
994.79
994.8
994.809
994.818
994.827
994.836
994.845
994.854
994.862
994.871
994.88
994.888
994.896
994.904
994.912
994.92
994.927
994.935
994.943
994.95
994.957
994.965
994.971
994.978
994.985
994.991
994.997
995.003
995.009
995.015
995.021
995.027
995.033
995.038
995.044
995.049
995.054
995.059
995.064
995.069
995.074
995.079
995.083
995.088
995.092
995.097
995.101
995.105
995.109
995.113
995.116
995.12
995.124
995.127
995.131
995.134
995.137
995.14
995.143
995.146
995.148
995.151
995.153
995.155
995.157
995.16
995.162
995.164
995.165
995.167
995.169
995.17
995.172
995.173
995.174
995.175
995.177
995.177
995.178
995.179
995.18
995.18
995.181
995.181
995.181
995.181
995.181
974.087
974.283
974.471
974.659
974.854
975.048
975.236
975.424
975.609
975.791
975.972
976.155
976.337
976.515
976.694
976.868
977.04
977.214
977.382
977.547
977.714
977.885
978.054
978.214
978.375
978.536
978.694
978.849
979.006
979.161
979.313
979.468
979.622
979.772
979.918
980.06
980.203
980.342
980.479
980.62
980.764
980.902
981.039
981.176
981.313
981.447
981.58
981.714
981.846
981.978
982.107
982.23
982.356
982.483
982.605
982.726
982.847
982.966
983.083
983.202
983.32
983.437
983.555
983.673
983.792
983.91
984.025
984.134
984.24
984.343
984.445
984.547
984.651
984.756
984.859
984.962
985.064
985.163
985.26
985.358
985.457
985.554
985.651
985.748
985.844
985.937
986.028
986.12
986.214
986.305
986.394
986.482
986.57
986.657
986.741
986.826
986.911
986.996
987.083
987.169
987.252
987.333
987.412
987.488
987.563
987.638
987.714
987.789
987.864
987.938
988.012
988.085
988.158
988.232
988.304