/*--------------------------------*- C++ -*----------------------------------*\
  =========                 |
  \\      /  F ield         | OpenFOAM: The Open Source CFD Toolbox
   \\    /   O peration     | Website:  https://openfoam.org
    \\  /    A nd           | Version:  7
     \\/     M anipulation  |
\*---------------------------------------------------------------------------*/
FoamFile
{
    version     2.0;
    format      ascii;
    class       volScalarField;
    location    "2500";
    object      T;
}
// * * * * * * * * * * * * * * * * * * * * * * * * * * * * * * * * * * * * * //

dimensions      [0 0 0 1 0 0 0];

internalField   nonuniform List<scalar> 
160000
(
349.842
349.53
349.221
348.909
348.589
348.274
347.962
347.658
347.362
347.052
346.738
346.435
346.131
345.82
345.523
345.23
344.935
344.641
344.344
344.048
343.755
343.466
343.184
342.902
342.619
342.333
342.047
341.769
341.493
341.221
340.958
340.689
340.404
340.12
339.851
339.584
339.319
339.059
338.808
338.559
338.296
338.029
337.762
337.508
337.261
337.005
336.754
336.51
336.259
336.004
335.752
335.501
335.256
335.017
334.776
334.542
334.304
334.062
333.834
333.606
333.365
333.123
332.894
332.669
332.449
332.221
331.987
331.755
331.532
331.326
331.111
330.89
330.677
330.464
330.254
330.04
329.827
329.617
329.408
329.198
328.99
328.775
328.565
328.362
328.16
327.957
327.756
327.561
327.368
327.168
326.973
326.78
326.579
326.379
326.186
326.003
325.82
325.633
325.447
325.265
325.082
324.903
324.725
324.544
324.37
324.194
324.02
323.847
323.669
323.492
323.314
323.145
322.979
322.811
322.648
322.484
322.32
322.159
321.993
321.824
321.659
321.5
321.342
321.183
321.024
320.863
320.701
320.545
320.392
320.238
320.085
319.939
319.792
319.638
319.484
319.338
319.195
319.052
318.912
318.777
318.64
318.493
318.353
318.218
318.073
317.931
317.795
317.659
317.524
317.394
317.265
317.134
317.006
316.876
316.747
316.619
316.49
316.36
316.231
316.104
315.978
315.854
315.729
315.603
315.48
315.361
315.239
315.121
315.006
314.892
314.777
314.657
314.544
314.431
314.317
314.209
314.103
313.996
313.886
313.774
313.67
313.565
313.459
313.357
313.255
313.151
313.044
312.936
312.828
312.716
312.598
312.478
312.361
312.248
312.137
312.042
311.959
311.867
311.757
311.637
311.525
311.426
311.335
311.251
311.173
311.092
311.003
310.91
310.819
310.734
310.65
310.566
310.484
310.404
310.324
310.244
310.166
310.09
310.011
309.929
309.847
309.768
309.695
309.625
309.554
309.482
309.407
309.334
309.261
309.186
309.115
309.046
308.975
308.904
308.832
308.762
308.694
308.627
308.561
308.496
308.431
308.368
308.306
308.245
308.185
308.124
308.062
307.996
307.922
307.832
307.736
307.655
307.59
307.533
307.479
307.426
307.372
307.32
307.271
307.215
307.149
307.085
307.03
306.98
306.931
306.879
306.825
306.774
306.725
306.671
306.616
306.564
306.513
306.462
306.414
306.369
306.325
306.278
306.228
306.18
306.133
306.088
306.043
305.997
305.95
305.904
305.86
305.817
305.777
305.736
305.696
305.658
305.62
305.581
305.542
305.503
305.462
305.424
305.389
305.355
305.319
305.272
305.214
305.162
305.119
305.082
305.048
305.015
304.983
304.952
304.922
304.892
304.863
304.834
304.802
304.769
304.736
304.705
304.677
304.651
304.625
304.599
304.573
304.546
304.516
304.484
304.452
304.424
304.397
304.371
304.346
304.322
304.298
304.274
304.251
304.228
304.206
304.185
304.163
304.14
304.119
304.1
304.08
304.059
304.04
304.021
304.003
303.984
303.965
303.946
303.928
303.912
303.895
303.88
303.864
303.848
303.833
303.818
303.804
303.79
303.776
303.763
303.75
303.738
303.725
303.712
303.7
303.688
303.677
303.666
303.656
303.647
303.638
303.629
303.62
303.611
303.603
303.596
303.589
303.582
303.575
303.569
303.563
303.558
303.552
303.548
303.543
303.539
303.535
303.531
303.528
303.525
303.523
303.521
303.519
303.518
303.516
303.515
303.515
303.515
349.835
349.522
349.217
348.905
348.591
348.279
347.967
347.658
347.356
347.05
346.737
346.432
346.133
345.832
345.527
345.229
344.941
344.642
344.339
344.041
343.749
343.465
343.18
342.894
342.615
342.34
342.058
341.772
341.495
341.222
340.952
340.681
340.402
340.121
339.851
339.586
339.317
339.063
338.818
338.557
338.289
338.028
337.765
337.511
337.263
337.004
336.752
336.51
336.264
336.003
335.746
335.499
335.26
335.016
334.776
334.545
334.305
334.066
333.833
333.599
333.365
333.128
332.895
332.67
332.446
332.214
331.987
331.763
331.54
331.324
331.106
330.887
330.674
330.465
330.255
330.041
329.826
329.616
329.407
329.198
328.986
328.776
328.568
328.367
328.164
327.955
327.755
327.56
327.365
327.169
326.971
326.775
326.578
326.379
326.19
326.006
325.821
325.635
325.448
325.265
325.083
324.899
324.724
324.547
324.368
324.194
324.021
323.844
323.667
323.491
323.314
323.145
322.979
322.813
322.649
322.485
322.322
322.159
321.993
321.826
321.659
321.498
321.339
321.18
321.021
320.862
320.702
320.547
320.393
320.239
320.087
319.94
319.791
319.634
319.481
319.339
319.196
319.052
318.914
318.778
318.639
318.495
318.353
318.214
318.071
317.932
317.796
317.659
317.526
317.397
317.265
317.132
317.006
316.877
316.747
316.617
316.488
316.359
316.231
316.105
315.98
315.854
315.728
315.603
315.481
315.361
315.239
315.12
315.006
314.89
314.773
314.656
314.544
314.431
314.319
314.211
314.103
313.994
313.886
313.777
313.672
313.566
313.461
313.36
313.257
313.152
313.045
312.938
312.83
312.717
312.596
312.47
312.348
312.236
312.135
312.045
311.956
311.857
311.746
311.632
311.527
311.43
311.341
311.257
311.175
311.09
310.999
310.908
310.82
310.735
310.651
310.567
310.485
310.405
310.325
310.245
310.168
310.09
310.009
309.927
309.848
309.772
309.699
309.627
309.555
309.481
309.406
309.333
309.26
309.187
309.116
309.046
308.976
308.901
308.83
308.762
308.694
308.626
308.561
308.496
308.431
308.369
308.307
308.244
308.185
308.125
308.064
307.997
307.913
307.813
307.726
307.655
307.593
307.537
307.482
307.427
307.374
307.322
307.27
307.21
307.146
307.087
307.034
306.983
306.932
306.878
306.825
306.775
306.725
306.67
306.615
306.564
306.512
306.462
306.415
306.37
306.325
306.277
306.228
306.18
306.134
306.088
306.042
305.996
305.949
305.903
305.86
305.818
305.778
305.737
305.697
305.659
305.62
305.581
305.542
305.502
305.462
305.423
305.387
305.353
305.315
305.262
305.206
305.159
305.12
305.084
305.05
305.018
304.986
304.954
304.924
304.893
304.863
304.833
304.801
304.768
304.736
304.706
304.679
304.652
304.625
304.599
304.573
304.544
304.513
304.481
304.451
304.424
304.397
304.371
304.346
304.322
304.298
304.274
304.251
304.228
304.206
304.184
304.162
304.141
304.12
304.1
304.08
304.06
304.04
304.021
304.003
303.984
303.965
303.946
303.929
303.912
303.896
303.88
303.864
303.848
303.833
303.819
303.804
303.79
303.776
303.763
303.75
303.738
303.725
303.712
303.7
303.688
303.677
303.666
303.656
303.647
303.638
303.629
303.62
303.611
303.604
303.596
303.589
303.582
303.575
303.569
303.563
303.558
303.552
303.548
303.543
303.539
303.535
303.531
303.528
303.525
303.523
303.521
303.519
303.518
303.516
303.515
303.515
303.515
349.84
349.528
349.216
348.904
348.59
348.276
347.97
347.658
347.353
347.05
346.737
346.431
346.135
345.839
345.532
345.232
344.938
344.633
344.335
344.04
343.748
343.459
343.173
342.893
342.615
342.338
342.06
341.781
341.497
341.218
340.95
340.679
340.402
340.121
339.847
339.585
339.322
339.065
338.814
338.555
338.291
338.029
337.77
337.518
337.261
337
336.752
336.51
336.263
336.003
335.744
335.497
335.259
335.02
334.78
334.545
334.309
334.071
333.83
333.594
333.364
333.133
332.898
332.668
332.444
332.212
331.98
331.757
331.539
331.321
331.106
330.894
330.676
330.464
330.256
330.042
329.828
329.617
329.403
329.193
328.987
328.777
328.568
328.366
328.165
327.961
327.761
327.559
327.36
327.166
326.969
326.77
326.577
326.383
326.193
326.01
325.825
325.638
325.45
325.264
325.081
324.899
324.721
324.546
324.37
324.193
324.016
323.841
323.668
323.492
323.317
323.148
322.979
322.814
322.65
322.485
322.322
322.159
321.991
321.823
321.659
321.499
321.339
321.179
321.021
320.862
320.704
320.549
320.394
320.241
320.091
319.94
319.785
319.63
319.481
319.338
319.197
319.055
318.916
318.779
318.64
318.495
318.352
318.213
318.072
317.932
317.796
317.661
317.528
317.397
317.265
317.134
317.007
316.878
316.744
316.614
316.487
316.358
316.231
316.105
315.981
315.856
315.729
315.603
315.48
315.359
315.237
315.12
315.005
314.888
314.771
314.655
314.542
314.43
314.321
314.214
314.104
313.993
313.886
313.78
313.674
313.569
313.466
313.363
313.259
313.155
313.049
312.942
312.832
312.715
312.581
312.443
312.328
312.228
312.134
312.041
311.946
311.844
311.74
311.635
311.533
311.437
311.348
311.262
311.177
311.088
310.998
310.909
310.823
310.737
310.653
310.569
310.488
310.407
310.326
310.246
310.167
310.088
310.008
309.928
309.851
309.776
309.702
309.628
309.554
309.479
309.405
309.333
309.26
309.187
309.116
309.046
308.973
308.9
308.83
308.761
308.693
308.626
308.562
308.497
308.432
308.368
308.306
308.244
308.185
308.125
308.064
307.989
307.888
307.797
307.722
307.658
307.599
307.541
307.485
307.43
307.376
307.322
307.267
307.207
307.147
307.091
307.038
306.986
306.932
306.878
306.826
306.775
306.723
306.668
306.615
306.564
306.512
306.463
306.416
306.371
306.325
306.277
306.228
306.181
306.134
306.087
306.04
305.994
305.948
305.905
305.862
305.82
305.779
305.738
305.698
305.659
305.621
305.582
305.543
305.502
305.46
305.42
305.383
305.344
305.302
305.252
305.203
305.161
305.123
305.087
305.054
305.021
304.988
304.957
304.925
304.894
304.863
304.832
304.8
304.768
304.737
304.708
304.68
304.652
304.626
304.599
304.571
304.541
304.51
304.48
304.452
304.425
304.398
304.372
304.347
304.322
304.298
304.274
304.251
304.228
304.206
304.184
304.162
304.141
304.12
304.1
304.08
304.06
304.04
304.021
304.002
303.983
303.964
303.947
303.929
303.913
303.896
303.88
303.864
303.848
303.833
303.819
303.804
303.79
303.777
303.764
303.75
303.737
303.724
303.712
303.7
303.688
303.677
303.666
303.656
303.647
303.638
303.629
303.62
303.612
303.604
303.596
303.589
303.582
303.575
303.569
303.563
303.558
303.552
303.548
303.543
303.539
303.535
303.531
303.528
303.525
303.523
303.521
303.519
303.517
303.516
303.515
303.515
303.515
349.841
349.527
349.214
348.901
348.586
348.272
347.965
347.656
347.348
347.041
346.734
346.437
346.139
345.839
345.535
345.233
344.936
344.633
344.336
344.038
343.748
343.458
343.172
342.897
342.611
342.332
342.062
341.782
341.496
341.219
340.949
340.677
340.403
340.124
339.848
339.584
339.321
339.066
338.817
338.556
338.29
338.027
337.77
337.518
337.262
337.006
336.755
336.508
336.257
336.004
335.751
335.496
335.258
335.022
334.779
334.541
334.307
334.07
333.834
333.599
333.368
333.135
332.899
332.669
332.442
332.21
331.978
331.754
331.537
331.316
331.101
330.893
330.682
330.471
330.257
330.036
329.824
329.613
329.397
329.192
328.986
328.776
328.57
328.37
328.17
327.964
327.761
327.559
327.361
327.163
326.966
326.772
326.578
326.386
326.199
326.012
325.823
325.638
325.454
325.265
325.076
324.894
324.718
324.544
324.369
324.192
324.015
323.841
323.669
323.493
323.321
323.152
322.981
322.814
322.648
322.484
322.322
322.158
321.989
321.822
321.66
321.499
321.338
321.179
321.022
320.862
320.703
320.548
320.396
320.244
320.092
319.938
319.781
319.627
319.479
319.337
319.198
319.057
318.917
318.779
318.636
318.494
318.355
318.214
318.074
317.933
317.795
317.661
317.53
317.398
317.266
317.135
317.005
316.876
316.745
316.616
316.487
316.357
316.231
316.108
315.982
315.856
315.729
315.602
315.478
315.357
315.236
315.117
315
314.883
314.767
314.655
314.545
314.434
314.324
314.214
314.103
313.994
313.888
313.783
313.676
313.571
313.47
313.368
313.264
313.159
313.052
312.942
312.825
312.689
312.542
312.421
312.32
312.226
312.132
312.035
311.938
311.84
311.741
311.639
311.539
311.443
311.352
311.264
311.177
311.089
311
310.912
310.826
310.74
310.655
310.573
310.491
310.408
310.326
310.246
310.166
310.088
310.009
309.931
309.854
309.778
309.703
309.628
309.553
309.479
309.404
309.332
309.259
309.188
309.116
309.044
308.972
308.9
308.829
308.76
308.693
308.626
308.561
308.497
308.432
308.368
308.305
308.244
308.184
308.121
308.053
307.967
307.87
307.791
307.724
307.663
307.604
307.546
307.489
307.434
307.378
307.322
307.265
307.207
307.15
307.095
307.041
306.988
306.934
306.879
306.826
306.774
306.721
306.667
306.615
306.562
306.511
306.463
306.417
306.371
306.325
306.276
306.228
306.18
306.133
306.086
306.04
305.995
305.95
305.906
305.863
305.821
305.78
305.739
305.699
305.66
305.623
305.584
305.543
305.499
305.456
305.415
305.374
305.334
305.292
305.248
305.205
305.165
305.127
305.091
305.056
305.023
304.99
304.959
304.927
304.895
304.863
304.832
304.8
304.769
304.738
304.709
304.681
304.653
304.626
304.598
304.568
304.538
304.508
304.48
304.452
304.426
304.4
304.374
304.348
304.323
304.298
304.274
304.251
304.228
304.206
304.184
304.162
304.141
304.12
304.1
304.08
304.06
304.041
304.021
304.002
303.983
303.965
303.947
303.93
303.913
303.896
303.88
303.864
303.849
303.833
303.819
303.804
303.79
303.777
303.763
303.75
303.737
303.724
303.711
303.699
303.688
303.677
303.666
303.656
303.647
303.637
303.629
303.62
303.612
303.604
303.596
303.589
303.582
303.575
303.569
303.563
303.558
303.552
303.547
303.543
303.539
303.535
303.531
303.528
303.525
303.523
303.521
303.519
303.517
303.516
303.515
303.515
303.514
349.842
349.531
349.215
348.897
348.583
348.268
347.962
347.655
347.343
347.038
346.735
346.444
346.151
345.834
345.523
345.231
344.937
344.639
344.343
344.039
343.742
343.454
343.172
342.895
342.612
342.336
342.066
341.785
341.504
341.225
340.943
340.669
340.401
340.12
339.84
339.581
339.328
339.073
338.814
338.549
338.289
338.028
337.768
337.516
337.265
337.011
336.761
336.513
336.256
336
335.749
335.5
335.257
335.018
334.781
334.541
334.305
334.071
333.833
333.599
333.37
333.139
332.903
332.671
332.444
332.211
331.974
331.747
331.531
331.315
331.101
330.893
330.681
330.468
330.257
330.038
329.822
329.611
329.401
329.189
328.979
328.776
328.572
328.371
328.17
327.965
327.761
327.561
327.361
327.162
326.966
326.774
326.581
326.389
326.202
326.016
325.826
325.637
325.453
325.266
325.073
324.887
324.714
324.542
324.366
324.19
324.015
323.843
323.671
323.496
323.323
323.154
322.987
322.816
322.645
322.48
322.322
322.158
321.989
321.824
321.661
321.499
321.339
321.181
321.022
320.86
320.703
320.55
320.398
320.245
320.093
319.938
319.779
319.622
319.474
319.334
319.195
319.057
318.918
318.779
318.638
318.497
318.355
318.213
318.074
317.934
317.796
317.663
317.53
317.397
317.266
317.137
317.007
316.876
316.745
316.615
316.484
316.356
316.233
316.11
315.984
315.857
315.729
315.6
315.477
315.356
315.231
315.108
314.993
314.88
314.767
314.657
314.546
314.436
314.326
314.216
314.106
313.997
313.89
313.785
313.68
313.576
313.473
313.371
313.27
313.164
313.05
312.928
312.791
312.643
312.518
312.414
312.318
312.225
312.129
312.033
311.937
311.842
311.744
311.644
311.544
311.446
311.354
311.266
311.178
311.09
311.002
310.915
310.829
310.744
310.66
310.576
310.492
310.409
310.327
310.246
310.167
310.089
310.01
309.932
309.855
309.778
309.703
309.628
309.553
309.478
309.405
309.332
309.26
309.188
309.117
309.044
308.971
308.9
308.828
308.758
308.691
308.626
308.561
308.497
308.431
308.367
308.304
308.243
308.18
308.11
308.033
307.947
307.865
307.793
307.729
307.668
307.609
307.551
307.494
307.437
307.38
307.323
307.265
307.208
307.152
307.098
307.044
306.99
306.935
306.88
306.826
306.773
306.719
306.664
306.612
306.561
306.511
306.464
306.418
306.372
306.324
306.275
306.227
306.179
306.132
306.086
306.041
305.995
305.951
305.908
305.865
305.822
305.78
305.739
305.7
305.662
305.625
305.585
305.541
305.496
305.45
305.409
305.368
305.328
305.287
305.245
305.205
305.166
305.129
305.093
305.058
305.025
304.992
304.96
304.928
304.896
304.864
304.832
304.8
304.769
304.739
304.71
304.682
304.654
304.625
304.596
304.566
304.536
304.507
304.48
304.453
304.427
304.401
304.375
304.349
304.323
304.299
304.275
304.25
304.227
304.205
304.184
304.162
304.141
304.12
304.1
304.08
304.06
304.04
304.021
304.002
303.983
303.965
303.947
303.93
303.913
303.897
303.88
303.864
303.849
303.833
303.819
303.804
303.79
303.777
303.764
303.751
303.738
303.724
303.711
303.699
303.687
303.676
303.666
303.656
303.647
303.637
303.628
303.62
303.612
303.604
303.596
303.589
303.582
303.575
303.569
303.563
303.558
303.552
303.547
303.543
303.539
303.535
303.531
303.528
303.525
303.523
303.521
303.519
303.517
303.516
303.515
303.515
303.514
349.843
349.537
349.224
348.899
348.583
348.267
347.955
347.646
347.343
347.045
346.74
346.444
346.145
345.833
345.528
345.224
344.927
344.638
344.346
344.049
343.751
343.457
343.168
342.892
342.616
342.334
342.06
341.785
341.51
341.23
340.943
340.667
340.393
340.116
339.842
339.581
339.328
339.072
338.812
338.548
338.288
338.028
337.77
337.519
337.266
337.011
336.76
336.511
336.26
336.004
335.746
335.5
335.261
335.018
334.779
334.543
334.305
334.068
333.835
333.603
333.371
333.143
332.909
332.672
332.443
332.209
331.97
331.743
331.528
331.314
331.103
330.893
330.676
330.462
330.253
330.038
329.821
329.609
329.399
329.191
328.984
328.777
328.572
328.371
328.17
327.966
327.764
327.564
327.361
327.16
326.967
326.778
326.584
326.39
326.203
326.014
325.825
325.64
325.451
325.261
325.072
324.889
324.714
324.537
324.361
324.188
324.017
323.847
323.675
323.497
323.322
323.153
322.987
322.818
322.648
322.483
322.321
322.158
321.992
321.825
321.661
321.499
321.338
321.181
321.021
320.862
320.705
320.551
320.399
320.246
320.092
319.934
319.776
319.622
319.476
319.334
319.193
319.054
318.916
318.778
318.638
318.498
318.358
318.215
318.074
317.936
317.8
317.664
317.53
317.397
317.267
317.137
317.006
316.875
316.744
316.614
316.486
316.36
316.236
316.11
315.982
315.855
315.728
315.601
315.475
315.351
315.225
315.104
314.99
314.879
314.768
314.658
314.549
314.438
314.327
314.217
314.108
314
313.893
313.787
313.682
313.579
313.479
313.38
313.278
313.161
313.031
312.889
312.74
312.616
312.51
312.413
312.319
312.225
312.13
312.034
311.939
311.844
311.747
311.647
311.546
311.449
311.356
311.267
311.179
311.092
311.005
310.918
310.833
310.747
310.663
310.578
310.494
310.411
310.329
310.248
310.168
310.09
310.011
309.933
309.855
309.778
309.703
309.628
309.553
309.479
309.405
309.333
309.261
309.189
309.116
309.044
308.973
308.9
308.826
308.756
308.69
308.625
308.561
308.495
308.428
308.364
308.302
308.24
308.171
308.093
308.015
307.938
307.865
307.797
307.733
307.673
307.614
307.555
307.497
307.439
307.382
307.324
307.266
307.21
307.155
307.101
307.047
306.992
306.937
306.882
306.826
306.769
306.715
306.661
306.61
306.561
306.513
306.466
306.419
306.372
306.322
306.274
306.226
306.179
306.133
306.087
306.041
305.996
305.952
305.909
305.866
305.823
305.781
305.741
305.701
305.664
305.627
305.585
305.534
305.487
305.444
305.404
305.365
305.325
305.285
305.244
305.205
305.167
305.131
305.095
305.06
305.027
304.994
304.962
304.93
304.897
304.865
304.832
304.8
304.769
304.739
304.71
304.682
304.653
304.624
304.595
304.565
304.536
304.508
304.48
304.454
304.427
304.401
304.375
304.349
304.324
304.299
304.275
304.25
304.227
304.205
304.183
304.162
304.141
304.12
304.1
304.08
304.06
304.041
304.021
304.002
303.983
303.965
303.948
303.931
303.914
303.897
303.88
303.864
303.849
303.834
303.819
303.804
303.79
303.777
303.764
303.751
303.738
303.724
303.711
303.699
303.687
303.676
303.666
303.656
303.646
303.637
303.628
303.62
303.612
303.604
303.596
303.589
303.582
303.575
303.569
303.563
303.558
303.552
303.547
303.543
303.539
303.535
303.531
303.528
303.525
303.523
303.521
303.519
303.517
303.516
303.515
303.515
303.514
349.844
349.536
349.224
348.906
348.59
348.271
347.952
347.643
347.339
347.038
346.739
346.444
346.138
345.826
345.523
345.224
344.93
344.636
344.346
344.056
343.754
343.457
343.174
342.898
342.62
342.334
342.056
341.78
341.505
341.229
340.944
340.661
340.388
340.115
339.847
339.587
339.326
339.066
338.808
338.552
338.292
338.029
337.771
337.52
337.265
337.009
336.759
336.51
336.259
336.006
335.749
335.502
335.262
335.018
334.777
334.543
334.307
334.07
333.836
333.603
333.373
333.146
332.912
332.668
332.432
332.206
331.972
331.741
331.524
331.313
331.105
330.891
330.673
330.46
330.249
330.034
329.821
329.61
329.4
329.192
328.985
328.777
328.575
328.372
328.167
327.965
327.764
327.563
327.362
327.162
326.968
326.779
326.586
326.392
326.201
326.015
325.831
325.641
325.448
325.26
325.071
324.887
324.711
324.534
324.361
324.189
324.017
323.847
323.676
323.497
323.323
323.155
322.988
322.819
322.65
322.484
322.323
322.159
321.991
321.825
321.66
321.496
321.338
321.181
321.02
320.861
320.707
320.553
320.398
320.243
320.089
319.934
319.779
319.625
319.476
319.333
319.192
319.051
318.914
318.777
318.638
318.499
318.359
318.218
318.077
317.937
317.799
317.664
317.531
317.401
317.268
317.135
317.005
316.874
316.742
316.613
316.487
316.362
316.237
316.11
315.981
315.851
315.725
315.601
315.474
315.348
315.223
315.103
314.99
314.879
314.768
314.658
314.549
314.439
314.328
314.219
314.111
314.002
313.894
313.788
313.684
313.583
313.486
313.389
313.282
313.142
312.976
312.834
312.715
312.609
312.51
312.415
312.321
312.227
312.132
312.036
311.941
311.845
311.748
311.648
311.549
311.451
311.358
311.269
311.182
311.095
311.008
310.921
310.835
310.75
310.665
310.58
310.496
310.413
310.331
310.25
310.17
310.091
310.012
309.934
309.856
309.78
309.704
309.628
309.554
309.479
309.405
309.332
309.26
309.189
309.117
309.045
308.973
308.898
308.824
308.755
308.689
308.625
308.559
308.492
308.424
308.359
308.296
308.23
308.158
308.083
308.009
307.936
307.867
307.801
307.738
307.677
307.617
307.558
307.5
307.442
307.384
307.326
307.268
307.212
307.157
307.102
307.047
306.993
306.938
306.882
306.824
306.766
306.712
306.66
306.611
306.562
306.514
306.466
306.419
306.371
306.322
306.273
306.226
306.18
306.133
306.087
306.042
305.997
305.953
305.91
305.866
305.824
305.782
305.741
305.702
305.664
305.626
305.579
305.528
305.482
305.441
305.402
305.363
305.323
305.284
305.244
305.205
305.168
305.132
305.096
305.062
305.028
304.996
304.963
304.93
304.897
304.864
304.832
304.8
304.77
304.74
304.71
304.681
304.652
304.623
304.594
304.565
304.536
304.508
304.481
304.454
304.428
304.402
304.376
304.35
304.324
304.299
304.275
304.25
304.228
304.205
304.183
304.162
304.141
304.12
304.1
304.08
304.06
304.041
304.021
304.002
303.984
303.966
303.948
303.931
303.914
303.897
303.88
303.864
303.849
303.834
303.819
303.804
303.79
303.777
303.763
303.75
303.737
303.724
303.711
303.699
303.687
303.676
303.666
303.656
303.646
303.637
303.628
303.62
303.612
303.604
303.597
303.589
303.582
303.575
303.569
303.563
303.558
303.552
303.547
303.543
303.539
303.535
303.531
303.528
303.525
303.523
303.521
303.519
303.517
303.516
303.515
303.515
303.514
349.845
349.532
349.222
348.909
348.589
348.272
347.959
347.647
347.336
347.033
346.733
346.438
346.136
345.825
345.522
345.229
344.934
344.632
344.337
344.052
343.761
343.467
343.181
342.898
342.619
342.34
342.054
341.772
341.5
341.223
340.94
340.662
340.39
340.115
339.845
339.584
339.325
339.069
338.812
338.552
338.293
338.033
337.774
337.521
337.266
337.01
336.758
336.507
336.254
336
335.751
335.506
335.261
335.019
334.779
334.544
334.309
334.073
333.841
333.607
333.373
333.144
332.909
332.667
332.43
332.2
331.97
331.742
331.522
331.312
331.103
330.888
330.669
330.457
330.247
330.035
329.82
329.609
329.403
329.196
328.988
328.781
328.575
328.369
328.165
327.964
327.766
327.564
327.36
327.162
326.97
326.78
326.587
326.395
326.205
326.016
325.828
325.641
325.45
325.258
325.067
324.885
324.709
324.533
324.361
324.191
324.02
323.85
323.676
323.498
323.325
323.154
322.987
322.82
322.654
322.489
322.324
322.155
321.987
321.823
321.659
321.497
321.34
321.182
321.018
320.859
320.707
320.555
320.399
320.242
320.087
319.934
319.78
319.627
319.476
319.332
319.191
319.051
318.914
318.778
318.639
318.498
318.358
318.219
318.077
317.937
317.801
317.668
317.534
317.401
317.268
317.136
317.006
316.874
316.742
316.614
316.488
316.362
316.236
316.109
315.979
315.85
315.724
315.598
315.47
315.344
315.223
315.106
314.991
314.878
314.767
314.659
314.55
314.438
314.327
314.22
314.112
314.003
313.894
313.79
313.688
313.588
313.49
313.387
313.254
313.078
312.933
312.814
312.708
312.61
312.513
312.417
312.322
312.228
312.134
312.039
311.942
311.846
311.749
311.65
311.552
311.455
311.362
311.272
311.185
311.098
311.011
310.924
310.837
310.751
310.666
310.581
310.498
310.415
310.333
310.252
310.172
310.093
310.014
309.935
309.857
309.781
309.705
309.63
309.554
309.479
309.405
309.333
309.261
309.19
309.118
309.045
308.972
308.897
308.822
308.753
308.687
308.623
308.557
308.487
308.419
308.353
308.287
308.22
308.15
308.079
308.008
307.938
307.87
307.805
307.741
307.68
307.62
307.561
307.503
307.444
307.386
307.327
307.27
307.214
307.158
307.103
307.048
306.992
306.937
306.88
306.822
306.766
306.712
306.661
306.611
306.562
306.514
306.466
306.419
306.371
306.322
306.274
306.227
306.18
306.134
306.088
306.043
305.998
305.954
305.91
305.868
305.825
305.782
305.741
305.701
305.663
305.622
305.574
305.525
305.48
305.44
305.4
305.361
305.322
305.283
305.244
305.205
305.168
305.133
305.098
305.063
305.03
304.996
304.963
304.931
304.898
304.865
304.833
304.801
304.77
304.74
304.71
304.681
304.652
304.623
304.594
304.565
304.536
304.508
304.481
304.454
304.428
304.402
304.376
304.35
304.324
304.299
304.275
304.251
304.228
304.206
304.184
304.162
304.141
304.12
304.1
304.08
304.06
304.04
304.021
304.002
303.984
303.966
303.948
303.931
303.914
303.897
303.881
303.864
303.849
303.833
303.819
303.804
303.79
303.776
303.763
303.75
303.737
303.724
303.711
303.699
303.687
303.676
303.666
303.656
303.647
303.637
303.628
303.62
303.612
303.604
303.597
303.589
303.582
303.576
303.569
303.563
303.558
303.552
303.547
303.543
303.539
303.535
303.531
303.528
303.525
303.523
303.52
303.519
303.517
303.516
303.515
303.515
303.514
349.842
349.53
349.221
348.904
348.591
348.274
347.957
347.648
347.341
347.039
346.735
346.432
346.128
345.819
345.52
345.23
344.93
344.63
344.341
344.053
343.762
343.471
343.184
342.897
342.616
342.336
342.05
341.772
341.499
341.221
340.941
340.664
340.391
340.114
339.842
339.585
339.327
339.074
338.818
338.553
338.289
338.03
337.776
337.521
337.264
337.009
336.755
336.503
336.253
335.999
335.75
335.51
335.267
335.02
334.78
334.546
334.31
334.076
333.844
333.608
333.373
333.142
332.909
332.67
332.431
332.195
331.962
331.738
331.521
331.309
331.1
330.886
330.671
330.459
330.247
330.031
329.816
329.609
329.405
329.199
328.989
328.78
328.573
328.368
328.164
327.964
327.766
327.565
327.363
327.163
326.969
326.778
326.587
326.396
326.208
326.017
325.828
325.641
325.45
325.257
325.067
324.885
324.708
324.534
324.361
324.19
324.02
323.849
323.675
323.501
323.331
323.159
322.989
322.82
322.654
322.489
322.321
322.152
321.987
321.823
321.658
321.497
321.338
321.179
321.02
320.862
320.706
320.552
320.398
320.245
320.092
319.936
319.78
319.623
319.473
319.331
319.191
319.052
318.916
318.779
318.638
318.496
318.356
318.217
318.078
317.941
317.805
317.669
317.535
317.402
317.268
317.136
317.005
316.874
316.744
316.615
316.487
316.36
316.233
316.107
315.979
315.852
315.723
315.592
315.465
315.341
315.221
315.105
314.992
314.88
314.768
314.658
314.549
314.439
314.33
314.222
314.112
314.002
313.895
313.792
313.689
313.586
313.48
313.357
313.194
313.044
312.92
312.812
312.711
312.613
312.517
312.42
312.325
312.23
312.135
312.04
311.944
311.848
311.75
311.652
311.554
311.458
311.365
311.275
311.188
311.101
311.013
310.926
310.84
310.754
310.668
310.584
310.5
310.417
310.335
310.253
310.173
310.094
310.015
309.936
309.858
309.782
309.706
309.63
309.554
309.479
309.406
309.334
309.261
309.19
309.119
309.047
308.971
308.892
308.818
308.75
308.685
308.62
308.552
308.483
308.414
308.348
308.281
308.214
308.146
308.077
308.008
307.939
307.872
307.807
307.744
307.683
307.623
307.563
307.504
307.446
307.387
307.329
307.272
307.216
307.16
307.104
307.048
306.992
306.935
306.878
306.822
306.767
306.714
306.662
306.612
306.562
306.515
306.467
306.419
306.37
306.322
306.274
306.227
306.181
306.134
306.088
306.043
305.999
305.955
305.911
305.868
305.825
305.782
305.741
305.701
305.66
305.616
305.569
305.524
305.48
305.44
305.4
305.361
305.321
305.282
305.243
305.206
305.17
305.134
305.098
305.064
305.031
304.997
304.964
304.931
304.898
304.865
304.833
304.802
304.771
304.741
304.711
304.681
304.652
304.622
304.593
304.564
304.536
304.508
304.481
304.454
304.428
304.402
304.376
304.35
304.325
304.3
304.275
304.251
304.228
304.206
304.184
304.162
304.141
304.121
304.1
304.08
304.06
304.041
304.021
304.002
303.984
303.966
303.948
303.931
303.914
303.897
303.88
303.864
303.849
303.833
303.819
303.804
303.79
303.776
303.763
303.75
303.737
303.724
303.711
303.699
303.687
303.676
303.666
303.656
303.646
303.637
303.628
303.62
303.612
303.604
303.597
303.589
303.582
303.576
303.569
303.563
303.558
303.552
303.547
303.543
303.539
303.535
303.531
303.528
303.525
303.523
303.52
303.519
303.517
303.516
303.515
303.515
303.514
349.838
349.522
349.216
348.909
348.59
348.272
347.962
347.651
347.344
347.041
346.737
346.432
346.125
345.823
345.52
345.223
344.93
344.632
344.343
344.057
343.768
343.471
343.177
342.896
342.613
342.328
342.049
341.774
341.495
341.216
340.944
340.665
340.386
340.114
339.849
339.59
339.327
339.071
338.819
338.557
338.291
338.032
337.776
337.519
337.261
337.009
336.755
336.502
336.249
335.995
335.749
335.51
335.268
335.021
334.783
334.547
334.31
334.076
333.844
333.609
333.375
333.142
332.906
332.669
332.43
332.19
331.958
331.736
331.521
331.309
331.101
330.889
330.675
330.459
330.244
330.028
329.816
329.609
329.404
329.197
328.988
328.782
328.576
328.368
328.163
327.963
327.766
327.567
327.364
327.165
326.972
326.778
326.584
326.394
326.208
326.021
325.832
325.642
325.448
325.254
325.067
324.885
324.707
324.534
324.363
324.191
324.018
323.846
323.674
323.503
323.332
323.162
322.992
322.821
322.652
322.486
322.321
322.154
321.987
321.821
321.658
321.498