/*--------------------------------*- C++ -*----------------------------------*\
  =========                 |
  \\      /  F ield         | OpenFOAM: The Open Source CFD Toolbox
   \\    /   O peration     | Website:  https://openfoam.org
    \\  /    A nd           | Version:  7
     \\/     M anipulation  |
\*---------------------------------------------------------------------------*/
FoamFile
{
    version     2.0;
    format      ascii;
    class       volScalarField;
    location    "500";
    object      alpha.wetting;
}
// * * * * * * * * * * * * * * * * * * * * * * * * * * * * * * * * * * * * * //

dimensions      [0 0 0 0 0 0 0];

internalField   nonuniform List<scalar> 
160000
(
0.559554
0.559554
0.409784
0.493245
0.441099
0.434603
0.527797
0.63938
0.490397
0.520995
0.492309
0.471423
0.458884
0.49492
0.496498
0.493343
0.49172
0.535989
0.640381
0.538673
0.457794
0.470531
0.540346
0.492334
0.419708
0.424716
0.518428
0.555508
0.555493
0.513064
0.491657
0.503906
0.50389
0.461502
0.461502
0.461502
0.570847
0.570825
0.57085
0.533736
0.458128
0.414473
0.520402
0.562095
0.562095
0.562095
0.501366
0.494317
0.459665
0.454312
0.497574
0.543642
0.511307
0.470298
0.460327
0.460326
0.480389
0.480391
0.487939
0.526235
0.526237
0.526235
0.520978
0.509442
0.514099
0.514087
0.466015
0.466013
0.466015
0.517705
0.517743
0.517702
0.515832
0.476268
0.476276
0.476268
0.520434
0.539686
0.539687
0.517792
0.526307
0.526302
0.470999
0.467273
0.467279
0.479815
0.506164
0.509161
0.512396
0.456587
0.456595
0.493778
0.493798
0.493777
0.491315
0.491302
0.53424
0.534239
0.534238
0.529084
0.522568
0.504111
0.511929
0.51193
0.515801
0.478582
0.478573
0.506151
0.517361
0.542122
0.542108
0.532877
0.511713
0.497317
0.497315
0.492291
0.492284
0.541262
0.554425
0.532263
0.532257
0.56237
0.565981
0.56597
0.560984
0.509822
0.462935
0.462942
0.463259
0.463247
0.464859
0.504302
0.519035
0.471802
0.471806
0.494319
0.502223
0.502198
0.48262
0.482642
0.482628
0.482641
0.482628
0.542831
0.542831
0.542831
0.495785
0.48329
0.483282
0.48329
0.503105
0.503105
0.486064
0.483539
0.483531
0.515271
0.515283
0.516302
0.505618
0.486356
0.462977
0.489879
0.507843
0.507825
0.507868
0.52467
0.512162
0.488054
0.494147
0.496536
0.508621
0.508569
0.490272
0.49021
0.490272
0.501085
0.511227
0.51122
0.510595
0.510317
0.510314
0.563324
0.481491
0.481495
0.4815
0.502755
0.529352
0.529353
0.504733
0.478659
0.46336
0.463361
0.493113
0.471766
0.471755
0.471766
0.538333
0.53833
0.495488
0.470178
0.470178
0.483731
0.545092
0.545075
0.528971
0.500918
0.528421
0.567985
0.567967
0.559017
0.546505
0.525109
0.525115
0.525115
0.524939
0.519874
0.519866
0.51991
0.519867
0.51991
0.519868
0.519942
0.519868
0.51988
0.512622
0.512624
0.512433
0.50866
0.517514
0.478431
0.47844
0.528998
0.504345
0.519728
0.519745
0.519733
0.513708
0.513702
0.511297
0.532273
0.532292
0.532124
0.493338
0.493338
0.493674
0.469415
0.469428
0.496392
0.505398
0.49377
0.500945
0.500966
0.453685
0.47274
0.531579
0.531572
0.488246
0.488254
0.509167
0.50914
0.49373
0.493691
0.506859
0.507132
0.514142
0.532346
0.532344
0.494765
0.48238
0.470409
0.470411
0.503485
0.503495
0.511023
0.511023
0.510977
0.524077
0.524076
0.478735
0.529618
0.529604
0.53667
0.53666
0.511436
0.496911
0.525285
0.525285
0.525285
0.481393
0.463314
0.46332
0.463314
0.534992
0.534986
0.535004
0.534986
0.514113
0.510891
0.510878
0.487146
0.487161
0.520237
0.528055
0.52805
0.509376
0.482825
0.488853
0.48625
0.52204
0.522039
0.522039
0.51927
0.519273
0.517029
0.484568
0.486711
0.486789
0.475334
0.475373
0.475343
0.475373
0.501549
0.501532
0.499908
0.499904
0.517613
0.517612
0.478494
0.479522
0.479533
0.476652
0.476658
0.468606
0.456771
0.45677
0.476803
0.459127
0.458058
0.458115
0.458032
0.458099
0.458056
0.458078
0.526639
0.589635
0.589625
0.58969
0.589604
0.572345
0.494192
0.47491
0.512443
0.516423
0.498676
0.520503
0.520508
0.488389
0.488392
0.497245
0.503091
0.524259
0.524255
0.516705
0.502286
0.502328
0.502281
0.531251
0.531251
0.531251
0.531253
0.531253
0.53129
0.531252
0.531291
0.522051
0.508423
0.508428
0.511681
0.511677
0.527059
0.518823
0.501471
0.489378
0.49872
0.498699
0.498756
0.4987
0.498757
0.490979
0.508101
0.508104
0.507932
0.478563
0.476358
0.496368
0.4957
0.484529
0.484502
0.436222
0.399759
0.481438
0.437935
0.620173
0.42433
0.424331
0.454153
0.458082
0.464647
0.514127
0.514124
0.452803
0.528483
0.528483
0.52682
0.543802
0.531078
0.471036
0.471049
0.500242
0.457794
0.457792
0.511307
0.540347
0.540346
0.49922
0.538291
0.525909
0.487943
0.487953
0.490559
0.487866
0.487864
0.503906
0.495613
0.461502
0.52366
0.529574
0.529581
0.570826
0.454024
0.40856
0.408563
0.408592
0.522767
0.562095
0.550849
0.496498
0.502074
0.454312
0.454312
0.454312
0.543663
0.569168
0.569163
0.486662
0.565932
0.531489
0.483994
0.493473
0.493481
0.502427
0.507614
0.481835
0.50945
0.509449
0.475637
0.513634
0.517706
0.517698
0.517707
0.485052
0.476781
0.476768
0.504072
0.504057
0.502578
0.494215
0.496088
0.508712
0.500176
0.500173
0.513175
0.524036
0.524037
0.524037
0.506844
0.506166
0.524386
0.524385
0.524386
0.518831
0.48802
0.480394
0.480421
0.489539
0.499918
0.485279
0.464339
0.464338
0.479553
0.4967
0.496704
0.549152
0.54915
0.549147
0.542932
0.542927
0.504251
0.502828
0.502787
0.502828
0.502817
0.528629
0.526771
0.501141
0.493928
0.507389
0.541027
0.559282
0.559276
0.504761
0.504766
0.505158
0.505159
0.507539
0.521212
0.511162
0.535238
0.535236
0.520313
0.483062
0.523728
0.556429
0.556423
0.544076
0.54915
0.502221
0.502187
0.527364
0.52736
0.52738
0.52736
0.52149
0.523049
0.475204
0.479724
0.543772
0.523078
0.511377
0.51197
0.479891
0.479887
0.511726
0.511722
0.511751
0.51173
0.511759
0.516303
0.463491
0.466073
0.45391
0.453912
0.45391
0.479507
0.513121
0.524671
0.52467
0.488058
0.492355
0.492365
0.508485
0.487708
0.535991
0.536061
0.536
0.536152
0.51783
0.511216
0.536113
0.536947
0.580896
0.580892
0.522547
0.522639
0.52264
0.505945
0.455941
0.455945
0.564987
0.565221
0.565218
0.53196
0.558355
0.55835
0.524234
0.524237
0.516114
0.538333
0.535847
0.530606
0.482359
0.482373
0.534246
0.545092
0.519934
0.487968
0.487964
0.48796
0.487964
0.487968
0.487972
0.525117
0.525115
0.524675
0.538819
0.527764
0.473121
0.473128
0.473121
0.487388
0.51745
0.519868
0.518581
0.518531
0.524417
0.504458
0.504461
0.504458
0.532197
0.532207
0.532198
0.532218
0.501929
0.45766
0.457663
0.527148
0.52713
0.527135
0.511278
0.511294
0.511278
0.534017
0.534015
0.530142
0.499064
0.524111
0.524061
0.519128
0.509812
0.481384
0.474904
0.469717
0.437124
0.437132
0.515676
0.501765
0.48581
0.528746
0.501425
0.490507
0.490505
0.507545
0.507534
0.47281
0.45925
0.459253
0.45925
0.537222
0.537219
0.537222
0.470393
0.449795
0.449796
0.449798
0.498077
0.509604
0.483771
0.462422
0.462431
0.483982
0.482826
0.482823
0.486359
0.486382
0.486354
0.486387
0.486382
0.492796
0.54573
0.545728
0.530499
0.485498
0.45099
0.451005
0.452582
0.535004
0.531178
0.511743
0.564913
0.558352
0.493388
0.48506
0.48507
0.490648
0.478614
0.466432
0.488855
0.46972
0.469723
0.52204
0.499902
0.519273
0.481724
0.481734
0.481739
0.481741
0.509297
0.536103
0.536111
0.536119
0.475519
0.475534
0.501648
0.501649
0.500232
0.517612
0.498034
0.473436
0.473441
0.540189
0.529478
0.47231
0.490318
0.490327
0.472271
0.490145
0.52451
0.486007
0.48284
0.513097
0.463252
0.458101
0.458076
0.501305
0.567169
0.488969
0.474486
0.521213
0.520838
0.488986
0.474911
0.523542
0.521071
0.498689
0.498676
0.529446
0.530323
0.540917
0.54092
0.526994
0.503592
0.503594
0.503593
0.521751
0.521721
0.521797
0.512908
0.495444
0.495447
0.507017
0.507024
0.507033
0.512116
0.521278
0.524526
0.524514
0.525776
0.525783
0.52579
0.527057
0.527059
0.484104
0.456322
0.456325
0.463004
0.453539
0.453541
0.47001
0.491006
0.475678
0.475749
0.511227
0.476358
0.476357
0.50255
0.502555
0.490523
0.490545
0.440279
0.399702
0.481438
0.505548
0.622267
0.603749
0.559694
0.458539
0.524532
0.521805
0.500451
0.508579
0.50901
0.509004
0.509699
0.543802
0.543801
0.502464
0.479743
0.452243
0.485599
0.511599
0.511591
0.509509
0.505379
0.520022
0.550113
0.550113
0.532883
0.532876
0.532866
0.499596
0.503201
0.503197
0.485264
0.466817
0.461505
0.542451
0.542448
0.542449
0.527998
0.500955
0.502111
0.502116
0.502116
0.50212
0.452444
0.452447
0.496502
0.518224
0.518224
0.503615
0.454312
0.472663
0.511016
0.56632
0.566311
0.566308
0.555232
0.46014
0.459893
0.459888
0.472581
0.507613
0.47702
0.477029
0.485622
0.475636
0.475637
0.475637
0.484694
0.517698
0.510346
0.482469
0.466669
0.466657
0.502815
0.499126
0.494223
0.501659
0.501653
0.498318
0.522404
0.522402
0.4637
0.463715
0.524047
0.517401
0.517027
0.484467
0.484457
0.519296
0.506597
0.488013
0.50235
0.502345
0.485201
0.499928
0.506677
0.506678
0.506677
0.502403
0.52797
0.527984
0.506853
0.543093
0.504303
0.498755
0.498749
0.515366
0.547487
0.515042
0.502814
0.528629
0.528621
0.542454
0.542457
0.505364
0.507384
0.506198
0.490205
0.488407
0.492365
0.522119
0.522119
0.522119
0.521744
0.521749
0.51816
0.527674
0.503382
0.503373
0.505124
0.505184
0.505147
0.506591
0.554186
0.553407
0.54586
0.510172
0.469693
0.49489
0.512815
0.472122
0.472104
0.52673
0.466476
0.466483
0.555892
0.555884
0.545126
0.51907
0.492365
0.479891
0.511461
0.474587
0.474613
0.474587
0.537835
0.487855
0.450603
0.450609
0.487399
0.546651
0.546649
0.541746
0.514983
0.48723
0.475947
0.475948
0.511878
0.509934
0.497021
0.469273
0.469269
0.469273
0.518954
0.536189
0.536155
0.536189
0.515181
0.492202
0.481743
0.529623
0.531298
0.510712
0.510711
0.536659
0.536658
0.536659
0.517325
0.480205
0.480225
0.496462
0.527471
0.53401
0.534012
0.488071
0.488082
0.53833
0.521358
0.490467
0.496789
0.496772
0.477484
0.477478
0.489053
0.509823
0.509822
0.509823
0.503715
0.491281
0.515483
0.475501
0.475504
0.51668
0.538821
0.53061
0.473127
0.473121
0.514536
0.524978
0.524977
0.514227
0.517718
0.539554
0.539955
0.563686
0.563663
0.516882
0.488766
0.488776
0.518755
0.531148
0.458266
0.457663
0.466018
0.466022
0.466029
0.529172
0.530667
0.530677
0.530692
0.530701
0.487329
0.452128
0.452124
0.452128
0.496859
0.496859
0.496883
0.517025
0.47517
0.444434
0.437132
0.469806
0.498008
0.473197
0.4732
0.528752
0.528747
0.528751
0.500913
0.474771
0.474781
0.523486
0.525563
0.525564
0.47028
0.470306
0.470319
0.509435
0.535729
0.535798
0.535729
0.535799
0.486326
0.486397
0.500719
0.462431
0.514434
0.514433
0.514463
0.498605
0.486382
0.517578
0.534124
0.534129
0.534133
0.519194
0.519196
0.542398
0.474373
0.474387
0.475819
0.511138
0.529847
0.529813
0.529897
0.564913
0.564902
0.489147
0.474744
0.474744
0.526912
0.526885
0.497551
0.456737
0.456733
0.456737
0.477898
0.466041
0.466037
0.497717
0.504233
0.50422
0.518712
0.533207
0.533216
0.533224
0.513003
0.538183
0.538183
0.538183
0.48833
0.451511
0.451514
0.463504
0.463505
0.503788
0.520351
0.54019
0.540189
0.472296
0.432444
0.42659
0.426593
0.514927
0.53877
0.538505
0.538502
0.538471
0.493535
0.533792
0.533796
0.501294
0.522605
0.509504
0.474485
0.474486
0.479928
0.528026
0.528029
0.528026
0.501549
0.498676
0.510675
0.522742
0.459869
0.459869
0.459869
0.496741
0.511518
0.511516
0.511518
0.491785
0.491794
0.496363
0.569522
0.516549
0.504376
0.529715
0.52973
0.528748
0.46857
0.458034
0.458034
0.462054
0.464259
0.471766
0.515949
0.504178
0.476842
0.520865
0.520862
0.520858
0.463331
0.507257
0.515224
0.512441
0.465614
0.46562
0.506977
0.527618
0.527619
0.521769
0.461229
0.456932
0.456932
0.459008
0.399702
0.399657
0.504345
0.482764
0.495232
0.506861
0.506959
0.545813
0.545812
0.486342
0.480685
0.489138
0.489139
0.489985
0.475454
0.484488
0.517945
0.461484
0.441371
0.441369
0.484371
0.486522
0.508103
0.492637
0.492606
0.521106
0.521104
0.508075
0.528176
0.498729
0.457823
0.471851
0.487446
0.484818
0.515344
0.508409
0.530023
0.529997
0.496966
0.496966
0.527997
0.513672
0.465575
0.465577
0.466358
0.479894
0.482465
0.466842
0.466848
0.466852
0.470533
0.501249
0.501236
0.486448
0.481019
0.501448
0.44621
0.446214
0.446217
0.493186
0.504817
0.504816
0.500743
0.441384
0.441388
0.494589
0.511397
0.511713
0.511716
0.56017
0.560182
0.440724
0.440733
0.472623
0.514873
0.514863
0.507996
0.449433
0.449443
0.449443
0.449443
0.498337
0.521553
0.449191
0.449199
0.505923
0.534215
0.521752
0.509963
0.486995
0.485777
0.486733
0.455059
0.502776
0.500544
0.478928
0.473784
0.46074
0.452142
0.497613
0.473127
0.469926
0.46993
0.528184
0.487123
0.48712
0.519337
0.50174
0.488318
0.52056
0.547494
0.545928
0.533007
0.511283
0.465009
0.465015
0.525379
0.523692
0.489485
0.50541
0.487097
0.485566
0.492369
0.458911
0.435288
0.43529
0.521749
0.488644
0.486532
0.486523
0.513237
0.500308
0.486626
0.509291
0.509294
0.563138
0.563132
0.563138
0.500896
0.469693
0.469698
0.477435
0.472121
0.472095
0.540499
0.540499
0.540515
0.540515
0.490504
0.497134
0.526365
0.480441
0.480451
0.499001
0.479718
0.54224
0.545708
0.54576
0.545708
0.522861
0.496133
0.509808
0.49691
0.543494
0.546651
0.507697
0.464816
0.491372
0.493732
0.567478
0.517835
0.465553
0.465547
0.479797
0.519853
0.519845
0.499507
0.499481
0.499497
0.502427
0.514865
0.512094
0.479935
0.472324
0.53132
0.531329
0.531338
0.531344
0.526728
0.524278
0.466254
0.46422
0.536491
0.536492
0.536492
0.480432
0.480449
0.480453
0.501863
0.48743
0.484116
0.48836
0.481919
0.531995
0.525048
0.504794
0.495682
0.492435
0.478105
0.478121
0.47813
0.530867
0.53085
0.530846
0.511041
0.512074
0.51023
0.510243
0.529185
0.504769
0.455997
0.451405
0.438288
0.438294
0.462887
0.496001
0.541602
0.54212
0.50089
0.52175
0.502435
0.50963
0.474353
0.473118
0.513745
0.503957
0.556254
0.556244
0.556254
0.477586
0.452871
0.452872
0.452871
0.508011
0.507987
0.50088
0.555659
0.564316
0.564319
0.501381
0.500908
0.517024
0.538214
0.538207
0.460945
0.477758
0.477711
0.5006
0.500606
0.500612
0.517771
0.514308
0.541664
0.541667
0.510859
0.49151
0.499934
0.493267
0.520967
0.554049
0.553989
0.49255
0.492532
0.49255
0.492547
0.512579
0.524097
0.524099
0.51632
0.499128
0.477495
0.477495
0.513486
0.511534
0.489889
0.462204
0.462203
0.489345
0.54131
0.541295
0.521982
0.521972
0.545491
0.558838
0.486825
0.474219
0.474208
0.474196
0.533622
0.533637
0.455445
0.463736
0.498828
0.565793
0.56579
0.511316
0.50642
0.506424
0.502353
0.481361
0.508946
0.508909
0.513379
0.518965
0.488078
0.469938
0.47
0.469943
0.47
0.521051
0.479802
0.479806
0.482882
0.482873
0.501998
0.501995
0.508787
0.511223
0.518333
0.526058
0.526048
0.504915
0.54019
0.539815
0.529585
0.546488
0.546508
0.514901
0.540616
0.50386
0.480067
0.480076
0.480078
0.480079
0.557968
0.557963
0.557968
0.482268
0.474486
0.487448
0.479931
0.488992
0.488982
0.525826
0.54404
0.54404
0.536628
0.488139
0.461337
0.503819
0.503812
0.501407
0.470289
0.474303
0.451146
0.491969
0.491936
0.467726
0.569573
0.584933
0.517167
0.473671
0.473602
0.493771
0.493766
0.45802
0.458034
0.458035
0.458037
0.504265
0.484748
0.464369
0.464373
0.487497
0.520865
0.520862
0.491289
0.491294
0.515236
0.494509
0.483785
0.470011
0.470015
0.47575
0.511803
0.509428
0.461238
0.460999
0.486602
0.525317
0.47793
0.399585
0.519151
0.616337
0.511687
0.543681
0.530411
0.504612
0.485467
0.485471
0.475265
0.470623
0.494206
0.494362
0.475462
0.463825
0.463835
0.513262
0.513282
0.513262
0.513283
0.470984
0.471005
0.492156
0.492605
0.478128
0.478123
0.508079
0.528169
0.422745
0.422744
0.460236
0.460242
0.460251
0.523259
0.451274
0.516206
0.524081
0.512412
0.517722
0.504753
0.504756
0.518654
0.516078
0.466355
0.492355
0.530009
0.530008
0.501064
0.494712
0.465115
0.465112
0.488618
0.480746
0.474951
0.474952
0.516435
0.516438
0.500079
0.49513
0.49513
0.495132
0.498703
0.489291
0.493217
0.470081
0.470094
0.481081
0.470099
0.523513
0.562068
0.562114
0.468811
0.51619
0.515259
0.473833
0.500995
0.449443
0.449442
0.468263
0.464624
0.464633
0.464641
0.561303
0.561273
0.554589
0.534203
0.495352
0.495354
0.495997
0.47097
0.456149
0.455061
0.502777
0.516041
0.509694
0.50472
0.504316
0.452136
0.452138
0.452141
0.471442
0.471407
0.528211
0.568136
0.568104
0.565186
0.512046
0.45742
0.457422
0.47859
0.479798
0.493827
0.518411
0.518411
0.489849
0.475336
0.475333
0.489481
0.462388
0.462387
0.48559
0.48354
0.481528
0.521157
0.521154
0.467732
0.467739
0.495611
0.537325
0.537315
0.519984
0.451276
0.451326
0.451329
0.451335
0.558766
0.526847
0.50088
0.501731
0.501741
0.501752
0.479284
0.472121
0.472097
0.472122
0.48389
0.473189
0.47319
0.509377
0.489372
0.475272
0.509176
0.510021
0.479718
0.469152
0.469225
0.469156
0.469225
0.469199
0.501896
0.51122
0.469664
0.428697
0.428647
0.428691
0.428655
0.435197
0.435209
0.567523
0.581486
0.545153
0.465519
0.459371
0.459365
0.519854
0.519842
0.504594
0.504536
0.485328
0.48532
0.506103
0.506091
0.464227
0.447077
0.447077
0.492437
0.531336
0.527005
0.518941
0.450209
0.439034
0.439028
0.50567
0.508746
0.464363
0.501868
0.501863
0.5019
0.501863
0.480277
0.472306
0.478035
0.532034
0.531995
0.490568
0.447446
0.447451
0.464737
0.525214
0.535017
0.535003
0.481058
0.481056
0.489178
0.489162
0.509888
0.529185
0.529183
0.527502
0.527485
0.510133
0.512859
0.52531
0.478116
0.478129
0.487531
0.504112
0.500896
0.53948
0.555962
0.55597
0.473079
0.473108
0.513746
0.491277
0.556244
0.556254
0.532419
0.485242
0.500199
0.500197
0.500194
0.49649
0.49649
0.50733
0.506455
0.483337
0.463282
0.458903
0.506846
0.50683
0.506864
0.526711
0.476624
0.476606
0.489857
0.489828
0.5006
0.474926
0.430566
0.430572
0.466826
0.52434
0.524325
0.470747
0.437396
0.438313
0.427708
0.521883
0.576484
0.576466
0.55778
0.540895
0.540883
0.534055
0.492163
0.542411
0.542387
0.534365
0.479587
0.477495
0.518282
0.498186
0.489892
0.492386
0.492368
0.452607
0.452522
0.452525
0.522156
0.540113
0.558838
0.558845
0.545621
0.495193
0.487302
0.456399
0.456418
0.459956
0.452338
0.452358
0.4524
0.565789
0.565793
0.56579
0.532513
0.486875
0.502343
0.502329
0.50165
0.507537
0.518965
0.518964
0.504263
0.509421
0.521209
0.528887
0.472094
0.472129
0.500579
0.500577
0.500578
0.498395
0.469604
0.469604
0.51121
0.511217
0.478882
0.478893
0.478898
0.478901
0.484987
0.44025
0.44023
0.440229
0.557109
0.564229
0.541488
0.485679
0.485683
0.521969
0.521962
0.511385
0.487066
0.487094
0.487068
0.508852
0.508827
0.4972
0.499174
0.499168
0.499247
0.499174
0.54404
0.54404
0.532646
0.529213
0.464398
0.482641
0.480871
0.459821
0.459818
0.48515
0.448936
0.434538
0.434563
0.434583
0.434603
0.592969
0.593008
0.531283
0.543734
0.478085
0.454625
0.454627
0.471769
0.513985
0.513989
0.513997
0.519774
0.519707
0.519753
0.497982
0.492583
0.488459
0.488462
0.525752
0.518376
0.46275
0.462761
0.490652
0.535229
0.525109
0.47724
0.477245
0.500247
0.546364
0.546356
0.525303
0.443187
0.399528
0.479231
0.57125
0.528004
0.465224
0.46522
0.504613
0.486238
0.485467
0.55373
0.529782
0.499594
0.49532
0.541502
0.5415
0.525098
0.480819
0.480799
0.484301
0.474973
0.474606
0.513281
0.437399
0.437401
0.451192
0.50523
0.489654
0.480829
0.473832
0.512865
0.519076
0.467897
0.463103
0.468733
0.439387
0.539534
0.547704
0.547735
0.547714
0.547745
0.547724
0.547739
0.51284
0.483411
0.530009
0.530008
0.530007
0.466194
0.466203
0.506545
0.475268
0.46216
0.469423
0.494177
0.478004
0.478001
0.524952
0.524951
0.515017
0.517412
0.517412
0.495322
0.517073
0.503696
0.470073
0.470081
0.470094
0.470101
0.548513
0.562114
0.562068
0.562115
0.538697
0.45253
0.43901
0.521017
0.521009
0.51073
0.468263
0.45494
0.489966
0.489963
0.485634
0.485635
0.509342
0.534628
0.534627
0.534628
0.516045
0.43979
0.439798
0.455601
0.516041
0.516036
0.476612
0.459423
0.452136
0.452135
0.46079
0.460773
0.397478
0.397478
0.55764
0.568116
0.485747
0.485673
0.48759
0.510097
0.532818
0.532815
0.530322
0.493832
0.493848
0.499543
0.501751
0.475333
0.475336
0.475335
0.562042
0.562036
0.536455
0.536443
0.508658
0.477868
0.477856
0.456868
0.505552
0.505554
0.499381
0.504883
0.518181
0.494242
0.451327
0.451342
0.478053
0.558725
0.558691
0.505991
0.497295
0.493164
0.525112
0.525118
0.538421
0.538416
0.47263
0.472645
0.51717
0.517176
0.51717
0.493349
0.471759
0.507344
0.511668
0.511675
0.485089
0.513484
0.50696
0.529142
0.529152
0.522742
0.524141
0.504141
0.522325
0.522333
0.468631
0.428691
0.439074
0.435209
0.558171
0.581523
0.550198
0.474222
0.474232
0.466673
0.466664
0.47867
0.540237
0.540373
0.540375
0.540373
0.503576
0.449832
0.449835
0.454855
0.471248
0.508972
0.508972
0.52131
0.511688
0.537614
0.54907
0.439034
0.461469
0.507836
0.464349
0.463418
0.460365
0.44522
0.445177
0.44522
0.445222
0.445225
0.548274
0.487946
0.447446
0.447451
0.481822
0.481823
0.481822
0.481826
0.515094
0.515081
0.495965
0.500918
0.500912
0.486978
0.452218
0.449338
0.44933
0.468534
0.492108
0.493665
0.544352
0.553541
0.50533
0.493455
0.538345
0.544071
0.544067
0.52199
0.474131
0.45704
0.4886
0.49276
0.405094
0.522359
0.553257
0.496769
0.46373
0.453683
0.453683
0.484529
0.569611
0.569603
0.525467
0.507783
0.499602
0.426191
0.426197
0.503129
0.559323
0.559322
0.559322
0.516409
0.476632
0.476614
0.481783
0.48178
0.485166
0.504697
0.504702
0.504706
0.50524
0.518468
0.508638
0.490836
0.460179
0.425391
0.576484
0.576484
0.565568
0.492756
0.470266
0.451071
0.450227
0.450219
0.498108
0.4981
0.55785
0.557906
0.557911
0.527448
0.498906
0.499675
0.469805
0.484121
0.487808
0.488607
0.474509
0.471039
0.471041
0.458379
0.452695
0.429598
0.429603
0.449205
0.449198
0.503503
0.503483
0.44863
0.49758
0.497576
0.563102
0.489776
0.489764
0.498934
0.486876
0.486878
0.502318
0.472609
0.466746
0.466726
0.466764
0.466742
0.466779
0.508701
0.528884
0.528887
0.492388
0.489351
0.499801
0.484604
0.5184
0.518403
0.469592
0.469478
0.469478
0.469478
0.520209
0.520197
0.517015
0.517025
0.511412
0.44664
0.440207
0.564227
0.564298
0.564227
0.522581
0.496756
0.471005
0.449573
0.449576
0.51672
0.487067
0.487094
0.487084
0.508859
0.508833
0.462343
0.456897
0.507063
0.507069
0.507065
0.470235
0.481353
0.481354
0.528959
0.468057
0.466023
0.466041
0.50462
0.504608
0.496349
0.467872
0.434581
0.434603
0.434623
0.593001
0.59297
0.593008
0.586702
0.539185
0.539119
0.496665
0.496718
0.472364
0.472176
0.472181
0.519707
0.519775
0.470196
0.462898
0.4629
0.530752
0.530781
0.525752
0.542931
0.542971
0.542935
0.543033
0.542934
0.525289
0.491264
0.47724
0.546364
0.546356
0.448472
0.399567
0.399528
0.399483
0.538919
0.465397
0.42662
0.459606
0.492117
0.49474
0.501324
0.534321
0.53818
0.516452
0.512952
0.494001
0.452943
0.452942
0.512733
0.522153
0.502787
0.500535
0.530888
0.544
0.543992
0.516023
0.533337
0.533337
0.524708
0.481009
0.481003
0.494109
0.494117
0.51907
0.504317
0.439388
0.439387
0.439387
0.539515
0.525571
0.486096
0.486116
0.486097
0.539649
0.558553
0.55855
0.498275
0.500911
0.477598
0.477595
0.484058
0.48651
0.509908
0.509913
0.462168
0.46216
0.494183
0.494184
0.494184
0.524951
0.524952
0.492841
0.471636
0.471638
0.488498
0.517069
0.49323
0.470081
0.470092
0.533641
0.476178
0.557232
0.544133
0.530536
0.549245
0.535059
0.462102
0.439009
0.439005
0.439009
0.470913
0.454677
0.454681
0.468789
0.472129
0.471385
0.505471
0.505484
0.492807
0.512038
0.495692
0.493079
0.493085
0.440596
0.440594
0.513036
0.445065
0.445061
0.445064
0.489175
0.47298
0.457731
0.457731
0.49666
0.420895
0.568116
0.568138
0.568116
0.567934
0.467341
0.467341
0.521232
0.501404
0.465253
0.514558
0.537667
0.537667
0.537668
0.53767
0.508332
0.566242
0.566225
0.538941
0.50295
0.502095
0.502082
0.496376
0.510672
0.456862
0.474884
0.505554
0.483505
0.472035
0.516249
0.516249
0.471932
0.471319
0.448008
0.558457
0.558673
0.535466
0.493164
0.49316
0.470208
0.470208
0.538416
0.533602
0.502262
0.476404
0.476292
0.476308
0.500753
0.505326
0.466913
0.444868
0.444866
0.524202
0.524183
0.514535
0.511088
0.529152
0.529161
0.52917
0.533795
0.50415
0.504161
0.513363
0.530852
0.448133
0.521533
0.503922
0.57364
0.586317
0.529752
0.474222
0.474227
0.565316
0.565315
0.565316
0.526691
0.50535
0.518177
0.530098
0.462174
0.449835
0.449838
0.491059
0.485927
0.475538
0.490276
0.500455
0.500447
0.528445
0.554075
0.554074
0.563765
0.563772
0.548548
0.503929
0.51076
0.447275
0.44522
0.445208
0.445233
0.445222
0.549135
0.549121
0.549173
0.534804
0.463297
0.45614
0.502486
0.502486
0.502486
0.502486
0.530139
0.485023
0.482955
0.482954
0.509167
0.506351
0.459069
0.459088
0.528599
0.528571
0.528626
0.558895
0.558898
0.513952
0.503433
0.503432
0.517996
0.514706
0.481902
0.405067
0.405055
0.405094
0.405073
0.573068
0.573074
0.573138
0.573061
0.566382
0.471359
0.480675
0.518631
0.482178
0.482178
0.484163
0.484184
0.495413
0.492594
0.465202
0.460829
0.460834
0.511939
0.511929
0.533397
0.53339
0.533397
0.529039
0.501933
0.489889
0.489894
0.489888
0.510869
0.516862
0.43967
0.439649
0.439628
0.424189
0.576478
0.576484
0.522382
0.470262
0.470268
0.533555
0.533551
0.518811
0.518881
0.502699
0.489419
0.489408
0.489419
0.529053
0.529053
0.505252
0.455533
0.45556
0.461631
0.488601
0.505558
0.505567
0.505577
0.540868
0.519342
0.454398
0.535305
0.5437
0.543693
0.493341
0.458416
0.437176
0.437141
0.434795
0.570006
0.570512
0.543124
0.524455
0.499988
0.503898
0.482895
0.459301
0.459308
0.512021
0.537408
0.537405
0.537409
0.499556
0.49795
0.497946
0.537323
0.488745
0.486323
0.460596
0.460618
0.524541
0.545938
0.55094
0.551201
0.551203
0.500937
0.449342
0.440236
0.440158
0.44022
0.440182
0.440206
0.564251
0.564229
0.564301
0.564222
0.564295
0.485372
0.449576
0.494949
0.518703
0.511281
0.50732
0.489967
0.499881
0.508856
0.490409
0.456902
0.456897
0.479891
0.470235
0.470236
0.555131
0.555104
0.544461
0.557622
0.55763
0.554655
0.501413
0.501319
0.490453
0.503966
0.48722
0.455619
0.434644
0.592435
0.593008
0.59297
0.593006
0.567442
0.527176
0.51371
0.469138
0.512938
0.519764
0.519706
0.519775
0.519707
0.474614
0.498186
0.52181
0.520679
0.520599
0.542923
0.542965
0.500072
0.470325
0.470299
0.499855
0.513301
0.481654
0.498062
0.502756
0.546364
0.501565
0.403755
0.399483
0.399437
0.487005
0.550482
0.473066
0.55698
0.556979
0.480939
0.471368
0.471377
0.503599
0.517523
0.517526
0.483946
0.516613
0.516616
0.516617
0.523153
0.523153
0.476453
0.476454
0.484495
0.513553
0.528332
0.505184
0.456353
0.456353
0.547296
0.547294
0.470289
0.494701
0.494708
0.470007
0.477119
0.505672
0.506076
0.522797
0.512828
0.51278
0.524434
0.529353
0.483286
0.539556
0.558553
0.539827
0.536694
0.536177
0.49682
0.532923
0.532919
0.53173
0.475486
0.475491
0.468744
0.459341
0.481853
0.485207
0.485203
0.524951
0.521579
0.518606
0.472609
0.44629
0.504054
0.505131
0.505133
0.519716
0.533738
0.535505
0.557218
0.542029
0.530539
0.514012
0.472251
0.462116
0.529933
0.547553
0.547551
0.535762
0.461693
0.511528
0.507931
0.478769
0.471381
0.471384
0.471381
0.492807
0.492807
0.51155
0.472267
0.472264
0.480304
0.521768
0.521759
0.521777
0.506878
0.537058
0.53705
0.523534
0.557173
0.557148
0.49666
0.430279
0.562859
0.522392
0.522401
0.533289
0.488985
0.467336
0.467336
0.465253
0.465256
0.48301
0.453477
0.453491
0.513701
0.537668
0.530154
0.475269
0.475264
0.475269
0.542899
0.520432
0.502936
0.517273
0.517274
0.48014
0.485236
0.505561
0.505554
0.468811
0.467843
0.467851
0.501154
0.491318
0.448155
0.54161
0.558651
0.558628
0.532747
0.535062
0.535994
0.51084
0.49226
0.533603
0.458452
0.44916
0.449153
0.526316
0.527273
0.527272
0.49844
0.479407
0.511896
0.514022
0.477647
0.477661
0.518622
0.502304
0.501753
0.558389
0.558383
0.532617
0.510639
0.530852
0.530861
0.530868
0.537111
0.589433
0.589428
0.589433
0.511456
0.555545
0.555538
0.502606
0.489957
0.489957
0.531728
0.490766
0.490776
0.490766
0.517175
0.52757
0.52755
0.52757
0.496247
0.475532
0.483899
0.560246
0.560243
0.537904
0.478606
0.475632
0.554767
0.563765
0.563659
0.50442
0.510761
0.510759
0.510761
0.457279
0.472339
0.511209
0.549115
0.549173
0.549115
0.53781
0.465558
0.456137
0.456137
0.456137
0.473359
0.51025
0.530124
0.530167
0.530124
0.530167
0.509189
0.48207
0.48026
0.495485
0.495489
0.535266
0.563404
0.563401
0.480215
0.479149
0.516655
0.516658
0.516661
0.516658
0.506929
0.469622
0.484625
0.484597
0.482604
0.534196
0.478768
0.478772
0.493105
0.528348
0.528334
0.491754
0.458245
0.458253
0.499683
0.522294
0.525713
0.525716
0.525713
0.465927
0.468377
0.523057
0.523057
0.528555
0.528537
0.497547
0.49754
0.529029
0.516484
0.503338
0.506002
0.506004
0.490065
0.51686
0.465353
0.43967
0.439649
0.539921
0.576445
0.515438
0.470264
0.47027
0.52056
0.533551
0.533555
0.519172
0.518888
0.504899
0.506219
0.50676
0.50672
0.510913
0.460072
0.455533
0.455551
0.514345
0.514353
0.514345
0.472019
0.47201
0.532827
0.540894
0.540868
0.461482
0.4615
0.467525
0.5437
0.525128
0.489116
0.485103
0.438995
0.479554
0.537897
0.570538
0.570512
0.561976
0.501658
0.503877
0.554876
0.554872
0.544263
0.525433
0.515942
0.496427
0.496424
0.496427
0.548167
0.548175
0.548008
0.516744
0.483719
0.505847
0.505834
0.491377
0.518178
0.47534
0.475359
0.475366
0.475372
0.506006
0.526657
0.526699
0.516177
0.527501
0.527517
0.564221
0.564294
0.564222
0.54069
0.492442
0.474524
0.479685
0.4797
0.519529
0.493224
0.493227
0.504845
0.461883
0.461878
0.461883
0.522276
0.522274
0.496969
0.532078
0.555131
0.555118
0.528774
0.510412
0.510413
0.510412
0.528078
0.497411
0.490453
0.490447
0.503965
0.520933
0.555647
0.587061
0.587082
0.51985
0.519863
0.520042
0.537691
0.476876
0.449828
0.449836
0.449838
0.511622
0.485285
0.485286
0.485284
0.521844
0.52181
0.521844
0.505223
0.524194
0.524194
0.482617
0.470325
0.470264
0.508154
0.504757
0.478721
0.478727
0.537839
0.537834
0.512042
0.460724
0.417266
0.399437
0.399392
0.476534
0.495081
0.464382
0.465003
0.547533
0.530284
0.493547
0.481554
0.521036
0.491459
0.453921
0.453918
0.511107
0.462239
0.44247
0.471381
0.510427
0.476454
0.532468
0.567141
0.567138
0.535869
0.542496
0.542489
0.498733
0.547293
0.547289
0.466254
0.461003
0.461002
0.461005
0.461003
0.508631
0.50579
0.548397
0.548398
0.52715
0.531234
0.531234
0.475818
0.463114
0.4684
0.482635
0.482597
0.482596
0.493351
0.507655
0.523252
0.533334
0.533338
0.476512
0.496013
0.459347
0.447581
0.454818
0.496141
0.496129
0.507024
0.499984
0.44629
0.446288
0.463862
0.448918
0.429112
0.429138
0.429134
0.429152
0.557266
0.55726
0.557323
0.557254
0.547218
0.517041
0.547552
0.547551
0.493832
0.481493
0.492567
0.530011
0.508603
0.471382
0.471385
0.493554
0.519642
0.519644
0.526581
0.530931
0.486335
0.518605
0.483253
0.486765
0.521771
0.521759
0.479673