/*--------------------------------*- C++ -*----------------------------------*\
  =========                 |
  \\      /  F ield         | OpenFOAM: The Open Source CFD Toolbox
   \\    /   O peration     | Website:  https://openfoam.org
    \\  /    A nd           | Version:  7
     \\/     M anipulation  |
\*---------------------------------------------------------------------------*/
FoamFile
{
    version     2.0;
    format      ascii;
    class       surfaceScalarField;
    location    "500";
    object      alphaPhi;
}
// * * * * * * * * * * * * * * * * * * * * * * * * * * * * * * * * * * * * * //

dimensions      [0 3 -1 0 0 0 0];

internalField   nonuniform List<scalar> 
319200
(
6.47597e-17
5.66797e-17
1.6157e-16
3.37708e-17
1.03974e-16
-2.84627e-17
3.30772e-16
3.92823e-17
3.61039e-16
6.34165e-17
4.04748e-16
6.44558e-17
5.28273e-16
9.51387e-17
7.17466e-16
3.53309e-17
6.56092e-16
-2.88956e-17
8.60524e-16
2.0988e-17
8.8183e-16
3.67576e-17
9.84487e-16
-1.23994e-17
9.74737e-16
1.13942e-16
6.12916e-16
1.605e-16
1.66171e-16
5.80252e-17
3.63337e-16
3.48089e-17
7.73845e-16
1.24726e-16
9.52747e-16
-2.00004e-17
1.44616e-15
-7.85099e-17
1.41953e-15
-6.494e-17
1.3788e-15
-6.03535e-17
1.64952e-15
-5.63959e-17
1.95597e-15
-1.39058e-16
2.34832e-15
-1.62684e-16
2.06823e-15
-5.28916e-17
2.16257e-15
2.68894e-16
1.34417e-15
2.43022e-16
7.73236e-16
1.44347e-16
1.48405e-15
1.18758e-16
4.99326e-16
7.31146e-18
4.08709e-16
-1.27173e-16
1.46516e-15
-1.73806e-16
2.54705e-15
-6.01738e-17
2.61025e-15
3.99534e-17
2.61239e-15
9.76445e-17
2.61216e-15
1.06388e-16
2.07495e-15
-4.10916e-17
3.19339e-15
2.68603e-16
1.76319e-15
4.29379e-16
4.03494e-16
1.51354e-17
1.19332e-15
-7.88638e-17
2.26891e-15
-1.41758e-17
2.75886e-15
1.09699e-16
2.69382e-15
1.36985e-16
2.76806e-15
3.58965e-17
2.82204e-15
2.73949e-17
2.74736e-16
-6.56578e-17
5.69687e-16
5.83077e-17
2.42956e-15
1.11484e-16
2.6319e-15
-1.11113e-16
3.64714e-15
-5.6066e-16
3.52442e-15
-2.09289e-16
7.64075e-16
1.81717e-16
1.79742e-16
-6.63034e-17
1.6752e-16
-7.261e-18
2.11642e-16
6.07387e-17
5.39755e-16
3.87768e-17
6.1158e-16
2.12304e-16
7.02132e-16
-4.79077e-17
1.06579e-15
-1.83865e-16
1.04582e-15
-1.98306e-17
9.9655e-16
2.36318e-16
6.51085e-16
9.28146e-17
7.15302e-16
5.27627e-17
8.21664e-16
-1.19664e-16
1.66035e-15
-1.26891e-16
1.46544e-15
1.49196e-16
1.31136e-15
3.59851e-16
8.69508e-16
4.05841e-16
1.4255e-15
-1.86961e-16
-3.75587e-16
-2.81103e-16
1.68018e-15
-2.55393e-16
7.47757e-16
-1.50026e-16
4.36489e-16
-4.05074e-18
2.61094e-17
5.78861e-17
-3.53794e-16
4.51985e-17
1.01819e-16
-1.92175e-17
4.06738e-16
-5.50565e-19
7.40404e-16
1.70957e-17
7.8441e-16
2.18267e-17
8.2617e-16
-1.63415e-16
1.14864e-15
6.08064e-17
9.49233e-16
2.33949e-16
4.20642e-16
3.23848e-16
1.6443e-16
5.30243e-17
-9.23792e-18
-2.47661e-16
3.73875e-16
-7.51322e-17
8.46295e-16
-8.06762e-17
1.19594e-15
-1.03666e-16
1.17548e-15
9.00226e-18
9.75401e-16
-1.46479e-16
2.21513e-15
-1.03832e-16
1.18003e-15
3.75484e-18
2.24557e-15
5.50736e-17
5.89316e-16
1.14783e-16
4.67037e-16
1.27641e-16
4.20159e-16
1.5673e-16
4.18454e-16
1.04678e-16
4.84948e-16
3.77416e-17
4.41668e-16
2.50429e-17
4.08685e-16
-4.61986e-18
7.2055e-16
-1.31644e-16
7.0738e-16
1.43113e-16
7.40796e-16
8.01355e-17
1.21301e-15
-2.0507e-16
6.38902e-16
-7.08535e-17
9.11337e-16
8.79353e-17
-7.00366e-17
-2.91076e-17
1.01956e-17
-1.26315e-16
-2.79067e-16
-1.11525e-16
6.62129e-16
-1.02134e-16
9.97651e-16
-1.56055e-16
9.45358e-16
-5.15158e-18
7.69945e-16
2.22464e-16
7.39133e-16
1.59693e-16
3.14446e-16
7.64922e-17
6.26388e-16
3.22687e-17
1.29904e-16
-4.97938e-17
2.94126e-16
1.72741e-16
3.21673e-16
2.65501e-16
6.87831e-16
-8.968e-17
1.07563e-15
-2.68902e-16
8.85965e-16
-2.06334e-16
1.76185e-15
-2.00535e-16
4.10533e-16
-2.16314e-16
1.78461e-15
-5.29479e-18
1.40479e-15
1.57263e-16
9.38263e-16
1.97204e-16
4.40876e-16
-2.44972e-17
-3.72449e-17
-3.51057e-17
3.28361e-16
7.29203e-17
7.90654e-16
1.77002e-16
6.46737e-16
-7.76088e-17
5.70887e-16
-1.59915e-16
3.1262e-16
5.18358e-17
2.75751e-16
4.61745e-16
8.68567e-16
-8.48605e-18
7.21735e-16
-3.05921e-16
1.683e-15
-2.12822e-17
8.96653e-16
-5.12981e-17
1.58827e-15
4.86102e-18
8.1058e-16
1.28098e-16
1.25948e-15
4.1664e-17
1.51149e-15
-2.13257e-16
1.71188e-15
-1.16551e-16
1.75595e-15
-6.86843e-18
1.33302e-15
4.55899e-17
9.29501e-16
4.74597e-17
1.18994e-15
1.36255e-16
4.86653e-16
3.88039e-16
6.29269e-16
3.50819e-17
9.5577e-16
-2.7805e-16
9.66723e-16
-6.98569e-17
5.58554e-16
4.05595e-17
8.74238e-16
-1.69686e-17
3.83921e-16
-3.92808e-17
1.42994e-16
-2.94011e-16
2.68913e-16
-4.64825e-17
4.40255e-16
9.40565e-17
9.2531e-17
1.69611e-16
2.99095e-16
2.10519e-16
5.20021e-16
1.50978e-17
3.21991e-16
-1.5469e-16
2.59802e-15
-2.2892e-17
1.28395e-15
1.14883e-16
1.20181e-15
1.62465e-16
9.05683e-16
-7.53664e-18
4.09752e-16
-3.90866e-17
4.38473e-16
-1.32271e-16
7.0281e-16
-2.73517e-16
-1.2e-15
-3.1656e-16
1.56122e-15
-2.05623e-17
6.36922e-16
2.60377e-17
4.0096e-15
2.82131e-16
9.03487e-16
7.83267e-17
8.43533e-16
5.58408e-17
8.13834e-16
-1.66994e-16
9.5374e-16
-3.38003e-16
9.52962e-16
-1.10741e-16
6.8299e-16
1.4995e-16
6.95469e-16
9.94754e-17
1.21352e-15
-3.27101e-17
8.83889e-16
1.42954e-16
4.30874e-16
2.74171e-16
1.902e-16
6.05305e-17
2.01518e-16
-5.00003e-17
7.8525e-16
-5.53103e-17
7.29842e-16
1.04222e-17
7.76961e-16
3.80611e-17
5.26217e-16
-9.75769e-17
5.74252e-16
-1.70823e-16
6.51461e-16
-1.62811e-16
1.93608e-15
-1.18629e-16
1.39212e-15
1.02873e-18
1.87734e-15
1.16672e-16
1.38842e-15
1.03262e-16
1.7455e-15
-2.16242e-16
1.99712e-15
-1.27412e-16
8.37233e-16
-1.25747e-16
5.6854e-16
-1.17023e-17
2.46305e-16
4.69864e-17
2.15692e-16
9.5402e-17
6.8132e-16
2.49236e-16
1.00475e-15
5.29607e-16
5.68105e-16
1.14027e-16
5.51359e-16
-1.8047e-16
1.1892e-15
-1.8822e-16
8.23472e-16
-1.28496e-16
1.76699e-15
2.83845e-17
1.3103e-15
-1.26749e-16
1.80743e-15
-1.08896e-16
1.77629e-15
1.56387e-16
1.71773e-15
6.71506e-17
1.98197e-15
-1.71568e-16
2.26374e-15
6.61199e-17
1.6864e-15
1.67229e-16
2.23397e-15
-1.61155e-16
9.70955e-17
-1.83021e-16
2.51864e-15
-1.13083e-16
4.57691e-16
-7.21579e-17
5.09586e-15
4.21623e-16
8.7484e-16
4.89294e-16
1.27839e-15
3.62252e-16
4.31284e-16
2.11973e-16
5.91567e-16
9.45088e-17
1.90834e-16
4.82166e-17
3.67352e-16
-1.00672e-17
6.81111e-16
-4.2295e-18
1.16001e-15
1.50797e-17
1.10063e-15
1.42082e-16
7.51116e-16
6.91281e-17
9.19947e-17
1.96481e-16
5.39743e-16
2.29633e-17
1.06687e-15
-3.14161e-16
6.07009e-16
-2.32503e-16
1.26009e-15
-4.51876e-17
6.89843e-16
5.12103e-17
9.8533e-16
-2.74947e-17
5.46244e-16
-2.51471e-17
1.61165e-15
1.84356e-18
7.08691e-16
7.61123e-17
9.39408e-16
1.65619e-16
6.39326e-16
4.67405e-17
7.68408e-16
-1.59739e-16
5.74824e-16
-1.58526e-16
9.12132e-16
3.48377e-17
4.45862e-16
-1.78413e-16
5.72369e-16
-9.09648e-17
1.64947e-17
1.12966e-16
8.37122e-16
1.00101e-16
1.9798e-15
3.10657e-16
6.23671e-16
3.37385e-16
5.88606e-16
1.18499e-16
5.65306e-16
-2.25586e-16
8.23698e-16
-1.31076e-16
1.22549e-15
-3.46968e-17
1.12036e-15
6.77243e-17
1.2536e-15
-7.85789e-17
5.92281e-16
-3.65631e-16
2.351e-15
-2.35903e-16
-2.91954e-16
2.33966e-16
3.00612e-16
2.72537e-16
6.01051e-16
2.42338e-16
8.39332e-16
2.33879e-16
1.64538e-16
-1.00822e-16
4.80458e-16
-2.04443e-16
6.96878e-16
-9.58747e-17
7.47508e-16
6.68199e-17
1.24186e-15
-1.15365e-16
1.38383e-15
-6.59412e-17
1.00958e-15
3.10626e-16
5.70957e-16
1.35681e-17
3.34093e-16
-1.82474e-16
4.38602e-16
-4.48771e-17
4.0337e-16
4.52792e-17
4.16142e-16
9.22278e-17
5.09504e-16
-2.33101e-17
6.31517e-16
-4.70955e-17
3.67821e-16
6.2115e-17
8.91638e-17
7.38781e-17
6.09525e-16
7.17876e-17
2.87354e-16
3.80733e-17
6.09037e-16
1.48371e-16
4.80933e-16
2.49732e-17
8.23567e-16
-1.69718e-16
1.15609e-15
-3.2596e-16
1.50737e-15
-2.61459e-16
1.7727e-15
-2.58318e-16
1.21553e-15
-7.29059e-17
1.5145e-15
5.72522e-17
8.0998e-16
3.75534e-16
7.81281e-16
2.71625e-16
5.77031e-16
-6.94946e-17
1.54179e-15
-1.77786e-16
9.2909e-16
-2.24445e-16
1.80478e-15
8.33474e-17
6.66296e-16
1.84955e-16
1.0534e-15
8.3084e-17
1.59684e-15
9.60101e-17
9.51884e-16
3.38828e-17
4.66514e-16
-1.8945e-16
6.60723e-16
-1.24077e-16
8.23737e-16
-2.71601e-16
1.04275e-15
1.33561e-17
5.47824e-16
1.06786e-16
3.92876e-16
6.46155e-17
5.01545e-16
8.24361e-17
7.66119e-16
2.55894e-17
9.17804e-16
-1.15788e-16
9.83402e-16
-4.89808e-17
8.95408e-16
1.27134e-16
8.01477e-16
1.66454e-16
7.25734e-16
1.7476e-16
9.10744e-16
1.01165e-16
1.43926e-15
-2.42885e-16
3.78832e-15
-4.09637e-16
-9.99403e-17
-5.12911e-17
1.57243e-15
1.36454e-16
-4.49993e-17
9.96988e-17
1.33918e-15
1.12336e-16
7.4886e-16
9.36718e-17
5.68634e-16
6.68293e-17
1.20573e-15
1.31499e-16
1.09153e-15
-6.16224e-17
1.39023e-15
-2.68181e-16
1.55306e-15
3.35883e-17
1.31195e-15
2.5779e-16
7.00462e-16
-1.29448e-17
8.38484e-16
-1.4502e-16
3.98246e-16
-7.02315e-17
7.1161e-16
-1.25539e-16
6.95191e-16
-2.15748e-16
6.20968e-16
-1.27082e-17
5.93542e-16
-1.58489e-16
5.50576e-16
-2.63601e-16
6.23133e-16
-1.34811e-16
3.75586e-16
-1.65826e-16
4.48279e-15
-1.95445e-16
1.0969e-15
1.20722e-16
4.31362e-15
4.73951e-16
2.38639e-15
2.70019e-16
4.40673e-15
3.74036e-17
4.39493e-15
-6.07109e-17
5.74192e-15
-3.38739e-16
4.10492e-15
2.16884e-16
5.33767e-15
4.58258e-16
2.13269e-15
-2.58889e-16
6.50461e-15
-1.54455e-16
1.75358e-15
-1.47994e-16
1.73936e-16
-1.21098e-16
-1.72445e-16
7.72835e-17
1.61394e-16
1.2329e-16
5.02585e-16
2.75409e-16
9.39052e-16
1.1564e-16
5.17315e-16
-2.05482e-16
4.03238e-16
-1.02593e-16
2.50205e-16
-3.84709e-17
6.90524e-17
5.20449e-18
3.67595e-16
4.25843e-17
6.00418e-16
1.59781e-16
5.52931e-16
8.76662e-17
8.13008e-16
-5.11637e-17
4.51659e-16
-7.32349e-17
1.97771e-15
-5.93922e-17
-3.55809e-16
-4.38317e-16
1.52044e-15
4.45719e-18
1.78854e-15
-2.52708e-16
2.05853e-15
-2.81379e-16
1.57459e-15
5.01457e-16
1.25927e-15
3.1248e-16
2.00446e-15
-1.43781e-16
7.57014e-16
-4.83492e-16
3.10783e-15
-5.11835e-16
9.13201e-16
-1.38111e-16
2.3213e-15
2.16668e-16
2.08751e-15
2.52373e-16
1.20972e-15
6.61506e-16
1.02585e-15
6.26293e-17
8.57116e-16
5.76996e-17
6.93234e-16
1.0087e-16
7.13231e-16
5.64164e-17
7.5499e-16
6.02752e-17
6.06383e-16
2.3126e-17
1.63902e-16
-6.11332e-16
2.94931e-15
-3.25494e-16
1.09703e-16
-3.19387e-18
3.03933e-15
2.5529e-18
-1.78491e-16
2.83815e-16
5.47977e-16
4.49824e-16
8.09472e-16
1.32288e-16
1.28515e-15
-5.85346e-17
1.21024e-15
1.01367e-16
1.18262e-15
-8.63435e-17
1.20632e-15
-1.27063e-16
1.1919e-15
-2.92281e-16
4.64144e-16
-3.55528e-16
1.8357e-15
-7.76778e-17
3.23317e-15
-3.76511e-16
6.51053e-15
-3.24875e-16
8.0031e-17
8.46635e-17
8.55814e-17
-2.39742e-17
2.87924e-17
1.08078e-16
4.79384e-17
1.86389e-16
2.08116e-17
2.83121e-16
2.46129e-17
4.29023e-16
4.93746e-17
2.57554e-16
6.00462e-17
3.36145e-16
8.83022e-18
5.64607e-16
2.51479e-17
8.2663e-16
4.95287e-17
3.99363e-16
2.71628e-17
6.80192e-16
-4.25519e-18
9.44786e-16
1.49919e-16
-4.19113e-17
7.92965e-17
8.09759e-17
6.07627e-17
1.15331e-15
9.20783e-17
9.35319e-16
-7.51439e-17
5.44446e-16
-1.60326e-16
1.02056e-15
3.20043e-17
8.13397e-16
3.44766e-17
9.12716e-16
1.90239e-17
7.90153e-16
-9.2939e-17
8.52935e-16
-2.06592e-17
8.17823e-16
5.03822e-17
1.29069e-15
1.61814e-17
9.93422e-16
-3.00448e-17
7.15565e-17
-7.18332e-17
4.99155e-16
6.2748e-17
2.25009e-16
2.63817e-17
6.25244e-16
-5.08997e-17
3.86569e-16
1.09969e-16
3.15781e-16
8.32559e-17
1.00799e-15
1.18722e-16
1.24459e-15
-7.61267e-18
1.5187e-15
-8.83332e-17
8.26799e-16
-3.68894e-17
1.12432e-15
2.76982e-17
1.33811e-15
1.21612e-16
3.02422e-15
2.49345e-16
1.8317e-15
1.35854e-17
1.57211e-15
1.17552e-16
1.49539e-15
4.25742e-17
1.41691e-15
1.35369e-16
9.86566e-16
1.74246e-16
1.21511e-15
-1.10722e-16
3.75172e-16
-9.63093e-17
4.17129e-16
9.05811e-17
1.17886e-15
1.30239e-16
1.31111e-15
8.02355e-17
1.28154e-15
-4.60978e-19
1.05767e-15
-2.43112e-16
6.40169e-16
-8.31076e-17
9.49616e-16
-6.22631e-17
1.13462e-15
1.51537e-16
9.62595e-16
3.14825e-16
5.01282e-16
2.75932e-16
5.29091e-16
2.1718e-16
5.93994e-16
2.19145e-16
5.23929e-16
-1.35078e-16
3.24177e-16
-1.65675e-16
4.36173e-17
-7.54756e-18
2.00128e-16
1.03242e-16
5.24166e-16
2.84249e-17
5.39597e-16
-7.71958e-17
4.71303e-16
7.8345e-17
4.3942e-16
-6.29442e-17
6.77444e-16
-2.28639e-16
8.80609e-16
-2.17323e-16
1.98767e-15
-1.20435e-16
1.36386e-15
4.09868e-17
2.1884e-16
3.39878e-16
4.39993e-16
1.8753e-16
7.06969e-16
1.38183e-16
2.21196e-16
4.10755e-17
1.02094e-15
2.55669e-17
1.24358e-15
1.20909e-16
7.3582e-16
1.83529e-16
8.9209e-16
7.84737e-17
9.04518e-16
-9.63012e-17
8.8545e-16
-9.97301e-17
4.75747e-16
1.12519e-16
7.78381e-16
8.9718e-17
1.22402e-15
-9.41704e-17
1.77419e-15
-1.08938e-16
1.70923e-15
2.56813e-16
1.17577e-15
3.05902e-16
1.02777e-15
3.6432e-16
1.02097e-15
-6.9569e-17
1.30296e-15
-2.18363e-16
1.59388e-15
-2.77114e-16
4.49834e-16
4.46481e-17
5.3493e-17
-2.76023e-16
1.53681e-15
1.09394e-17
1.91934e-16
7.19321e-17
4.40161e-16
1.35448e-16
1.66913e-16
6.54349e-17
3.24167e-16
1.64963e-16
2.08619e-16
-6.85089e-18
7.67826e-17
-5.03265e-17
2.39824e-16
2.37525e-17
5.32376e-16
1.06977e-16
6.53323e-16
1.19879e-16
1.15292e-15
-1.84506e-16
1.34368e-15
1.26844e-16
1.12933e-15
2.10019e-16
1.06315e-15
-1.82678e-16
1.02242e-15
-1.54281e-16
2.99185e-15
-1.40951e-17
7.76765e-16
1.79072e-16
2.59966e-15
1.29727e-16
5.12578e-16
1.01224e-16
8.0469e-16
3.81891e-17
1.26478e-15
-8.00874e-17
8.9242e-16
2.30553e-17
1.57202e-16
5.18668e-17
2.21473e-17
1.95902e-18
1.49711e-17
-2.97744e-17
4.61365e-16
-7.87394e-17
8.17703e-16
-2.11947e-16
1.68313e-15
-1.68768e-16
1.14034e-15
1.2027e-16
6.93564e-16
2.26839e-16
6.03535e-16
-3.71456e-17
5.75123e-16
-9.3777e-17
4.75382e-16
-1.06466e-16
2.66042e-16
-1.15423e-17
6.63987e-16
1.12783e-16
9.79057e-16
9.97047e-17
1.10803e-15
9.46551e-17
9.61725e-16
2.58046e-16
1.31257e-15
1.14531e-16
1.93526e-15
-2.34769e-16
2.12717e-15
-1.18955e-16
2.17315e-15
1.45124e-16
1.74413e-15
1.20477e-16
1.47055e-15
-2.28302e-17
1.3146e-15
-2.36147e-16
1.57849e-15
4.38414e-16
1.32161e-15
8.60964e-17
2.1826e-15
4.14021e-17
1.02085e-15
2.05349e-16
2.21186e-15
5.91134e-17
5.2515e-16
-1.58238e-16
3.29961e-16
2.16421e-17
3.76534e-16
2.37464e-19
5.8013e-16
-3.323e-17
4.08316e-16
3.70809e-17
7.53476e-16
1.00067e-16
1.10722e-15
-2.44188e-17
2.34124e-15
-7.63885e-17
1.94108e-15
3.5694e-17
1.55558e-15
3.10806e-16
7.53311e-16
2.83957e-16
1.3076e-15
6.99483e-17
3.18491e-16
-2.84807e-16
1.9384e-15
-1.35473e-16
8.17667e-16
-2.4741e-16
9.08335e-16
-8.68786e-17
8.83091e-16
-1.39559e-16
2.45889e-16
-8.61289e-17
5.90399e-16
-9.85091e-18
4.49518e-16
5.62946e-17
2.25564e-16
1.8737e-16
6.77153e-16
9.91479e-17
1.08879e-15
-8.87258e-17
1.45884e-15
-1.17892e-16
1.37166e-15
1.65854e-16
4.76989e-16
2.87101e-16
6.93806e-16
1.84359e-16
8.03335e-16
9.78139e-17
9.49763e-16
1.29712e-18
1.40197e-15
-6.26173e-17
2.14568e-15
-4.16074e-16
-1.38324e-15
-1.97678e-16
1.45527e-15
4.03895e-16
2.54429e-15
4.56196e-16
1.15601e-15
1.2211e-16
9.00439e-16
-1.29768e-16
2.87679e-16
-2.57896e-17
7.93058e-16
6.00136e-17
1.22367e-15
-6.31476e-17
1.22001e-15
1.79621e-16
1.31637e-15
2.19277e-16
1.5907e-15
1.28451e-16
1.61078e-15
1.15043e-18
1.33024e-15
9.69544e-17
8.494e-16
1.53048e-16
6.21544e-16
9.35612e-17
7.89833e-16
-5.52611e-17
6.21748e-16
1.05339e-16
6.77566e-16
-1.71971e-17
8.49964e-16
2.06987e-17
9.5554e-16
-1.09759e-16
1.23933e-15
2.9659e-17
9.69811e-16
2.03995e-16
1.03856e-15
-1.14072e-16
2.6036e-16
-1.33486e-16
4.23329e-16
-1.3601e-16
1.06609e-15
9.24044e-17
1.15187e-15
2.3566e-17
1.29202e-15
1.13465e-16
1.44588e-15
1.19339e-16
1.72839e-15
-1.9465e-16
3.35507e-15
-3.66917e-16
1.9767e-15
-3.81791e-17
1.68337e-15
3.35925e-16
1.30561e-15
3.79623e-16
1.40851e-15
-2.81605e-17
1.87779e-15
-2.4738e-16
1.8916e-15
7.68476e-17
1.76206e-15
1.9875e-16
1.87377e-15
2.81488e-17
2.06269e-15
-2.19927e-17
1.63304e-15
7.6707e-17
1.94951e-15
-3.22253e-17
1.13124e-15
-9.95424e-17
1.24557e-15
1.39584e-17
8.61209e-16
-9.55349e-17
9.46673e-16
1.1512e-16
1.44863e-15
2.65553e-16
1.85774e-15
1.24533e-16
2.75642e-15
1.16529e-16
4.62262e-16
-1.84615e-16
9.66281e-16
-3.90814e-17
9.94639e-16
-9.99758e-17
1.23442e-15
-1.13431e-17
8.7951e-16
1.60617e-16
7.63332e-16
2.66227e-16
1.25199e-15
-7.64492e-18
1.06302e-15
-9.18814e-17
1.71005e-15
-1.08385e-16
1.13973e-15
-1.17489e-16
2.56916e-15
4.89149e-17
1.44506e-15
4.40609e-16
9.80769e-16
1.19875e-16
9.24663e-16
-2.11168e-16
1.95173e-15
-1.1789e-16
1.58256e-15
1.04024e-16
1.92967e-15
2.90225e-16
9.39984e-16
2.17599e-16
1.66248e-15
7.00474e-18
2.15197e-15
-1.85961e-16
2.4223e-15
-1.25272e-16
1.65092e-15
3.26609e-17
1.37383e-15
-1.23863e-16
-8.22844e-16
-9.49874e-17
1.42229e-15
1.50982e-16
8.87276e-16
-7.88126e-17
7.39424e-17
-1.34466e-16
3.93964e-17
1.03724e-17
6.43521e-16
1.88271e-17
1.42357e-15
-1.27581e-16
1.49675e-15
-5.21341e-18
6.45367e-16
3.23944e-16
1.49146e-16
6.34722e-18
2.27976e-16
-7.08381e-18
5.94907e-16
-9.68936e-17
9.45678e-16
-1.48283e-16
2.11752e-15
-9.59604e-17
1.70697e-15
-6.80541e-17
1.82914e-15
2.00141e-16
1.61221e-15
9.20923e-17
2.33714e-15
8.68404e-17
1.85838e-15
-1.38022e-16
1.88791e-15
-2.18882e-17
1.54361e-15
3.54372e-17
1.71217e-15
-1.95254e-16
1.85208e-15
-1.62849e-16
1.91032e-15
-1.95819e-18
1.45184e-15
3.0501e-16
1.73075e-15
9.28792e-17
1.57176e-15
1.65111e-16
1.18463e-15
1.39726e-16
1.00811e-15
7.43072e-17
6.0918e-16
-1.03249e-16
4.55009e-16
-8.86006e-17
1.44329e-15
4.28182e-17
1.53216e-15
9.42841e-17
1.06211e-15
1.34517e-16
5.61735e-16
-2.93594e-17
5.57112e-16
-5.88369e-17
6.9575e-16
-2.26036e-16
2.37019e-15
-3.69612e-16
1.04194e-15
-7.51011e-17
2.24e-15
2.44707e-16
7.19879e-16
5.70233e-17
1.10531e-15
-1.52025e-16
9.06095e-16
-1.32127e-16
1.35043e-15
-1.43419e-16
1.45727e-15
2.14916e-16
1.66847e-15
3.44335e-16
1.57696e-15
-2.25114e-17
1.82813e-15
2.95369e-17
7.4826e-16
1.73059e-16
1.61667e-15
2.8182e-17
9.1937e-16
-5.10368e-17
4.11251e-16
6.96973e-17
6.35117e-16
1.17193e-16
9.32269e-16
-2.23727e-16
8.24326e-16
-1.75188e-16
8.96439e-16
-1.10734e-16
1.13896e-15
8.98255e-17
1.07506e-15
1.89719e-16
1.02058e-15
2.70001e-16
1.17544e-15
8.79645e-17
1.0417e-15
-7.35552e-17
1.42986e-15
-1.97516e-16
1.3905e-15
-1.2171e-17
7.945e-16
9.10197e-18
8.58775e-16
-7.23219e-17
1.1086e-15
-5.33491e-17
1.5128e-15
-1.41107e-16
2.00311e-15
-2.13728e-16
2.43808e-15
-1.16856e-16
2.0472e-15
2.49211e-16
1.55555e-15
2.57977e-16
1.70554e-15
-1.25326e-17
1.73471e-15
-2.24495e-16
1.5731e-15
-9.48975e-17
1.19351e-15
1.3849e-16
1.13759e-15
1.12742e-16
1.46334e-15
-2.93205e-16
2.32419e-15
-3.28704e-16
2.39041e-15
-9.24987e-17
1.55815e-15
1.30211e-16
1.79627e-15
-1.89177e-16
2.12353e-15
-2.46247e-16
1.9152e-15
6.21263e-17
1.15291e-15
4.03938e-16
8.21275e-16
3.18876e-16
1.70455e-15
3.30761e-18
1.30076e-15
-5.21487e-17
2.11849e-15
-1.98095e-16
1.48928e-15
6.78039e-17
7.90826e-16
-6.39974e-17
5.5095e-16
-9.46711e-17
2.83486e-16
-8.1871e-17
1.1008e-16
-6.08571e-18
6.88225e-16
1.28709e-16
1.50976e-15
-1.45118e-16
3.34277e-15
-1.37563e-16
1.95114e-15
1.53638e-16
2.97257e-15
4.89663e-17
2.78848e-15
-1.57282e-16
1.30012e-15
-1.19289e-17
7.74939e-16
-3.36867e-17
6.95566e-16
-2.35349e-16
6.6901e-16
-3.04759e-16
6.52978e-16
-2.02962e-16
1.58633e-15
9.61064e-17
1.2714e-15
2.05894e-16
1.15657e-15
1.57656e-16
1.91595e-15
-3.03542e-17
1.16979e-15
-9.11264e-17
1.29247e-15
2.13423e-16
7.77765e-16
2.71767e-16
4.22907e-16
1.60224e-16
8.08495e-16
-1.34979e-16
1.3639e-15
-2.77142e-16
1.25191e-15
-2.02541e-16
1.30888e-15
7.09691e-17
9.72982e-16
1.14336e-16
1.14288e-15
-2.04497e-16
2.06983e-16
-4.35062e-16
4.27684e-15
-3.56174e-16
1.0308e-15
-3.42153e-16
2.30364e-15
1.19519e-16
1.64509e-15
2.28952e-16
1.33609e-15
6.16926e-16
1.62944e-15
4.26527e-16
1.72348e-15
1.60947e-16
1.79159e-15
-1.97982e-16
1.16881e-15
3.73235e-18
1.2129e-15
-1.03327e-16
8.86211e-16
-2.64859e-16
2.11628e-15
-2.66103e-16
2.59016e-15
-1.29425e-16
2.00645e-15
3.20404e-16
1.44559e-15
3.34981e-16
1.81247e-15
-1.2966e-16
1.94141e-15
-1.48151e-16
2.85922e-15
-1.37373e-16
2.60652e-15
-9.83419e-17
2.21153e-15
-5.12682e-16
1.6216e-15
-4.07404e-16
1.59743e-15
-6.12089e-17
1.31014e-15
1.62888e-16
1.43434e-15
5.04328e-17
5.74461e-16
-2.51129e-16
4.2588e-15
-1.65766e-16
1.31439e-15
-1.27108e-16
2.27946e-15
-6.34195e-17
2.04202e-15
3.63592e-17
1.77407e-15
2.05622e-16
2.41077e-15
-2.18942e-16
1.99897e-15
-1.64812e-16
2.25885e-15
3.2823e-16
2.1763e-15
2.39478e-16
3.6179e-15
-2.7742e-16
-1.99743e-16
3.24419e-17
1.33188e-16
-1.06709e-18
1.40611e-16
2.49725e-16
1.96551e-16
1.03027e-16
7.17186e-17
9.82816e-17
9.38395e-18
1.09449e-16
-7.33112e-20
5.64664e-17
1.19467e-17
1.30192e-16
2.85165e-18
2.56974e-16
-7.17351e-18
-1.61028e-16
-6.37442e-17
-2.52343e-16
-2.11695e-17
1.76812e-16
2.54834e-17
1.55521e-16
1.14687e-16
2.8481e-16
7.50478e-17
5.30176e-16
3.41995e-17
2.1319e-16
2.66646e-17
-2.67588e-16
4.6398e-17
1.45743e-16
6.36337e-17
2.5691e-16
8.07133e-17
5.73953e-17
5.80011e-17
4.28282e-16
1.2047e-16
1.17031e-16
8.54739e-17
3.42843e-16
4.46086e-17
3.66528e-16
1.31608e-16
6.263e-16
-6.00607e-17
8.13057e-16
-9.72742e-17
4.45973e-16
3.34827e-18
2.21814e-16
-1.74663e-17
-8.42126e-17
-2.04459e-17
3.11359e-16
1.58168e-16
2.66921e-16
1.11375e-16
5.04395e-16
1.40168e-16
-6.3962e-17
1.27335e-16
5.312e-16
2.47973e-16
4.45638e-16
8.31678e-17
5.27775e-16
-9.52665e-18
6.6405e-16
1.35927e-16
6.60886e-16
2.36072e-16
6.62196e-16
1.82118e-16
4.52464e-16
1.95809e-16
7.08504e-16
8.71937e-18
6.94855e-16
-6.5149e-17
1.02092e-15
-3.51314e-17
1.16338e-15
-8.50009e-17
9.90075e-16
9.87795e-18
6.39275e-16
1.90307e-16
7.70268e-16
1.3477e-16
1.10136e-15
-8.95782e-18
1.42985e-15
-1.03033e-16
7.61043e-16
1.37808e-16
3.70815e-16
2.18696e-16
5.05465e-16
-1.91593e-18
3.74456e-16
-2.61777e-17
5.25526e-16
1.21604e-17
9.35811e-16
-8.0247e-17
1.40678e-15
-1.82402e-16
4.70238e-16
-1.30528e-16
1.67452e-15
-6.78306e-17
1.11474e-15
2.2363e-16
9.45654e-16
3.00124e-16
4.99745e-16
1.51479e-16
6.80115e-16
-3.94967e-17
1.0047e-15
1.53131e-17
1.16703e-15
7.04965e-17
1.52481e-15
2.3046e-17
1.39769e-15
1.37461e-16
1.06419e-15
1.3357e-16
8.80122e-16
2.52071e-17
8.60042e-16
1.10072e-17
1.3927e-15
-2.36474e-17
1.16471e-15
-1.56809e-16
1.73512e-15
-1.37018e-17
9.19777e-16
3.03132e-16
1.10816e-15
3.71248e-16
7.00257e-16
-1.42935e-17
4.07271e-16
-1.61647e-16
4.56841e-16
-1.87107e-16
9.7562e-16
-6.26843e-17
1.21361e-15
7.76994e-17
5.96518e-16
1.83366e-16
6.88037e-16
2.13817e-16
1.0021e-15
-3.60223e-17
1.01641e-15
6.11622e-17
7.49848e-16
2.78814e-16
9.76923e-16
1.52222e-16
1.24638e-15
2.34565e-16
2.06683e-15
-6.47805e-17
1.16825e-15
7.82416e-17
1.2919e-15
1.28204e-16
1.13591e-15
3.8012e-17
1.497e-15
-5.66592e-17
1.11019e-15
-7.45222e-17
1.06485e-15
-1.59246e-17
1.2296e-15
2.41926e-16
1.29246e-15
3.32404e-16
1.04588e-15
5.99115e-17
1.48361e-15
-1.44216e-16
1.36423e-15
1.96183e-16
9.87416e-16
4.63451e-16
9.78989e-16
2.12433e-16
8.30164e-16
-2.74474e-16
3.35414e-16
-1.03199e-17
1.03241e-15
3.15568e-17
6.69748e-16
-2.60963e-17
5.91958e-16
1.07144e-17
6.50984e-16
9.59873e-17
8.88951e-16
-5.76905e-17
1.25995e-15
-1.35726e-16
2.18628e-15
-1.12513e-16
1.22207e-17
4.58748e-17
4.69189e-16
3.0218e-16
7.40516e-16
1.81037e-16
9.06908e-16
1.27932e-16
1.2648e-15
-7.38824e-17
1.2499e-15
9.30687e-18
1.07471e-15
1.26991e-16
8.87562e-16
8.85502e-17
5.9534e-16
-2.63022e-17
6.42756e-16
-6.50441e-17
7.74121e-16
1.96114e-17
9.75193e-16
1.14906e-16
1.1257e-15
1.19743e-16
1.06074e-15
7.32208e-17
8.75244e-16
1.34936e-16
9.18651e-16
9.28192e-17
1.14446e-15
1.21366e-17
1.02665e-15
-9.29309e-17
4.31606e-16
-1.09764e-16
8.6601e-16
4.85221e-17
1.46753e-15
5.12334e-18
2.81047e-15
-1.39099e-16
-5.31174e-16
-1.56166e-17
6.24282e-16
-6.90189e-17
4.5917e-16
1.16273e-16
9.74608e-16
1.72722e-17
1.28173e-15
1.28673e-16
5.8445e-16
1.93647e-16
9.12104e-16
2.9334e-16
8.42485e-16
3.98829e-17
1.25725e-15
-2.07246e-16
1.95531e-15
-3.33774e-16
5.05891e-16
-6.91027e-17
1.26891e-15
3.19497e-16
1.18605e-15
2.40527e-16
7.15753e-16
1.60242e-16
3.84395e-16
4.08636e-17
9.57435e-16
-6.90039e-17
1.40314e-15
1.34299e-16
1.21277e-15
2.7175e-16
8.57414e-16
-2.66286e-17
1.01177e-15
-1.40889e-16
1.20312e-15
-1.91053e-16
7.73245e-16
-4.33964e-16
2.5319e-15
-1.67489e-16
5.038e-16
3.78995e-16
1.12682e-15
3.09478e-16
8.41041e-16
-4.68587e-17
1.40955e-15
-1.003e-16
1.23345e-15
1.49619e-17
9.34505e-16
-4.35559e-17
8.85673e-16
-6.14792e-17
9.06244e-16
-4.85537e-18
1.20285e-15
4.89113e-17
1.03822e-15
-2.26074e-17
1.01716e-15
-7.68016e-18
1.08444e-15
4.88581e-17
1.02295e-15
1.24374e-16
9.85063e-16
2.19616e-16
5.493e-16
1.16722e-16
6.24239e-16
-5.36401e-17
2.58538e-15
-8.37061e-17
2.20195e-15
7.6009e-17
1.90908e-15
1.09804e-16
1.58084e-15
-6.1427e-17
2.10567e-15
-1.55208e-16
1.14734e-15
-2.49681e-16
2.98392e-15
6.49888e-17
9.99295e-16
2.07929e-16
1.11804e-15
1.93161e-16
3.92423e-16
-1.34673e-17
9.31006e-16
-1.0906e-17
1.39186e-15
-9.56979e-17
1.26824e-15
3.8639e-18
1.00757e-15
5.1274e-17
8.71222e-16
-2.77239e-17
1.05246e-15
-8.90001e-17
1.4111e-15
-1.22053e-16
1.59062e-15
-9.14801e-17
3.90102e-16
-4.67039e-17
1.03148e-15
9.25485e-17
1.31273e-15
2.46382e-16
1.02188e-15
3.34637e-17
1.07974e-15
-1.38458e-16
1.45144e-15
-1.28045e-16
1.98105e-15
-1.07907e-16
1.82399e-15
7.87473e-17
1.60913e-15
1.27357e-16
1.51043e-15
7.84218e-17
1.50786e-15
2.40474e-17
1.68575e-15
3.41731e-17
1.3812e-15
-2.99559e-18
2.31369e-15
3.5221e-17
1.58706e-15
7.54514e-17
1.44323e-15
3.53178e-17
1.41912e-15
1.39137e-16
1.95608e-15
7.59671e-17
2.23787e-15
1.8883e-16
2.33026e-15
1.98418e-16
1.82452e-15
1.88427e-16
1.74583e-15
2.23381e-16
1.80054e-15
6.0968e-17
1.70541e-15
-8.43816e-17
1.54316e-15
-4.61488e-17
1.91391e-15
-3.47391e-17
2.14407e-15
-1.23845e-16
1.6767e-15
-1.01832e-16
1.39052e-15
-3.45647e-18
1.44962e-15
1.16286e-16
1.74386e-15
1.63315e-16
1.98543e-15
9.90296e-17
2.13509e-15
4.89273e-17
1.50997e-15
-5.10445e-17
1.15341e-15
-1.66413e-16
1.04383e-15
-1.36883e-16
8.26277e-16
1.88959e-17
1.09258e-15
4.8685e-17
2.2729e-15
1.56534e-16
2.32195e-15
-6.74864e-17
2.30567e-15
2.02287e-16
1.59199e-15
2.17389e-16
1.44563e-15
-1.07139e-16
9.60159e-16
-2.39665e-16
6.13267e-16
-1.02799e-16
9.27402e-16
8.36092e-18
1.40196e-15
1.11108e-19
1.25051e-15
2.53328e-16
1.26562e-15
1.22735e-16
1.5556e-15
-1.60711e-16
1.61796e-15
-3.55647e-16
1.70285e-15
-2.86538e-16
1.16078e-15
-1.33951e-16
6.1032e-16
-8.3527e-17
1.05442e-15
5.96067e-17
7.64691e-16
5.6326e-17
7.54559e-16
5.21086e-17
6.23212e-16
-2.00842e-16
1.16724e-15
3.64501e-17
1.64122e-15
8.44987e-17
1.45379e-15
4.96903e-18
1.72569e-15
-3.53611e-17
1.19703e-15
2.50707e-17
1.19161e-15
-2.11293e-17
4.44195e-16
3.98399e-16
1.07402e-15
5.28159e-17
1.26488e-15
-1.06785e-16
1.03913e-15
1.00198e-16
8.87568e-16
-5.38388e-17
1.1801e-15
-1.83173e-16
1.4508e-15
-1.22709e-16
1.74722e-15
-1.29645e-16
1.09885e-15
-7.97019e-17
1.50354e-15
-1.33384e-16
1.16718e-15
-1.11213e-16
8.06572e-16
-2.1081e-16
9.4236e-16
-2.62558e-17
9.74707e-16
1.44985e-16
1.17786e-15
2.8183e-16
1.47506e-15
1.37897e-16
1.40676e-15
3.36056e-16
1.66424e-15
1.76621e-16
3.24509e-15
-4.77792e-16
5.66626e-16
-4.69308e-16
3.98853e-15
5.68603e-17
7.71833e-16
-1.20082e-16
3.79536e-15
3.51361e-17
6.24301e-16
-1.39017e-16
1.645e-15
1.59573e-16
1.02963e-15
2.49438e-16
1.24824e-15
-7.88979e-17
2.94602e-15
-1.3218e-16
1.68694e-15
-6.33308e-17
3.01719e-15
1.96644e-16
1.54999e-15
3.50123e-16
1.68806e-15
1.07772e-16
1.96872e-15
-2.05017e-16
1.9064e-15
-1.04743e-16
1.57754e-15
1.64769e-18
1.45572e-15
-7.49988e-17
1.37594e-15
-1.05434e-16
2.0267e-15
-5.86308e-16
2.54321e-15
-3.98736e-16
1.6527e-15
2.15607e-16
9.46526e-16
1.0598e-16
4.71587e-16
-1.14609e-16
-4.27931e-16
-1.64452e-16
4.19113e-15
4.16163e-17
1.55113e-15
2.9717e-16
1.73137e-15
-8.44577e-17
2.24541e-15
-6.48735e-17
1.76975e-15
1.07474e-16
1.31691e-15
1.19223e-16
1.40093e-15
-2.43172e-17
1.14965e-15
-2.92868e-16
8.25172e-16
-1.98146e-16
1.65722e-15
-2.15646e-17
1.28832e-15
8.93795e-17
1.41554e-15
-1.33294e-16
1.21776e-15
1.33234e-17
1.00564e-15
-1.00179e-16
6.63465e-16
-6.46188e-17
7.3213e-16
6.12536e-17
5.44684e-16
-1.89372e-17
8.70935e-16
1.14831e-16
1.26008e-15
8.95794e-17
2.0424e-15
-9.87741e-18
2.18715e-15
-2.32727e-16
1.92305e-15
-1.36887e-16
1.16326e-15
1.73496e-16
7.48617e-16
8.29291e-17
1.34682e-15
-3.69455e-16
1.71158e-15
-1.58267e-16
1.6297e-15
-1.12775e-16
1.62351e-15
-1.53896e-16
1.19531e-15
2.83292e-17
1.09284e-15
6.83883e-17
9.87456e-16
8.91976e-17
7.97338e-16
9.98839e-17
1.07622e-15
1.38535e-16
1.43118e-15
-1.22928e-16
2.01915e-15
-6.42986e-17
1.79187e-15
2.92909e-16
1.39628e-15
1.05699e-16
1.53823e-15
4.3372e-17
1.78217e-15
-1.38714e-16
1.51054e-15
1.14293e-17
1.14208e-15
-2.21637e-16
6.84364e-16
-3.72316e-17
9.99046e-16
-3.69099e-16
1.23389e-15
-1.53645e-16
1.02175e-15
6.75656e-17
1.24113e-15
-2.96652e-18
1.51314e-15
-1.8744e-16
1.50761e-15
-2.94874e-17
1.10112e-15
2.46986e-16
1.93105e-15
-3.12953e-16
2.60485e-15
-3.25946e-16
1.72358e-15
2.08003e-16
1.30149e-15
5.9128e-17
1.46003e-15
-2.04277e-16
1.94313e-15
-2.37956e-16
2.35631e-15
-3.03722e-16
3.03791e-15
-3.68628e-16
1.30335e-15
9.65912e-17
1.49516e-15
3.20862e-16
1.5681e-15
1.79601e-16
2.09564e-15
-4.33013e-18
2.2058e-15
7.1163e-17
1.93418e-15
1.16433e-16
1.64687e-15
2.64671e-17
1.97571e-15
-4.01586e-16
2.42423e-15
-4.56397e-16
2.93031e-15
-2.16043e-16
2.65514e-15
-2.20833e-17
2.391e-15
-4.65465e-19
1.03057e-15
-4.13798e-16
1.38711e-15
-5.19653e-16
1.35038e-15
-7.77265e-16
8.60328e-16
4.56322e-17
9.27224e-16
1.90738e-16
2.52186e-15
2.13122e-17
2.23072e-15
-2.7242e-16
8.2277e-16
-5.10636e-17
5.34045e-18
-1.17148e-16
-4.11428e-17
2.6244e-17
-2.60225e-16
5.42052e-17
-1.76207e-17
7.85436e-17
4.3922e-16
4.08076e-17
8.16553e-16
2.81954e-16
5.74785e-16
3.71145e-16
7.07823e-16
4.78507e-17
1.40284e-15
-1.84161e-16
1.48393e-15
-4.84052e-17
1.83854e-15
-2.74719e-16
1.88982e-15
-3.80362e-16
9.26558e-16
-2.12189e-16
1.25975e-15
-3.1213e-16
1.29433e-15
-1.02831e-16
1.97615e-15
-1.05322e-16
1.37146e-15
-9.46828e-17
1.01062e-15
-7.57799e-17
1.21386e-15
-4.28096e-16
1.98491e-15
-3.11424e-16
2.02491e-15
-5.37984e-17
1.65028e-15
6.35114e-17
1.44984e-15
2.82752e-18
1.07125e-15
1.4969e-16
1.29648e-15
5.68248e-17
1.94332e-15
1.04986e-16
3.50424e-15
2.91251e-16
1.58959e-16
1.60854e-16
1.57183e-16
-1.74409e-17
3.87619e-17
-4.53309e-17
-5.862e-17
-7.40455e-17
-4.64736e-17
-1.75933e-16
-3.45744e-17
1.11911e-17
1.49103e-17
1.62218e-16
4.81535e-17
-1.08694e-16
-1.41595e-17