/*--------------------------------*- C++ -*----------------------------------*\
  =========                 |
  \\      /  F ield         | OpenFOAM: The Open Source CFD Toolbox
   \\    /   O peration     | Website:  https://openfoam.org
    \\  /    A nd           | Version:  7
     \\/     M anipulation  |
\*---------------------------------------------------------------------------*/
FoamFile
{
    version     2.0;
    format      ascii;
    class       volScalarField;
    location    "500";
    object      epss;
}
// * * * * * * * * * * * * * * * * * * * * * * * * * * * * * * * * * * * * * //

dimensions      [0 0 0 0 0 0 0];

internalField   nonuniform List<scalar> 
160000
(
0.550776
0.516958
0.541322
0.502194
0.470942
0.544403
0.479219
0.554423
0.523756
0.451975
0.482393
0.52221
0.458991
0.466823
0.573512
0.532412
0.565396
0.559673
0.484562
0.492684
0.508184
0.526133
0.50357
0.465321
0.48864
0.456283
0.45405
0.502504
0.48203
0.54062
0.54265
0.494726
0.415004
0.488707
0.505326
0.478285
0.467242
0.426624
0.557015
0.504979
0.505423
0.506638
0.475623
0.537173
0.471954
0.476492
0.493557
0.550512
0.485047
0.540503
0.500329
0.419607
0.465379
0.497006
0.43129
0.54209
0.43456
0.562165
0.576321
0.53568
0.384561
0.516941
0.51889
0.543763
0.572942
0.435445
0.482109
0.45685
0.592234
0.656226
0.438687
0.561768
0.454874
0.532427
0.477007
0.503681
0.468777
0.514729
0.44069
0.500274
0.435171
0.408025
0.477713
0.501365
0.505245
0.522203
0.522247
0.566474
0.521436
0.470662
0.570761
0.440173
0.427192
0.449064
0.485254
0.557533
0.493125
0.526447
0.520865
0.565093
0.500697
0.597555
0.453036
0.522679
0.576901
0.48575
0.583526
0.491026
0.474516
0.481159
0.449616
0.570085
0.426752
0.516492
0.522968
0.487677
0.545129
0.504397
0.439927
0.489272
0.518095
0.555521
0.477187
0.46839
0.441242
0.380602
0.435713
0.526872
0.471294
0.480026
0.512336
0.510134
0.449447
0.401751
0.485726
0.486685
0.53893
0.511497
0.549952
0.576299
0.460371
0.448464
0.619694
0.48431
0.429348
0.50505
0.478491
0.487455
0.499995
0.546201
0.576583
0.517646
0.563215
0.469369
0.591377
0.497842
0.501938
0.430165
0.477488
0.449159
0.521641
0.502626
0.547038
0.45269
0.579038
0.455191
0.47658
0.54296
0.509435
0.562568
0.453237
0.440393
0.529488
0.373429
0.475219
0.529291
0.498428
0.494554
0.399694
0.436976
0.57861
0.420013
0.534766
0.554214
0.550903
0.551705
0.537206
0.544463
0.572913
0.510704
0.505216
0.54704
0.491213
0.471894
0.438497
0.625037
0.489256
0.437671
0.473244
0.433769
0.444766
0.490927
0.456152
0.475963
0.48717
0.490306
0.565634
0.481055
0.467112
0.50286
0.457622
0.450643
0.528588
0.502108
0.436452
0.502481
0.543143
0.421082
0.427341
0.468241
0.39369
0.462802
0.515893
0.496566
0.5118
0.5231
0.493859
0.593606
0.489424
0.554748
0.643064
0.499654
0.560985
0.525488
0.529135
0.481166
0.569955
0.496487
0.570671
0.485061
0.520889
0.525947
0.503531
0.566732
0.494375
0.502768
0.493322
0.526034
0.433279
0.510635
0.445536
0.481611
0.570951
0.582245
0.546814
0.479003
0.539023
0.566343
0.506838
0.403649
0.417896
0.480452
0.490544
0.551732
0.505843
0.507803
0.476391
0.504464
0.481586
0.442058
0.582375
0.533699
0.523707
0.517914
0.495777
0.510372
0.484373
0.469348
0.576932
0.494317
0.532198
0.503751
0.506475
0.516805
0.53851
0.554724
0.443906
0.524559
0.394641
0.426981
0.466644
0.609233
0.522921
0.527265
0.471443
0.442203
0.471201
0.610236
0.472661
0.573599
0.529088
0.528131
0.439085
0.459499
0.469179
0.528133
0.473311
0.517042
0.532046
0.431766
0.48531
0.519185
0.485954
0.479106
0.591556
0.490165
0.46475
0.508649
0.472737
0.48051
0.553689
0.492906
0.505131
0.461364
0.530988
0.477525
0.444063
0.496493
0.525995
0.496906
0.561535
0.521916
0.543374
0.49694
0.512543
0.485278
0.456757
0.450282
0.382064
0.524481
0.590879
0.520654
0.516175
0.563214
0.435934
0.590615
0.551103
0.496683
0.504553
0.464643
0.472493
0.499818
0.428488
0.53603
0.501651
0.505106
0.471616
0.514932
0.517427
0.545722
0.515809
0.511114
0.479273
0.530999
0.465004
0.481248
0.520785
0.36105
0.459071
0.526491
0.547107
0.492678
0.489158
0.366131
0.544542
0.406395
0.51945
0.516186
0.557878
0.539346
0.532642
0.534604
0.538129
0.491081
0.470276
0.462905
0.446066
0.456671
0.496601
0.518788
0.491053
0.520632
0.477134
0.507289
0.557824
0.433077
0.482552
0.598069
0.403214
0.458124
0.422932
0.571126
0.513655
0.549955
0.564423
0.535221
0.484147
0.51601
0.510019
0.495945
0.481054
0.531701
0.512943
0.494556
0.450763
0.54719
0.540339
0.415633
0.430878
0.475764
0.532064
0.512096
0.46771
0.472255
0.569746
0.512213
0.405236
0.428247
0.501442
0.453675
0.486122
0.5289
0.50133
0.529909
0.563084
0.466145
0.428664
0.654559
0.472559
0.425037
0.501393
0.543986
0.474891
0.566175
0.471398
0.426878
0.503849
0.565508
0.491296
0.441234
0.528154
0.490533
0.526233
0.396421
0.596034
0.48878
0.471231
0.548961
0.519677
0.51682
0.509292
0.483036
0.546242
0.552191
0.494754
0.515877
0.568354
0.443838
0.458499
0.412315
0.431517
0.478738
0.57209
0.508485
0.523287
0.4735
0.526504
0.518351
0.529981
0.447484
0.474377
0.500676
0.491338
0.4919
0.399318
0.410875
0.547964
0.520049
0.508659
0.465812
0.443374
0.48822
0.403522
0.454976
0.540103
0.470093
0.505959
0.47538
0.491557
0.552589
0.465208
0.507117
0.563468
0.397214
0.490395
0.54967
0.463568
0.444469
0.490195
0.470196
0.492395
0.574872
0.528504
0.540856
0.510936
0.498849
0.49995
0.483484
0.477921
0.412238
0.434051
0.518793
0.504493
0.508959
0.517322
0.487587
0.49758
0.537984
0.47302
0.529249
0.525624
0.622403
0.369503
0.408445
0.461596
0.55928
0.361204
0.552182
0.563145
0.518936
0.473449
0.445849
0.475947
0.461471
0.467144
0.56605
0.475404
0.522567
0.520376
0.560738
0.407622
0.588571
0.542042
0.501861
0.51722
0.463444
0.537933
0.460094
0.557012
0.45151
0.48561
0.450545
0.51061
0.520785
0.530666
0.464392
0.415484
0.512352
0.480202
0.531378
0.540307
0.536038
0.602287
0.372958
0.527354
0.448838
0.483741
0.531554
0.471418
0.509756
0.519956
0.470893
0.52752
0.579791
0.449565
0.506703
0.505995
0.578499
0.511256
0.440606
0.447683
0.484958
0.515918
0.409794
0.494606
0.440146
0.470846
0.440184
0.454943
0.468114
0.442394
0.519678
0.48777
0.443939
0.357621
0.441277
0.522965
0.496014
0.51436
0.45542
0.558799
0.521589
0.46394
0.515761
0.54654
0.46624
0.512261
0.487376
0.482624
0.555959
0.512921
0.589774
0.447866
0.511336
0.427054
0.473812
0.433501
0.549545
0.469295
0.525642
0.503365
0.511795
0.396719
0.449729
0.579576
0.517664
0.510004
0.489109
0.563402
0.505188
0.566948
0.526166
0.424938
0.472927
0.59484
0.42137
0.461383
0.488573
0.460157
0.436178
0.477289
0.426575
0.416135
0.559316
0.507985
0.464019
0.562803
0.455249
0.485985
0.464277
0.593462
0.466351
0.484314
0.489201
0.429277
0.478713
0.63599
0.459213
0.405121
0.472647
0.545116
0.451904
0.520869
0.580724
0.492193
0.492873
0.423359
0.512022
0.564308
0.525603
0.491776
0.509334
0.474063
0.444587
0.480098
0.513405
0.535842
0.542275
0.49746
0.449408
0.518769
0.471968
0.474306
0.473659
0.632719
0.474891
0.465923
0.515282
0.505268
0.43502
0.546652
0.449869
0.520654
0.519149
0.526221
0.557642
0.521151
0.492907
0.576971
0.466389
0.536926
0.498314
0.46605
0.464854
0.469347
0.565648
0.599615
0.514542
0.481092
0.491354
0.500219
0.542552
0.451455
0.387177
0.484554
0.488166
0.401707
0.391553
0.539887
0.478138
0.446002
0.549538
0.55004
0.445822
0.50898
0.521396
0.454206
0.455266
0.509892
0.503947
0.505299
0.459886
0.521321
0.512754
0.511301
0.48641
0.568812
0.526196
0.529174
0.494384
0.571715
0.48958
0.504404
0.436835
0.544871
0.520575
0.509395
0.525436
0.544027
0.525266
0.519328
0.479943
0.508964
0.508201
0.433253
0.490234
0.435068
0.436511
0.530545
0.527388
0.537402
0.589236
0.524194
0.554077
0.480358
0.566422
0.48031
0.457563
0.533381
0.498906
0.447155
0.613714
0.404895
0.528948
0.587896
0.456777
0.521905
0.541389
0.501363
0.451016
0.539577
0.484678
0.453078
0.521998
0.544441
0.434984
0.587076
0.499404
0.569952
0.467988
0.593238
0.610724
0.48129
0.580128
0.452328
0.589725
0.513436
0.460409
0.556549
0.461117
0.411649
0.474259
0.524185
0.453315
0.400923
0.481247
0.404714
0.453813
0.531528
0.459877
0.512257
0.494247
0.541145
0.568707
0.556184
0.521876
0.505126
0.498107
0.401787
0.501164
0.518866
0.479526
0.48601
0.473115
0.574025
0.526442
0.500601
0.536961
0.540517
0.523042
0.496268
0.500137
0.499816
0.51643
0.399789
0.547681
0.562448
0.555631
0.47991
0.410783
0.506806
0.554633
0.544492
0.514832
0.483537
0.481298
0.414057
0.450412
0.399193
0.541411
0.527499
0.515824
0.453121
0.570108
0.543047
0.453692
0.565869
0.564323
0.614134
0.507381
0.607607
0.460043
0.497531
0.601269
0.549047
0.499735
0.501392
0.466296
0.418085
0.505838
0.45855
0.453039
0.453537
0.552757
0.470157
0.532119
0.455248
0.466371
0.550079
0.568302
0.466199
0.548318
0.588036
0.501098
0.598473
0.601586
0.526604
0.514901
0.502057
0.54069
0.544175
0.462543
0.542991
0.484757
0.448982
0.51107
0.515612
0.567436
0.498197
0.45742
0.527208
0.492979
0.538245
0.575796
0.483311
0.539061
0.503778
0.493865
0.517374
0.525819
0.560245
0.542304
0.520435
0.544462
0.555508
0.543184
0.56695
0.502345
0.516083
0.56519
0.500637
0.440325
0.462663
0.506978
0.479352
0.517538
0.479569
0.471134
0.532941
0.521096
0.461113
0.359047
0.497145
0.465818
0.42894
0.526562
0.511436
0.497928
0.50333
0.537389
0.457527
0.539629
0.499608
0.394319
0.438759
0.575207
0.469002
0.523032
0.527093
0.5334
0.576181
0.474708
0.520413
0.507409
0.510924
0.498395
0.487852
0.516593
0.473816
0.459526
0.491855
0.459778
0.510535
0.576326
0.618179
0.468189
0.443892
0.474317
0.540385
0.4967
0.559117
0.57524
0.50917
0.479341
0.517424
0.483204
0.49656
0.470699
0.475542
0.425911
0.502164
0.512071
0.487906
0.482467
0.473508
0.413988
0.523386
0.476034
0.468669
0.54753
0.478827
0.471788
0.487299
0.493785
0.550704
0.480142
0.604815
0.433707
0.532535
0.579424
0.531908
0.478598
0.531175
0.581837
0.495328
0.50826
0.495459
0.553143
0.547616
0.513105
0.469104
0.499869
0.508813
0.457077
0.490782
0.448926
0.527919
0.459511
0.438742
0.558345
0.562931
0.507961
0.466577
0.556863
0.426411
0.493665
0.586963
0.553844
0.523942
0.437316
0.45045
0.468909
0.4004
0.487443
0.448552
0.543037
0.430732
0.5152
0.558305
0.495568
0.503409
0.502805
0.498073
0.537058
0.51394
0.514635
0.558372
0.500464
0.527226
0.553982
0.496466
0.473328
0.545459
0.455807
0.480147
0.43904
0.472853
0.490206
0.573051
0.571059
0.550679
0.476919
0.493603
0.472959
0.435894
0.519744
0.391958
0.495754
0.557358
0.43546
0.543504
0.407009
0.551465
0.514604
0.586299
0.446669
0.536739
0.501585
0.511031
0.472543
0.395264
0.486051
0.507615
0.467369
0.454212
0.411373
0.469715
0.530843
0.397902
0.516404
0.491052
0.573942
0.516844
0.476123
0.451921
0.483855
0.511346
0.56826
0.494365
0.479555
0.539052
0.500018
0.507683
0.5197
0.603468
0.532014
0.472855
0.508413
0.516555
0.493989
0.462999
0.447521
0.449874
0.486361
0.553745
0.480014
0.531003
0.517933
0.524965
0.50853
0.434105
0.490941
0.61142
0.479308
0.596975
0.533382
0.472559
0.486514
0.495099
0.47939
0.531821
0.524758
0.418918
0.48821
0.547992
0.468232
0.466356
0.550523
0.616356
0.537979
0.467121
0.51851
0.393648
0.49259
0.54056
0.477722
0.450911
0.469282
0.575979
0.61351
0.518487
0.482304
0.433552
0.472991
0.494935
0.614015
0.483377
0.493765
0.533539
0.466077
0.454012
0.458511
0.484819
0.469236
0.478076
0.505085
0.516851
0.542008
0.514993
0.476731
0.568371
0.51195
0.487715
0.472997
0.538587
0.556551
0.469805
0.479559
0.469868
0.510428
0.554058
0.455832
0.468362
0.502691
0.466957
0.502998
0.573782
0.486177
0.49937
0.538186
0.439868
0.448223
0.437586
0.427223
0.421603
0.427735
0.469867
0.424037
0.475559
0.441815
0.529265
0.513863
0.504814
0.533717
0.413382
0.478102
0.444383
0.464459
0.486597
0.478686
0.550743
0.407357
0.556309
0.485812
0.408546
0.565626
0.523753
0.472961
0.541238
0.644329
0.56155
0.537938
0.490341
0.468452
0.448022
0.482238
0.459188
0.613973
0.51031
0.412094
0.418689
0.477029
0.494421
0.487323
0.461726
0.503427
0.491464
0.535612
0.505088
0.544592
0.423496
0.472355
0.606703
0.462508
0.514481
0.543402
0.556357
0.507081
0.530909
0.454248
0.508867
0.426924
0.53142
0.540146
0.517793
0.500263
0.504213
0.518063
0.470947
0.466776
0.603991
0.563892
0.534637
0.460694
0.413348
0.467876
0.565574
0.456193
0.529144
0.621435
0.417066
0.494631
0.505706
0.529103
0.4172
0.441305
0.450935
0.42372
0.524282
0.406426
0.576617
0.440667
0.521066
0.511191
0.550723
0.44323
0.589583
0.544654
0.49152
0.416473
0.535588
0.477475
0.453879
0.502631
0.445426
0.44728
0.491944
0.508454
0.495137
0.48793
0.548433
0.436765
0.524614
0.555622
0.525063
0.479901
0.487925
0.447618
0.474789
0.547345
0.520876
0.537038
0.487715
0.620814
0.441417
0.492146
0.465098
0.546165
0.533589
0.49781
0.535583
0.462126
0.539258
0.469422
0.479993
0.560268
0.455217
0.507986
0.52718
0.521119
0.476139
0.634058
0.46749
0.457689
0.454212
0.426935
0.518498
0.530066
0.555016
0.41676
0.549313
0.485115
0.577436
0.549642
0.496491
0.516336
0.431584
0.474234
0.537565
0.461225
0.507633
0.501363
0.491248
0.507594
0.559789
0.495723
0.484027
0.443582
0.413832
0.397386
0.47342
0.533964
0.467696
0.452707
0.521175
0.477282
0.486815
0.557569
0.531899
0.482304
0.525856
0.645797
0.572035
0.464621
0.458824
0.465129
0.511456
0.489689
0.508813
0.532841
0.49737
0.43092
0.463627
0.520387
0.478803
0.540414
0.450705
0.470355
0.538524
0.488168
0.599929
0.488361
0.470273
0.485637
0.541352
0.469473
0.573688
0.439967
0.578188
0.573726
0.457951
0.442699
0.533168
0.516679
0.495556
0.542649
0.553781
0.5115
0.569578
0.450203
0.468338
0.477022
0.467472
0.486593
0.50302
0.461768
0.537036
0.511296
0.518014
0.514467
0.504329
0.594389
0.61227
0.496645
0.553927
0.501017
0.476877
0.502042
0.578339
0.547398
0.593005
0.594362
0.432878
0.501004
0.475707
0.485183
0.458643
0.511034
0.52561
0.503981
0.528953
0.448067
0.685426
0.41336
0.529007
0.530537
0.438057
0.50267
0.501257
0.546981
0.505245
0.463404
0.479527
0.486764
0.50631
0.452112
0.511337
0.425512
0.497369
0.399323
0.431712
0.560929
0.589243
0.581164
0.508153
0.502213
0.469994
0.491367
0.481607
0.558552
0.514202
0.529949
0.484708
0.458027
0.498709
0.592763
0.520059
0.51413
0.400733
0.50428
0.521526
0.40085
0.465392
0.426476
0.45795
0.531366
0.495028
0.42101
0.491429
0.542589
0.522422
0.533113
0.437118
0.48543
0.548127
0.458468
0.472703
0.546633
0.464884
0.505794
0.561907
0.471515
0.483461
0.523233
0.503437
0.522873
0.59282
0.585557
0.434629
0.558864
0.486242
0.526047
0.5119
0.540953
0.55638
0.496558
0.560818
0.475115
0.484991
0.609815
0.445919
0.485055
0.475962
0.474247
0.385171
0.547853
0.383211
0.426986
0.48949
0.552116
0.48462
0.567636
0.508876
0.41668
0.478825
0.505533
0.584061
0.50697
0.594999
0.560535
0.554295
0.573238
0.504517
0.464585
0.534591
0.448393
0.523429
0.421223
0.466869
0.481377
0.557161
0.487916
0.508346
0.486619
0.450952
0.645123
0.497992
0.517356
0.524152
0.429445
0.483907
0.525722
0.483217
0.529559
0.482443
0.490298
0.586136
0.582311
0.470191
0.447383
0.49958
0.622973
0.402579
0.445878
0.501815
0.54637
0.508308
0.473237
0.559043
0.45713
0.527909
0.563686
0.579518
0.496802
0.53165
0.541897
0.552612
0.518022
0.484347
0.467187
0.466651
0.452325
0.428756
0.494092
0.507135
0.513154
0.562122
0.476291
0.497096
0.561371
0.542083
0.654491
0.438862
0.395964
0.53494
0.575912
0.454576
0.468709
0.424137
0.40368
0.523285
0.543417
0.58752
0.533572
0.535651
0.600569
0.470626
0.435356
0.513221
0.461505
0.486629
0.566918
0.502672
0.448087
0.502481
0.592014
0.528365
0.48777
0.420227
0.471887
0.529381
0.441855
0.529634
0.552817
0.539628
0.489762
0.538124
0.455445
0.391591
0.505853
0.483388
0.488018
0.508169
0.552898
0.497542
0.482652
0.555911
0.484016
0.494359
0.569564
0.51608
0.534212
0.514142
0.571572
0.542814
0.454826
0.497573
0.468876
0.535676
0.4825
0.55547
0.542273
0.461464
0.510189
0.447622
0.445274
0.530432
0.487018
0.503176
0.393098
0.596055
0.506507
0.498299
0.522606
0.481721
0.452906
0.521577
0.498227
0.51065
0.506976
0.523101
0.540565
0.497819
0.513666
0.540498
0.468403
0.496917
0.536045
0.55062
0.438525
0.444274
0.499003
0.586372
0.43028
0.506989
0.422915
0.45859
0.519038
0.489447
0.505281
0.536609
0.507029
0.420692
0.419696
0.478049
0.608271
0.506803
0.395547
0.528958
0.521975
0.474067
0.54581
0.493398
0.513198
0.426348
0.527776
0.568123
0.531902
0.517325
0.504247
0.558392
0.440536
0.493224
0.477136
0.531137
0.491476
0.571615
0.492635
0.436599
0.484688
0.460536
0.496041
0.43718
0.575906
0.444962
0.465755
0.550023
0.533159
0.485097
0.530785
0.510986
0.488782
0.478522
0.462094
0.484213
0.447987
0.473878
0.563093
0.549221
0.472326
0.488418
0.495441
0.478966
0.552851
0.583777
0.497246
0.41644
0.485406
0.475041
0.441234
0.544081
0.450045
0.53215
0.545336
0.460152
0.519953
0.501535
0.496052
0.517368
0.517918
0.483091
0.493444
0.56443
0.573899
0.594782
0.444643
0.495539
0.481153
0.52529
0.477857
0.563001
0.521568
0.503062
0.606833
0.593397
0.471577
0.475291
0.479531
0.43961
0.568133
0.465678
0.479753
0.493993
0.463516
0.534789
0.546322
0.535122
0.47578
0.486803
0.450209
0.382683
0.496592
0.503854
0.487271
0.579418
0.444976
0.476643
0.535372
0.457565
0.487118
0.528706
0.472626
0.489624
0.519026
0.546428
0.495722
0.483048
0.507779
0.476718
0.556689
0.412083
0.555142
0.56853
0.482132
0.510919
0.532473
0.510976
0.533036
0.517272
0.432636
0.468701
0.498297
0.508012
0.495152
0.464209
0.461155
0.474375
0.560265
0.540953
0.50309
0.553739
0.557805
0.470401
0.58337
0.464039
0.518918
0.519245
0.445636
0.52211
0.535203
0.563557
0.52918
0.490821
0.509496
0.562945
0.491112
0.390981
0.40162
0.555862
0.461327
0.540002
0.576584
0.48338
0.435016
0.573666
0.454229
0.482408
0.516353
0.53621
0.56878
0.528329
0.49228
0.57052
0.529791
0.481765
0.438556
0.455377
0.612462
0.538628
0.580207
0.503213
0.500107
0.469076
0.455806
0.487949
0.408641
0.492707
0.552163
0.463869
0.466127
0.445183
0.457199
0.494901
0.532612
0.475386
0.606328
0.559048
0.466782
0.512916
0.453944
0.472767
0.35919
0.460298
0.459581
0.496923
0.449722
0.472
0.508212
0.45184
0.434671
0.490675
0.464447
0.512754
0.558835
0.525208
0.45871
0.523447
0.450201
0.489542
0.616578
0.489184
0.510144
0.412988
0.570146
0.51296
0.491058
0.455956
0.482806
0.519096
0.471678
0.464115
0.463826
0.492786
0.483592
0.598787
0.533943
0.477812
0.579331
0.53599
0.576431
0.440325
0.550734
0.528433
0.498434
0.555316
0.448197
0.491608
0.467485
0.491574
0.469596
0.540289
0.510708
0.476382
0.457369
0.431232
0.476238
0.496629
0.5195
0.458406
0.558553
0.454588
0.486075
0.506654
0.587389
0.630351
0.51186
0.461362
0.585832
0.461026
0.434243
0.450235
0.496579
0.426343
0.467217
0.574639
0.52077
0.477179
0.41334
0.482737
0.515852
0.486148
0.503025
0.47175
0.563557
0.600385
0.501325
0.516508
0.49559
0.642909
0.477687
0.567738
0.569594
0.437022
0.479675
0.531438
0.483573
0.569169
0.549444
0.61736
0.52969
0.467966
0.543788
0.434217
0.458017
0.43958
0.401379
0.538646
0.519081
0.496835
0.44662
0.462059
0.43574
0.515771
0.592349
0.531012
0.525959
0.626543
0.517828
0.578964
0.397858
0.527071
0.503253
0.489458
0.495845
0.451378
0.541376
0.527724
0.491492
0.450138
0.450903
0.507758
0.487239
0.55033
0.532409
0.491461
0.497656
0.512881
0.507385
0.487242
0.396225
0.474386
0.551969
0.48052
0.476115
0.539764
0.484176
0.475399
0.511775
0.54522
0.494338
0.528564
0.56611
0.456387
0.551668
0.477585
0.401102
0.474385
0.515593
0.460273
0.417381
0.489734
0.430713
0.449636
0.532552
0.500483
0.410155
0.496596
0.516608
0.542585
0.540864
0.470497
0.48151
0.522839
0.514092
0.463224
0.455252
0.470115
0.394911
0.455656
0.493089
0.555341
0.465898
0.434257
0.534527
0.533032
0.497741
0.617173
0.562794
0.50202
0.608444
0.517201
0.525061
0.464142
0.462806
0.536552
0.515652
0.559003
0.460974
0.44982
0.463427
0.530407
0.566321
0.547393
0.478293
0.546009
0.558277
0.547622
0.550572
0.405925
0.492163
0.499657
0.392762
0.541561
0.382708
0.500285
0.48657
0.454832
0.506842
0.495576
0.498003
0.467074
0.445541
0.547346
0.53824
0.504463
0.43026
0.573813
0.478305
0.533189
0.481544
0.516334
0.513683
0.439808
0.463215
0.551308
0.500272
0.437633
0.468001
0.492057
0.55948
0.519927
0.518394
0.45292
0.555735
0.468408
0.559554
0.505039
0.459281
0.491679
0.431318
0.48286
0.477528
0.525346
0.458971
0.525697
0.532138
0.520007
0.557392
0.572302
0.516142
0.573935
0.5421
0.422389
0.48711
0.522934
0.5448
0.452648
0.51841
0.452212
0.4275
0.506539
0.55495
0.521298
0.535056
0.463498
0.475546
0.472101
0.49192
0.558102
0.413657
0.487024
0.546273
0.490644
0.543196
0.556728
0.507059
0.424601
0.484745
0.471172
0.461195
0.522816
0.486137
0.476982
0.507182
0.579139
0.502349
0.490144
0.495008
0.499699
0.498741
0.441167
0.509325
0.498929
0.484262
0.516281
0.450779
0.456654
0.486861
0.58757
0.56627
0.576106
0.535016
0.487462
0.481393
0.561919
0.511383
0.530036
0.455439
0.496263
0.504319
0.611439
0.4851
0.434463
0.514291
0.546149
0.539425
0.521528
0.529762
0.517329
0.501955
0.580845
0.518654
0.506315
0.533282
0.460859
0.51675
0.369046
0.527262
0.544647
0.509711
0.48141
0.491252
0.513489
0.509244
0.552746
0.529395
0.560028
0.507683
0.558446
0.407194
0.472901
0.535279
0.472358
0.547106
0.428783
0.43543
0.426396
0.514974
0.489811
0.484831
0.526455
0.49123
0.505023
0.400188
0.521348
0.473031
0.49983
0.537213
0.449699
0.523229
0.442857
0.497696
0.458704
0.512056
0.492437
0.523757
0.47472
0.43085
0.504581
0.489827
0.49231
0.507946
0.467153
0.553702
0.471009
0.522565
0.517886
0.541846
0.59109
0.444969
0.503306
0.475527
0.485683
0.542639
0.527162
0.490163
0.580946
0.40418
0.460891
0.466221
0.432365
0.403234
0.478827
0.557862
0.556715
0.540284
0.497085
0.510418
0.536586
0.488892
0.583576
0.525785
0.557779
0.490015
0.46434
0.460287
0.576759
0.507436
0.49711
0.566141
0.62714
0.45178
0.503002
0.495073
0.529359
0.467866
0.534335
0.513819
0.501519
0.460676
0.482479
0.594159
0.455415
0.426622
0.489087
0.550402
0.496568
0.461224
0.459213
0.498809
0.530122
0.426623
0.448172
0.550357
0.463431
0.52163
0.486764
0.457065
0.507719
0.505514
0.51292
0.459888
0.539279
0.419698
0.442875
0.53171
0.547957
0.581667
0.448318
0.436595
0.451414
0.523233
0.419329
0.516635
0.500147
0.477176
0.415421
0.595421
0.504635
0.484297
0.451317
0.50203
0.614146
0.499331
0.574264
0.635156
0.513813
0.49163
0.520922
0.465149
0.465626
0.545051
0.475398
0.57644
0.510831
0.392745
0.417185
0.486469
0.538788
0.512655
0.530207
0.529378
0.503971
0.471448
0.456488
0.371657
0.456245
0.474571
0.521236
0.502179
0.547893
0.466635
0.443896
0.470178
0.520828
0.507159
0.554379
0.49751
0.540618
0.420981
0.375403
0.513626
0.540449
0.526708
0.447218
0.442393
0.537767
0.453711
0.531808
0.43974
0.483387
0.467465
0.580735
0.493012
0.54679
0.418412
0.451985
0.439631
0.538304
0.50014
0.435919
0.45252
0.536595
0.528227
0.480762
0.545164
0.565062
0.501489
0.534678
0.463708
0.433561
0.543503
0.47419
0.455519
0.520591
0.518101
0.468645
0.53932
0.525211
0.549653
0.569933
0.509116
0.448878
0.448695
0.590168
0.524299
0.435958
0.488876
0.525163
0.56674
0.490086
0.43633
0.448555
0.486671
0.445495
0.508926
0.502675
0.465472
0.529302
0.524412
0.514962
0.554765
0.579746
0.409382
0.513832
0.489014
0.50018
0.508052
0.502774
0.466304
0.565059
0.460249
0.452424
0.50273
0.547431
0.599061
0.433062
0.426598
0.569577
0.558295
0.442145
0.489352
0.42357
0.487797
0.484246
0.451329
0.540937
0.554638
0.406971
0.530836
0.592296
0.514563
0.466469
0.468106
0.501006
0.582931
0.522944
0.412281
0.468533
0.402442
0.496418
0.487569
0.545308
0.441457
0.462432
0.53375
0.430816
0.465195
0.524836
0.526462
0.540199
0.521766
0.517587
0.547034
0.410185
0.493214
0.425228
0.515744
0.547467
0.508031
0.576926
0.470019
0.490922
0.453481
0.475727
0.446593
0.501024
0.544761
0.532453
0.500781
0.379679
0.566721
0.474534
0.499532
0.551238
0.567319
0.560307
0.448435
0.477254
0.420997
0.414477
0.514894
0.581421
0.479969
0.522492
0.499403
0.509595
0.485168
0.54909
0.484827
0.44343
0.574062
0.51233
0.430033
0.492261
0.488517
0.476486
0.480313
0.467934
0.433347
0.547227
0.536788
0.554196
0.439424
0.507763
0.572735
0.476813
0.507412
0.549989
0.49301
0.539827
0.466123
0.434854
0.45701
0.55105
0.46287
0.464896
0.474668
0.482107
0.560642
0.536375
0.499263
0.487508
0.472044
0.501808
0.434933
0.611987
0.508183
0.435264
0.457074
0.575012
0.498427
0.46224
0.476614
0.6021
0.462228
0.469184
0.438017
0.571097
0.520745
0.461033
0.558612
0.522386
0.533335
0.431645
0.495428
0.57479
0.520812
0.555102
0.509939
0.570228
0.449196
0.516453
0.481038
0.476007
0.462625
0.436295
0.443513
0.446737
0.506937
0.497621
0.496557
0.462085
0.475903
0.487415
0.529709
0.623266
0.523057
0.601609
0.465819
0.589002
0.518231
0.537377
0.542711
0.465279
0.503665
0.486533
0.516208
0.464342
0.494398
0.506972
0.540214
0.458752
0.458683
0.544698
0.454665
0.554976
0.505294
0.496128
0.531161
0.510862
0.539626
0.506333
0.428113
0.471527
0.494566
0.425118
0.467385
0.478222
0.584985
0.487596
0.5218
0.488295
0.505785
0.553495
0.545242
0.571875
0.532627
0.453978
0.537867
0.438817
0.420968
0.551146
0.535622
0.503763
0.490965
0.50331
0.515365
0.503895
0.422998
0.578819
0.519097
0.467401
0.515081
0.497478
0.531134
0.508565
0.417911
0.49804
0.56237
0.535676
0.51306
0.507934
0.495959
0.475838
0.437522
0.595873
0.466253
0.482433
0.521154
0.428979
0.517242
0.519208
0.472097
0.499427
0.430553
0.451165
0.430572
0.496897
0.454684
0.559922
0.486123
0.509457
0.539133
0.48358
0.463084
0.511025
0.578787
0.496881
0.414925
0.530259
0.547076
0.517212
0.520604
0.50908
0.544831
0.549276
0.510524
0.442798
0.451204
0.534778
0.564471
0.478991
0.548166
0.519549
0.456559
0.547811
0.509198
0.467251
0.431916
0.512723
0.456386
0.550158
0.425127
0.42366
0.456461
0.492422
0.4727
0.546293
0.543389
0.481343
0.488648
0.500023
0.491168
0.568521
0.591699
0.485791
0.453666
0.475232
0.476112
0.530582
0.514386
0.516203
0.426833
0.577517
0.538803
0.450483
0.423489
0.463678
0.48701
0.532955
0.46811
0.560245
0.535045
0.599185
0.472643
0.51256
0.453941
0.563127
0.432554
0.553066
0.495739
0.580908
0.468034
0.472816
0.515186
0.492724
0.44918
0.465012
0.535979
0.536031
0.63713
0.470753
0.533846
0.493655
0.5779
0.436839
0.46448
0.527156
0.599116
0.492509
0.533709
0.480173
0.516576
0.501116
0.48622
0.355902
0.515852
0.48584
0.461875
0.507301
0.54291
0.504021
0.457365
0.493748
0.525562
0.53392
0.57831
0.492511
0.534171
0.507323
0.457568
0.459126
0.487067
0.408672
0.481891
0.440399
0.464597
0.41992
0.50036
0.495301
0.470169
0.497872
0.561869
0.484641
0.565781
0.480739
0.515013
0.50136
0.438826
0.498277
0.486586
0.451197
0.498022
0.513316
0.48234
0.442032
0.442617
0.501283
0.500951
0.462498
0.425558
0.535714
0.56172
0.553884
0.50367
0.476814
0.56906
0.506524
0.500965
0.502371
0.507928
0.436834
0.547276
0.475955
0.550107
0.487659
0.442112
0.53382
0.579349
0.532818
0.510953
0.482227
0.49566
0.472556
0.470291
0.524642
0.472095
0.44698
0.474202
0.537789
0.550522
0.492035
0.572995
0.548768
0.476106
0.5398
0.460316
0.431225
0.533458
0.499914
0.601254
0.587977
0.558462
0.532246
0.507007
0.470942
0.445896
0.563079
0.48963
0.486155
0.551367
0.488834
0.388679
0.530345
0.613593
0.535237
0.444445
0.403119
0.514605
0.611804
0.55483
0.44671
0.433238
0.476462
0.528338
0.423036
0.554007
0.552598
0.508184
0.473566
0.545465
0.522744
0.412275
0.474251
0.562118
0.591377
0.443045
0.506056
0.520543
0.511439
0.550126
0.423909
0.47559
0.602104
0.558899
0.549449
0.517851
0.508942
0.425292
0.484537
0.565818
0.554127
0.419086
0.509179
0.513396
0.511572
0.382259
0.443423
0.560414
0.587734
0.42516
0.47544
0.527553
0.616388
0.532339
0.519722
0.478804
0.56922
0.552375
0.512557
0.468236
0.448823
0.489498
0.490071
0.567364
0.537805
0.469555
0.51899
0.524571
0.620001
0.543461
0.450784
0.447816
0.533535
0.480166
0.52281
0.452841
0.481652
0.54802
0.476216
0.517686
0.460272
0.46102
0.46782
0.426958
0.51628
0.52416
0.559733
0.540204
0.601079
0.472234
0.531459
0.468418
0.491091
0.473485
0.446843
0.494808
0.454479
0.52106
0.518648
0.480281
0.442842
0.407683
0.561694
0.523041
0.443903
0.531276
0.498573
0.492177
0.591145
0.485364
0.467446
0.552429
0.520741
0.530927
0.521902
0.533583
0.536599
0.491874
0.460077
0.526442
0.524983
0.500129
0.566266
0.521546
0.583428
0.483317
0.525708
0.634182
0.521305
0.523155
0.514608
0.463776
0.473493
0.567635
0.462575
0.484654
0.554989
0.498236
0.537046
0.54476
0.47787
0.417211
0.484503
0.597502
0.559202
0.468073
0.493193
0.520568
0.596936
0.594659
0.530377
0.519295
0.516352
0.529847
0.467338
0.574781
0.443718
0.557304
0.497704
0.519645
0.476227
0.555315
0.486535
0.390116
0.476084
0.443928
0.542265
0.531064
0.407478
0.406299
0.50385
0.578876
0.638899
0.571919
0.488082
0.518141
0.437354
0.533612
0.549644
0.593309
0.542215
0.483522
0.458989
0.482463
0.533996
0.503004
0.550891
0.529858
0.587056
0.478763
0.488743
0.472
0.590448
0.58406
0.498467
0.492852
0.458746
0.478303
0.486723
0.458826
0.560353
0.467834
0.428289
0.508297
0.436652
0.558068
0.589924
0.529756
0.416578
0.535813
0.521917
0.446161
0.515361
0.413523
0.467472
0.528953
0.435188
0.510802
0.49955
0.581794
0.565079
0.501855
0.623205
0.543757
0.554451
0.458381
0.543691
0.565917
0.516376
0.536261
0.546236
0.43709
0.424804
0.46849
0.483048
0.530046
0.519968
0.526607
0.444198
0.511232
0.538978
0.544233
0.55191
0.538315
0.517198
0.440752
0.525041
0.542764
0.527108
0.483692
0.443005
0.489431
0.519734
0.578102
0.53787
0.467252
0.506721
0.578703
0.532976
0.430263
0.418605
0.527072
0.399864
0.423622
0.486018
0.425896
0.565436
0.453319
0.482288
0.486081
0.516742
0.522571
0.397124
0.472106
0.52453
0.565799
0.468529
0.399135
0.490544
0.495373
0.437437
0.4241
0.491092
0.350764
0.481345
0.447066
0.493527
0.468256
0.422623
0.465227
0.453293
0.480468
0.582887
0.516628
0.443639
0.562037
0.523749
0.51564
0.49407
0.543917
0.481995
0.471253
0.547678
0.463635
0.475257
0.544486
0.506862
0.492215
0.519463
0.52425
0.508613
0.432651
0.508175
0.551627
0.509347
0.545783
0.378535
0.440369
0.475977
0.563033
0.528036
0.505503
0.505989
0.528154
0.504291
0.572611
0.481582
0.47772
0.544326
0.541472
0.4311
0.487045
0.547316
0.477199
0.485776
0.495351
0.451955
0.438412
0.49524
0.490076
0.464571
0.470642
0.456479
0.474039
0.48823
0.419992
0.471938
0.509447
0.485198
0.484957
0.526418
0.540031
0.462101
0.512822
0.567525
0.569686
0.540035
0.433244
0.463028
0.508428
0.522906
0.518844
0.505881
0.53858
0.445643
0.502526
0.479788
0.517396
0.558829
0.561845
0.485921
0.557709
0.461835
0.522754
0.596811