/*--------------------------------*- C++ -*----------------------------------*\
  =========                 |
  \\      /  F ield         | OpenFOAM: The Open Source CFD Toolbox
   \\    /   O peration     | Website:  https://openfoam.org
    \\  /    A nd           | Version:  7
     \\/     M anipulation  |
\*---------------------------------------------------------------------------*/
FoamFile
{
    version     2.0;
    format      ascii;
    class       volScalarField;
    location    "500";
    object      k1Write;
}
// * * * * * * * * * * * * * * * * * * * * * * * * * * * * * * * * * * * * * //

dimensions      [0 2 0 0 0 0 0];

internalField   nonuniform List<scalar> 
160000
(
1.32778e-18
1.88001e-18
1.0786e-18
1.93467e-18
2.36948e-18
1.1193e-18
2.62849e-18
1.49459e-18
1.57308e-18
3.43024e-18
2.40497e-18
1.55025e-18
2.84426e-18
2.84721e-18
9.71365e-19
1.48011e-18
1.05332e-18
1.22204e-18
3.13288e-18
2.43721e-18
1.77864e-18
1.52954e-18
2.21019e-18
2.95418e-18
2.00285e-18
2.80118e-18
3.50459e-18
2.32565e-18
2.85928e-18
1.46804e-18
1.38102e-18
2.30153e-18
5.08768e-18
2.24868e-18
1.9089e-18
2.50525e-18
3.46517e-18
5.19221e-18
1.40753e-18
2.23889e-18
1.91721e-18
1.7171e-18
2.9433e-18
1.71701e-18
3.30974e-18
3.17015e-18
2.39063e-18
1.32697e-18
2.39446e-18
1.35657e-18
2.23366e-18
5.44747e-18
3.26116e-18
2.19404e-18
4.12907e-18
1.3666e-18
4.18553e-18
1.16308e-18
1.02006e-18
1.67866e-18
7.59705e-18
2.03622e-18
1.97959e-18
1.50539e-18
1.12382e-18
4.5012e-18
2.57335e-18
3.31063e-18
8.34732e-19
4.53155e-19
4.42028e-18
1.28437e-18
3.7617e-18
1.60178e-18
2.79618e-18
2.14604e-18
3.32364e-18
2.18175e-18
4.56262e-18
2.42563e-18
4.71043e-18
6.17553e-18
2.77212e-18
2.17513e-18
2.09454e-18
1.81527e-18
1.91611e-18
1.22531e-18
1.95955e-18
2.90318e-18
1.05369e-18
4.25458e-18
4.84365e-18
3.90376e-18
2.71561e-18
1.30767e-18
2.73494e-18
1.95854e-18
2.07409e-18
1.30619e-18
2.48871e-18
8.8334e-19
3.92108e-18
1.95935e-18
1.12948e-18
2.65618e-18
9.78403e-19
2.66933e-18
3.21764e-18
3.15867e-18
4.32107e-18
1.26004e-18
5.12245e-18
2.04072e-18
1.91278e-18
2.69905e-18
1.51279e-18
2.51437e-18
4.88937e-18
2.87938e-18
2.15849e-18
1.55735e-18
3.45871e-18
3.77616e-18
4.90002e-18
8.15753e-18
4.27595e-18
1.72462e-18
3.01119e-18
2.76252e-18
2.00846e-18
2.22869e-18
4.197e-18
6.12928e-18
2.66495e-18
2.76684e-18
1.66205e-18
2.19527e-18
1.4276e-18
1.08532e-18
3.51486e-18
3.95643e-18
6.79578e-19
3.12129e-18
5.38367e-18
2.53959e-18
3.02393e-18
2.69733e-18
2.38093e-18
1.49209e-18
1.13262e-18
2.07815e-18
1.25972e-18
3.23626e-18
9.31245e-19
2.59959e-18
2.49607e-18
5.10118e-18
3.12685e-18
3.9836e-18
1.84182e-18
2.36014e-18
1.56056e-18
4.02092e-18
1.11864e-18
4.05475e-18
3.2028e-18
1.56581e-18
2.22749e-18
1.30161e-18
4.01224e-18
4.55682e-18
1.80665e-18
8.57845e-18
3.11322e-18
1.85137e-18
2.57755e-18
2.67969e-18
6.86603e-18
4.73756e-18
1.13305e-18
6.19001e-18
1.68483e-18
1.38028e-18
1.42854e-18
1.47955e-18
1.80797e-18
1.67886e-18
1.1916e-18
2.13877e-18
2.18795e-18
1.43202e-18
2.67896e-18
3.10607e-18
4.32428e-18
6.33882e-19
2.98381e-18
4.97698e-18
3.22096e-18
4.51935e-18
4.05351e-18
2.63854e-18
4.19937e-18
3.451e-18
2.99633e-18
2.75046e-18
1.34948e-18
3.42013e-18
3.92793e-18
2.70884e-18
4.15281e-18
4.27606e-18
1.96408e-18
2.56472e-18
4.92085e-18
2.53007e-18
1.67682e-18
5.67759e-18
5.33561e-18
3.55891e-18
7.4625e-18
3.75677e-18
2.21246e-18
2.68589e-18
2.27368e-18
2.02898e-18
2.72047e-18
9.67605e-19
2.872e-18
1.37063e-18
5.25523e-19
2.65124e-18
1.3546e-18
2.00894e-18
1.93616e-18
3.13252e-18
1.25666e-18
2.6582e-18
1.24152e-18
3.08679e-18
2.15619e-18
2.04809e-18
2.37972e-18
1.24863e-18
2.60979e-18
2.28198e-18
2.50804e-18
1.90934e-18
4.89854e-18
2.21861e-18
4.3007e-18
3.00809e-18
1.09901e-18
1.01652e-18
1.65451e-18
3.27608e-18
1.64603e-18
1.24141e-18
2.37734e-18
6.62752e-18
5.57677e-18
2.99964e-18
2.78547e-18
1.50086e-18
2.42504e-18
2.46208e-18
3.36804e-18
2.36627e-18
2.89856e-18
4.1822e-18
1.01055e-18
1.79279e-18
1.98421e-18
2.13528e-18
2.66623e-18
2.30356e-18
3.06353e-18
3.55647e-18
1.08961e-18
2.80407e-18
1.91513e-18
2.58577e-18
2.51613e-18
2.1614e-18
1.68504e-18
1.50789e-18
4.58671e-18
2.0528e-18
6.86104e-18
4.78438e-18
3.23021e-18
7.45307e-19
2.1258e-18
2.03431e-18
3.55681e-18
4.75139e-18
3.42621e-18
8.12904e-19
3.35576e-18
1.1487e-18
1.81864e-18
1.96108e-18
4.83717e-18
3.95202e-18
3.46363e-18
1.82008e-18
3.19066e-18
2.05055e-18
1.89127e-18
5.14198e-18
3.02443e-18
2.14305e-18
2.98924e-18
3.18605e-18
9.4431e-19
2.68677e-18
3.45886e-18
2.18124e-18
3.12064e-18
2.8887e-18
1.3797e-18
2.69414e-18
2.38415e-18
3.67336e-18
1.83082e-18
3.24033e-18
4.51412e-18
2.47998e-18
1.84748e-18
2.47517e-18
1.27538e-18
1.91385e-18
1.51245e-18
2.3569e-18
2.01577e-18
2.76357e-18
3.53134e-18
3.75637e-18
7.41195e-18
1.792e-18
8.99332e-19
1.86281e-18
1.949e-18
1.38476e-18
5.57359e-18
1.16083e-18
1.75794e-18
3.05024e-18
2.73682e-18
3.51558e-18
3.12547e-18
2.56932e-18
5.25551e-18
1.73508e-18
2.56232e-18
2.47521e-18
3.24228e-18
2.10422e-18
2.08919e-18
1.5852e-18
2.23891e-18
2.34717e-18
3.17924e-18
1.83952e-18
3.56078e-18
3.03047e-18
2.1577e-18
1.06411e-17
3.99375e-18
2.03669e-18
1.6503e-18
2.86074e-18
2.96267e-18
1.01037e-17
1.66501e-18
6.44534e-18
2.09305e-18
2.17694e-18
1.42222e-18
1.77286e-18
1.86863e-18
1.7704e-18
1.66671e-18
2.72849e-18
3.35512e-18
3.60978e-18
4.26421e-18
3.83969e-18
2.5422e-18
2.10575e-18
2.78062e-18
2.06622e-18
3.00785e-18
2.21628e-18
1.38045e-18
4.82045e-18
2.88573e-18
8.80384e-19
5.70844e-18
3.0336e-18
4.10732e-18
8.43822e-19
2.1613e-18
1.02551e-18
8.85575e-19
1.28471e-18
2.17212e-18
1.60693e-18
1.89426e-18
2.18756e-18
2.24164e-18
1.57853e-18
1.91375e-18
2.30029e-18
3.67821e-18
1.36986e-18
1.30699e-18
4.55165e-18
4.16672e-18
2.45117e-18
1.39756e-18
1.91507e-18
3.15855e-18
3.02708e-18
1.0438e-18
2.03412e-18
5.77008e-18
4.26932e-18
2.06962e-18
3.35265e-18
2.42236e-18
1.58027e-18
2.15965e-18
1.59634e-18
1.05929e-18
3.20638e-18
4.71061e-18
4.47473e-19
3.30048e-18
4.21238e-18
1.78027e-18
1.15935e-18
2.32776e-18
1.18382e-18
3.328e-18
5.07908e-18
2.13603e-18
1.15363e-18
2.22372e-18
3.66056e-18
1.54126e-18
2.69623e-18
1.97578e-18
7.2117e-18
8.19168e-19
2.87555e-18
3.22039e-18
1.34337e-18
1.84875e-18
1.90582e-18
2.09626e-18
2.75722e-18
1.38604e-18
1.38038e-18
2.47316e-18
1.87113e-18
1.1816e-18
4.18329e-18
3.62306e-18
5.73479e-18
4.44619e-18
2.74103e-18
1.0632e-18
2.15908e-18
1.86224e-18
3.05893e-18
1.77178e-18
1.93362e-18
1.76473e-18
3.95815e-18
3.03596e-18
2.39995e-18
2.69325e-18
2.68114e-18
6.72967e-18
5.80624e-18
1.47428e-18
2.03171e-18
2.28078e-18
3.4985e-18
4.32687e-18
2.61141e-18
5.9633e-18
3.58225e-18
1.55767e-18
3.2149e-18
2.18509e-18
2.83847e-18
2.41872e-18
1.34798e-18
3.36701e-18
2.22004e-18
1.38225e-18
7.32931e-18
2.90786e-18
1.58028e-18
3.75822e-18
4.22026e-18
2.67585e-18
3.2663e-18
2.62159e-18
1.13061e-18
1.91984e-18
1.68798e-18
2.17603e-18
2.42243e-18
2.46278e-18
3.09652e-18
3.38501e-18
6.49581e-18
4.72392e-18
2.0338e-18
2.35138e-18
2.24964e-18
2.07901e-18
2.87704e-18
2.55531e-18
1.78079e-18
3.42e-18
1.89406e-18
1.8252e-18
7.12098e-19
9.9982e-18
6.76149e-18
3.90467e-18
1.47311e-18
9.8397e-18
1.45113e-18
1.36068e-18
2.14061e-18
3.37384e-18
4.43635e-18
3.25715e-18
3.77254e-18
3.24137e-18
1.20417e-18
3.41988e-18
2.05315e-18
2.05287e-18
1.36017e-18
5.91929e-18
9.51508e-19
1.65034e-18
2.47846e-18
2.12498e-18
3.63435e-18
1.72341e-18
3.79278e-18
1.28353e-18
3.72965e-18
2.59082e-18
3.66926e-18
2.0191e-18
1.92567e-18
1.86486e-18
3.70158e-18
6.01187e-18
2.13601e-18
2.97154e-18
1.77869e-18
1.67745e-18
1.68098e-18
9.21924e-19
9.42572e-18
2.01926e-18
4.42238e-18
3.02246e-18
1.84659e-18
3.53791e-18
2.41821e-18
2.36121e-18
3.85554e-18
1.96824e-18
1.14658e-18
4.28706e-18
2.3519e-18
2.13488e-18
1.0147e-18
2.51016e-18
5.07027e-18
4.72788e-18
3.0753e-18
2.36842e-18
6.80449e-18
2.75402e-18
4.72811e-18
3.43496e-18
4.85466e-18
4.17588e-18
3.62974e-18
4.25731e-18
1.97226e-18
3.00751e-18
4.7396e-18
1.07418e-17
4.35717e-18
1.931e-18
2.53153e-18
2.10656e-18
3.7894e-18
1.33861e-18
2.10813e-18
3.74891e-18
2.23433e-18
1.67814e-18
3.68388e-18
2.08755e-18
2.6777e-18
2.80754e-18
1.37798e-18
2.26872e-18
1.03001e-18
4.34442e-18
2.31047e-18
5.39995e-18
3.2689e-18
4.8735e-18
1.52474e-18
3.60737e-18
2.0535e-18
2.56992e-18
2.36172e-18
6.99494e-18
3.76656e-18
1.01154e-18
2.20547e-18
2.38226e-18
2.93601e-18
1.33951e-18
2.42542e-18
1.29096e-18
2.05081e-18
5.62088e-18
3.46891e-18
9.37632e-19
5.71625e-18
3.84528e-18
2.90813e-18
3.78672e-18
4.53385e-18
2.9766e-18
4.86611e-18
5.02339e-18
1.19569e-18
2.37991e-18
3.5879e-18
1.28163e-18
4.12415e-18
2.88332e-18
3.49885e-18
9.35809e-19
3.54695e-18
2.96768e-18
2.63344e-18
4.63365e-18
2.83931e-18
5.47751e-19
4.03001e-18
6.89251e-18
3.52781e-18
1.49043e-18
3.62768e-18
1.82418e-18
9.83402e-19
2.69331e-18
2.73705e-18
5.17748e-18
2.05045e-18
1.20157e-18
1.87128e-18
2.62198e-18
2.19967e-18
3.14998e-18
4.21829e-18
2.96682e-18
2.12717e-18
1.6949e-18
1.60803e-18
2.80046e-18
4.5128e-18
2.1982e-18
3.21082e-18
2.91424e-18
2.93315e-18
5.60475e-19
3.43723e-18
3.7301e-18
2.19649e-18
2.68134e-18
5.32472e-18
1.53948e-18
3.99334e-18
1.9723e-18
2.02553e-18
1.83951e-18
1.29935e-18
1.97779e-18
2.52294e-18
1.06902e-18
3.64943e-18
1.72326e-18
2.6426e-18
3.37899e-18
3.41937e-18
3.27049e-18
1.23483e-18
9.0995e-19
2.3186e-18
3.23918e-18
2.92474e-18
2.3744e-18
1.54772e-18
4.06612e-18
7.70838e-18
2.9202e-18
2.91499e-18
6.61552e-18
6.96194e-18
1.58357e-18
3.36118e-18
4.52989e-18
1.43085e-18
1.47775e-18
4.20244e-18
2.16014e-18
1.9784e-18
4.13743e-18
3.79371e-18
2.18836e-18
2.46838e-18
2.19861e-18
3.41603e-18
1.85039e-18
2.20767e-18
2.53447e-18
2.80241e-18
1.17677e-18
2.00413e-18
1.9431e-18
2.58846e-18
1.14251e-18
2.90735e-18
2.49538e-18
4.67211e-18
1.58506e-18
2.15493e-18
2.4157e-18
2.09599e-18
1.73431e-18
2.04557e-18
2.07568e-18
3.07802e-18
2.3039e-18
2.40533e-18
5.06456e-18
2.87889e-18
4.89028e-18
4.65675e-18
1.82287e-18
1.92619e-18
1.73964e-18
1.01311e-18
2.00953e-18
1.50706e-18
3.19279e-18
1.33383e-18
3.20196e-18
4.01215e-18
1.87953e-18
2.66687e-18
4.45838e-18
7.41579e-19
5.8721e-18
1.7064e-18
9.38492e-19
3.48793e-18
1.82139e-18
1.54826e-18
2.42416e-18
3.87287e-18
1.5965e-18
2.98106e-18
3.80004e-18
1.91122e-18
1.60449e-18
4.79564e-18
1.00302e-18
2.4698e-18
1.07902e-18
2.75078e-18
7.31074e-19
6.36989e-19
2.99677e-18
1.06484e-18
3.61531e-18
7.34935e-19
1.85575e-18
3.14122e-18
1.14791e-18
3.05878e-18
5.0149e-18
2.70394e-18
1.6478e-18
3.57565e-18
6.03323e-18
2.51928e-18
5.154e-18
2.99335e-18
1.48251e-18
3.20651e-18
1.90808e-18
2.28192e-18
1.41372e-18
1.09648e-18
1.32477e-18
1.8859e-18
2.16754e-18
2.33095e-18
6.08122e-18
2.12999e-18
1.8e-18
2.6739e-18
2.4232e-18
2.65583e-18
9.44668e-19
1.81771e-18
2.36269e-18
1.64031e-18
1.54277e-18
1.75205e-18
2.30286e-18
2.22014e-18
2.23177e-18
1.89271e-18
5.45246e-18
1.2459e-18
1.17567e-18
1.31948e-18
2.84085e-18
5.48959e-18
1.91152e-18
1.22495e-18
1.47268e-18
2.20959e-18
3.02659e-18
3.0998e-18
5.92908e-18
3.43213e-18
5.71462e-18
1.38371e-18
1.64089e-18
1.98629e-18
3.491e-18
1.07279e-18
1.44763e-18
3.47635e-18
1.12304e-18
1.14289e-18
6.84111e-19
2.23053e-18
7.75924e-19
3.3385e-18
2.2278e-18
7.63179e-19
1.4284e-18
2.3396e-18
2.28136e-18
3.28742e-18
5.30696e-18
2.20797e-18
3.70942e-18
3.92192e-18
3.46808e-18
1.28138e-18
3.33167e-18
1.77018e-18
3.81832e-18
3.20798e-18
1.38346e-18
1.2285e-18
3.37025e-18
1.4233e-18
9.6743e-19
2.36842e-18
8.36819e-19
8.34353e-19
1.85289e-18
2.08721e-18
2.37645e-18
1.5959e-18
1.61963e-18
3.6778e-18
1.57638e-18
3.03942e-18
4.02719e-18
2.1492e-18
2.05471e-18
1.24936e-18
2.68989e-18
3.7974e-18
1.84775e-18
2.74194e-18
1.73859e-18
1.20952e-18
3.10414e-18
1.65151e-18
2.37017e-18
2.6126e-18
2.00005e-18
1.83082e-18
1.29755e-18
1.65663e-18
2.07032e-18
1.62222e-18
1.44746e-18
1.64425e-18
1.27761e-18
2.51642e-18
2.09233e-18
1.26612e-18
2.45406e-18
4.46896e-18
3.58375e-18
2.31311e-18
3.33502e-18
2.27438e-18
3.28074e-18
3.33547e-18
1.65365e-18
1.96547e-18
3.70735e-18
9.47631e-18
2.38773e-18
3.63895e-18
4.64517e-18
1.75717e-18
2.44015e-18
2.79478e-18
2.59744e-18
1.75384e-18
3.70196e-18
1.58586e-18
2.53285e-18
6.6929e-18
4.30268e-18
1.08577e-18
3.61612e-18
1.91204e-18
1.69537e-18
1.59064e-18
1.10528e-18
3.47812e-18
2.203e-18
2.48915e-18
2.28471e-18
2.45134e-18
2.66077e-18
1.99593e-18
3.29161e-18
3.77894e-18
2.67247e-18
3.4705e-18
2.09399e-18
1.06591e-18
7.50068e-19
3.65135e-18
4.64525e-18
3.43745e-18
1.70099e-18
2.52628e-18
1.31192e-18
1.21871e-18
2.40815e-18
3.11815e-18
2.1311e-18
3.15419e-18
2.7616e-18
3.57233e-18
3.28258e-18
4.98301e-18
2.33799e-18
2.18869e-18
2.9616e-18
3.16549e-18
3.46052e-18
5.70633e-18
1.92104e-18
3.40349e-18
3.54645e-18
1.50978e-18
3.05606e-18
3.27747e-18
2.7006e-18
2.53182e-18
1.45785e-18
3.09728e-18
8.57557e-19
4.90774e-18
1.80931e-18
1.08564e-18
1.86377e-18
2.9351e-18
1.73241e-18
1.11334e-18
2.81642e-18
2.437e-18
2.4702e-18
1.37696e-18
1.58538e-18
2.29731e-18
3.56324e-18
2.57006e-18
2.3659e-18
4.12649e-18
2.95549e-18
4.67396e-18
2.12486e-18
3.85995e-18
4.48351e-18
1.34906e-18
1.36521e-18
2.44949e-18
3.1918e-18
1.28303e-18
4.83217e-18
2.48013e-18
9.52354e-19
1.53088e-18
2.08409e-18
4.94006e-18
4.33799e-18
3.61341e-18
6.54905e-18
2.56105e-18
3.76653e-18
1.46237e-18
4.93853e-18
2.13214e-18
1.37323e-18
2.70143e-18
2.29561e-18
2.16021e-18
2.22777e-18
1.61582e-18
2.16488e-18
2.04275e-18
1.3072e-18
2.63146e-18
2.01011e-18
1.52873e-18
2.59474e-18
3.09611e-18
1.49878e-18
4.06128e-18
3.20322e-18
4.81386e-18
3.08171e-18
2.59363e-18
1.11492e-18
1.23322e-18
1.60306e-18
3.37254e-18
2.85635e-18
3.50788e-18
4.59633e-18
1.99528e-18
7.32983e-18
2.41339e-18
1.43685e-18
4.88334e-18
1.65756e-18
6.27921e-18
1.44395e-18
2.23637e-18
1.10077e-18
4.53806e-18
1.84436e-18
2.55662e-18
2.3256e-18
3.56664e-18
6.7191e-18
2.72772e-18
2.20578e-18
3.53818e-18
4.17824e-18
6.38946e-18
3.58383e-18
2.07159e-18
7.79336e-18
2.07595e-18
2.59739e-18
1.11543e-18
2.2264e-18
3.34417e-18
4.01392e-18
2.68459e-18
2.03972e-18
1.13913e-18
2.52982e-18
2.859e-18
1.57202e-18
2.49012e-18
2.33631e-18
2.07016e-18
8.88809e-19
1.93244e-18
3.49623e-18
2.45269e-18
2.17416e-18
2.85985e-18
3.89101e-18
4.53546e-18
4.02062e-18
2.5888e-18
1.30971e-18
2.83073e-18
1.69727e-18
2.10573e-18
2.0258e-18
2.48194e-18
5.19937e-18
2.5873e-18
6.79331e-19
2.62371e-18
7.84315e-19
1.84055e-18
3.54329e-18
3.08305e-18
2.83023e-18
3.3092e-18
1.79235e-18
2.08258e-18
5.97352e-18
2.82201e-18
1.60868e-18
3.49782e-18
3.31854e-18
1.42299e-18
7.14012e-19
1.80103e-18
3.66518e-18
2.19439e-18
7.22241e-18
2.68743e-18
1.69651e-18
3.26629e-18
3.74795e-18
3.12446e-18
1.05779e-18
7.62633e-19
2.12631e-18
3.05393e-18
4.95081e-18
3.22063e-18
2.58911e-18
7.57827e-19
3.36417e-18
2.75135e-18
1.80006e-18
3.71521e-18
4.18689e-18
3.99703e-18
2.72845e-18
3.11345e-18
2.85199e-18
2.19775e-18
1.96198e-18
1.54424e-18
2.22163e-18
3.18153e-18
1.18813e-18
2.31252e-18
2.9468e-18
3.41089e-18
1.57063e-18
1.42946e-18
3.48252e-18
3.14412e-18
3.14523e-18
2.09912e-18
1.46601e-18
4.09575e-18
3.61767e-18
2.54203e-18
3.20683e-18
2.21931e-18
1.07567e-18
2.63693e-18
2.01312e-18
1.36035e-18
3.63749e-18
3.21604e-18
3.6776e-18
4.18487e-18
4.44028e-18
4.51289e-18
2.98244e-18
4.19765e-18
2.49795e-18
3.56172e-18
1.49316e-18
1.75275e-18
1.86802e-18
1.42597e-18
5.07487e-18
2.38726e-18
3.19797e-18
2.62899e-18
2.32235e-18
2.53055e-18
1.28119e-18
5.22615e-18
1.17886e-18
2.55141e-18
5.50476e-18
1.11191e-18
1.78101e-18
2.802e-18
1.29865e-18
4.41131e-19
1.12653e-18
1.43233e-18
2.4647e-18
3.02926e-18
3.87499e-18
2.76626e-18
3.26718e-18
6.65996e-19
2.09503e-18
5.42001e-18
4.61047e-18
2.59147e-18
2.18764e-18
2.42087e-18
3.144e-18
2.0131e-18
2.27294e-18
1.45999e-18
2.00667e-18
1.43532e-18
4.82377e-18
2.89043e-18
7.18694e-19
3.29614e-18
1.75011e-18
1.30698e-18
1.14555e-18
2.09392e-18
1.68788e-18
3.63659e-18
2.09812e-18
4.18073e-18
1.4773e-18
1.51664e-18
1.97048e-18
2.35458e-18
2.2666e-18
2.16181e-18
3.46545e-18
2.84546e-18
6.97074e-19
1.14685e-18
1.6909e-18
3.54885e-18
5.60584e-18
2.89247e-18
1.07845e-18
3.2553e-18
1.57253e-18
6.5774e-19
5.58653e-18
2.2315e-18
1.99981e-18
1.7809e-18
5.73997e-18
4.41883e-18
3.93042e-18
4.92017e-18
1.80512e-18
5.85245e-18
9.87425e-19
4.31117e-18
1.929e-18
2.04066e-18
1.35176e-18
3.866e-18
8.59565e-19
1.51517e-18
2.46531e-18
5.15902e-18
1.57389e-18
3.17284e-18
3.70011e-18
2.28089e-18
4.29582e-18
4.07795e-18
2.55003e-18
2.3063e-18
2.77343e-18
2.97367e-18
1.57701e-18
4.63141e-18
1.7567e-18
1.28006e-18
1.97834e-18
3.10204e-18
2.6787e-18
4.12777e-18
3.04128e-18
1.46128e-18
1.94145e-18
1.53661e-18
2.39574e-18
5.99947e-19
4.54952e-18
2.5775e-18
3.35938e-18
1.48863e-18
1.78677e-18
2.49913e-18
1.66169e-18
3.63067e-18
1.67671e-18
3.73812e-18
3.36734e-18
1.49519e-18
3.83249e-18
2.12684e-18
1.75332e-18
1.89573e-18
2.9408e-18
5.65478e-19
3.67123e-18
4.04717e-18
4.19066e-18
5.49267e-18
2.00535e-18
1.80852e-18
1.48339e-18
5.40884e-18
1.43707e-18
2.85451e-18
1.07098e-18
1.61796e-18
2.78972e-18
2.2872e-18
5.31491e-18
3.33868e-18
1.67806e-18
3.7055e-18
2.27621e-18
2.65173e-18
2.95141e-18
2.3284e-18
1.25267e-18
2.53905e-18
2.86731e-18
4.92211e-18
6.03471e-18
6.39456e-18
3.00687e-18
1.68904e-18
3.55526e-18
4.12509e-18
2.00321e-18
3.10799e-18
2.82766e-18
1.38961e-18
1.85362e-18
3.03375e-18
1.83783e-18
5.00042e-19
1.26477e-18
3.75404e-18
3.97666e-18
3.73657e-18
2.33477e-18
2.88973e-18
2.12297e-18
1.65838e-18
2.74017e-18
5.29885e-18
3.83337e-18
1.94834e-18
2.95399e-18
1.59011e-18
4.07756e-18
3.26029e-18
1.63411e-18
2.73737e-18
8.54257e-19
2.97694e-18
3.51685e-18
2.90304e-18
1.62659e-18
3.32579e-18
1.12213e-18
4.32584e-18
1.07039e-18
1.24583e-18
4.02073e-18
4.6765e-18
1.82451e-18
2.16058e-18
2.66091e-18
1.65399e-18
1.52988e-18
2.24447e-18
1.11864e-18
3.69436e-18
2.99753e-18
2.75035e-18
3.19354e-18
2.83039e-18
2.62342e-18
3.95845e-18
1.72096e-18
2.32636e-18
2.09387e-18
2.20125e-18
2.26858e-18
8.92656e-19
7.97991e-19
2.60314e-18
1.60761e-18
2.75065e-18
3.49874e-18
2.33782e-18
1.01434e-18
1.40029e-18
8.67651e-19
9.59242e-19
4.94207e-18
2.4781e-18
3.53709e-18
3.2695e-18
4.25456e-18
2.24362e-18
1.93508e-18
2.48345e-18
2.01005e-18
4.50641e-18
3.05367e-19
5.6442e-18
1.78335e-18
1.84005e-18
4.629e-18
2.43703e-18
2.55652e-18
1.59824e-18
2.56995e-18
3.89757e-18
3.1327e-18
2.80484e-18
2.34701e-18
3.96959e-18
2.32551e-18
5.80324e-18
2.84448e-18
6.69643e-18
4.85156e-18
1.32549e-18
9.8347e-19
1.11545e-18
2.41589e-18
2.56413e-18
3.48143e-18
2.72143e-18
2.86916e-18
1.31729e-18
2.2276e-18
1.89259e-18
2.85443e-18
3.50922e-18
2.3423e-18
9.41096e-19
2.21385e-18
2.35018e-18
6.99947e-18
2.50192e-18
2.19826e-18
7.48516e-18
3.43653e-18
4.92185e-18
3.60361e-18
1.72967e-18
2.8059e-18
5.84753e-18
2.4824e-18
1.50854e-18
1.99229e-18
2.02755e-18
5.28481e-18
2.95866e-18
1.55641e-18
3.8291e-18
3.2986e-18
1.50234e-18
3.61133e-18
2.40302e-18
1.36821e-18
3.44819e-18
2.88022e-18
1.86175e-18
2.2724e-18
1.86859e-18
9.03591e-19
1.08267e-18
4.59398e-18
1.3199e-18
2.77192e-18
1.85935e-18
2.22961e-18
1.66084e-18
1.43616e-18
2.64788e-18
1.39727e-18
3.37298e-18
3.05763e-18
8.07272e-19
4.62533e-18
3.13571e-18
3.3672e-18
3.53433e-18
8.56928e-18
1.5872e-18
8.64606e-18
5.20446e-18
2.66825e-18
1.41627e-18
2.80086e-18
1.20538e-18
2.55481e-18
6.38444e-18
3.44835e-18
2.28354e-18
1.00185e-18
2.27505e-18
9.0141e-19
1.32214e-18
1.41048e-18
1.24491e-18
2.60243e-18
3.87245e-18
1.89472e-18
4.07878e-18
1.82432e-18
5.51061e-18
3.50586e-18
3.02128e-18
1.31691e-18
2.67798e-18
2.07679e-18
2.81382e-18
4.00774e-18
5.02757e-19
2.90841e-18
2.45939e-18
2.03021e-18
4.775e-18
2.78288e-18
1.90781e-18
2.92134e-18
1.70214e-18
2.73087e-18
2.52551e-18
9.46024e-19
1.08475e-18
3.264e-18
3.91923e-18
2.33392e-18
6.73867e-19
6.85947e-18
4.46204e-18
2.4146e-18
1.53779e-18
2.37277e-18
3.23063e-18
1.32855e-18
3.60198e-18
1.77621e-18
1.24488e-18
1.13407e-18
2.63243e-18
1.67808e-18
1.51071e-18
1.42828e-18
2.19399e-18
2.79609e-18
2.77191e-18
2.87204e-18
3.9423e-18
4.14724e-18
2.31263e-18
1.98665e-18
1.78491e-18
1.04448e-18
2.49682e-18
1.9933e-18
1.03002e-18
1.32379e-18
3.91328e-19
3.59624e-18
5.39215e-18
1.35239e-18
9.81817e-19
3.36201e-18
2.93095e-18
4.57072e-18
5.1556e-18
1.57189e-18
1.34164e-18
8.4921e-19
1.4486e-18
1.42181e-18
7.66873e-19
3.02926e-18
3.44691e-18
1.59314e-18
2.9107e-18
2.27374e-18
1.00812e-18
2.21257e-18
3.28969e-18
2.19705e-18
8.88016e-19
1.68743e-18
2.56821e-18
4.902e-18
2.94445e-18
1.70476e-18
4.07008e-18
1.5352e-18
1.28087e-18
1.58192e-18
2.61958e-18
1.52446e-18
3.44995e-18
6.13083e-18
1.9721e-18
2.59727e-18
2.44475e-18
1.97814e-18
1.25746e-18
2.40049e-18
2.78914e-18
1.28978e-18
2.64659e-18
2.39135e-18
1.11307e-18
1.94338e-18
1.58927e-18
1.96586e-18
1.04103e-18
1.40468e-18
3.47686e-18
2.22529e-18
3.30144e-18
1.81692e-18
3.10479e-18
1.24001e-18
1.56601e-18
3.52012e-18
1.99513e-18
3.93543e-18
3.61817e-18
1.54838e-18
2.498e-18
2.11186e-18
6.31507e-18
8.10823e-19
2.47609e-18
2.69098e-18
2.085e-18
3.02778e-18
3.74004e-18
1.88786e-18
2.39249e-18
2.00796e-18
2.01988e-18
1.71471e-18
1.58774e-18
2.51168e-18
2.11837e-18
1.59942e-18
3.29793e-18
2.22862e-18
1.50345e-18
1.29587e-18
4.15866e-18
3.93166e-18
2.5607e-18
1.12338e-18
5.45556e-18
2.53531e-18
5.2981e-18
3.32645e-18
1.82182e-18
2.56593e-18
2.19763e-18
1.64924e-18
2.33639e-18
5.51114e-18
5.26289e-18
2.86615e-18
7.4883e-19
2.21821e-18
6.33672e-18
1.67796e-18
1.89244e-18
3.0444e-18
1.47388e-18
2.71039e-18
2.22408e-18
4.73543e-18
1.72478e-18
1.20713e-18
1.90204e-18
2.20557e-18
2.43541e-18
1.21887e-18
3.98421e-18
2.36357e-18
2.77524e-18
2.00021e-18
2.81142e-18
1.18176e-18
2.64892e-18
4.61997e-18
2.86966e-18
3.48487e-18
2.41329e-18
4.32911e-18
1.06779e-18
4.11137e-18
3.27361e-18
1.40311e-18
1.79568e-18
2.79709e-18
1.71759e-18
2.24832e-18
2.81295e-18
2.93101e-18
3.37472e-18
2.71095e-18
3.88301e-18
3.00592e-18
1.21943e-18
1.50636e-18
3.32861e-18
2.60685e-18
2.21916e-18
2.61511e-18
1.24108e-18
8.97871e-19
2.21483e-18
4.93957e-18
3.25173e-18
3.69402e-18
4.84195e-18
1.47747e-18
3.74092e-18
1.6476e-18
1.62989e-18
3.8327e-18
2.04915e-18
2.46597e-18
2.50621e-18
2.02414e-18
2.09954e-18
2.97536e-18
2.46229e-18
1.15242e-18
1.04376e-18
9.2071e-19
4.57676e-18
2.73973e-18
3.11389e-18
1.7362e-18
2.72292e-18
1.15012e-18
2.02581e-18
2.45538e-18
7.6289e-19
9.53851e-19
3.31551e-18
3.19622e-18
3.06462e-18
4.35639e-18
1.17415e-18
3.35043e-18
3.2433e-18
2.81475e-18
3.51391e-18
1.57009e-18
1.39551e-18
1.62557e-18
3.33269e-18
3.04291e-18
4.37457e-18
7.7073e-18
2.4823e-18
2.34758e-18
2.77043e-18
1.12734e-18
4.55951e-18
3.33192e-18
1.84223e-18
4.01327e-18
2.89503e-18
1.91717e-18
3.44337e-18
2.64701e-18
1.9717e-18
1.5213e-18
2.6268e-18
2.96151e-18
2.4919e-18
3.50089e-18
1.56108e-18
5.65474e-18
1.35002e-18
1.27539e-18
2.93241e-18
2.49057e-18
2.00316e-18
2.38276e-18
1.73762e-18
2.10132e-18
4.87734e-18
3.41259e-18
2.52355e-18
2.28974e-18
2.66117e-18
3.61323e-18
3.55435e-18
2.98854e-18
1.24267e-18
1.67491e-18
2.45631e-18
1.46873e-18
1.46338e-18
3.19894e-18
1.01265e-18
3.50194e-18
2.0252e-18
2.06297e-18
4.07417e-18
1.72387e-18
1.50944e-18
1.22205e-18
1.95438e-18
2.87353e-18
2.1404e-18
1.15245e-18
2.39537e-18
6.32153e-18
6.93389e-18
1.635e-18
4.235e-18
1.86238e-18
1.23546e-18
3.19291e-18
5.09141e-18
1.15932e-18
4.27546e-18
3.23314e-18
2.2684e-18
1.66478e-18
1.18407e-18
1.94931e-18
2.69186e-18
1.19292e-18
1.82472e-18
2.95415e-18
4.16704e-18
3.52719e-18
7.02548e-19
1.76861e-18
1.18764e-18
2.70744e-18
2.79298e-18
3.71344e-18
3.84376e-18
2.74964e-18
5.65595e-18
2.45617e-18
1.35595e-18
3.24182e-18
3.17026e-18
3.90127e-18
4.33194e-18
2.97899e-18
2.03793e-18
3.40475e-18
8.08604e-19
1.37914e-18
3.49791e-18
2.20525e-18
4.01345e-18
3.40563e-18
1.05932e-17
3.74448e-18
3.80974e-18
2.68964e-18
4.36092e-18
3.12181e-18
2.17605e-18
4.04195e-18
4.79094e-18
2.74939e-18
3.55205e-18
2.06791e-18
1.29224e-18
1.9853e-18
3.85654e-18
1.89321e-18
3.93026e-18
2.66027e-18
7.10699e-19
2.70375e-18
1.99025e-18
5.22558e-18
1.07662e-18
2.44828e-18
3.08738e-18
4.19798e-18
2.88509e-18
2.00646e-18
3.46299e-18
3.73253e-18
3.66738e-18
2.61968e-18
2.87102e-18
8.78163e-19
1.80852e-18
3.17646e-18
1.10384e-18
1.73752e-18
1.14271e-18
4.51842e-18
1.49379e-18
2.04499e-18
2.76575e-18
1.52028e-18
4.43057e-18
2.52735e-18
3.33808e-18
2.61788e-18
3.11441e-18
1.53182e-18
2.18099e-18
2.84273e-18
3.32222e-18
4.30382e-18
2.75578e-18
2.24963e-18
2.43984e-18
4.48749e-18
1.4664e-18
4.27313e-18
2.74929e-18
2.12866e-18
9.26512e-19
6.00286e-19
2.28405e-18
3.77732e-18
1.06504e-18
3.83258e-18
4.99582e-18
4.26458e-18
2.57901e-18
5.12084e-18
3.38739e-18
1.13957e-18
2.13573e-18
3.25663e-18
5.47416e-18
2.75103e-18
2.09451e-18
3.0757e-18
2.54976e-18
3.16415e-18
1.25047e-18
8.86498e-19
2.69851e-18
2.31694e-18
2.74753e-18
4.8871e-19
2.49734e-18
9.53516e-19
1.11833e-18
3.94251e-18
2.28422e-18
1.36341e-18
2.39911e-18
9.72e-19
1.1948e-18
6.63211e-19
1.60528e-18
2.81623e-18
1.30756e-18
4.28895e-18
3.39877e-18
3.9674e-18
5.32589e-18
1.35752e-18
1.67238e-18
2.05609e-18
3.39156e-18
3.15667e-18
3.5002e-18
1.58303e-18
7.40483e-19
1.57501e-18
1.6108e-18
5.46351e-19
1.70049e-18
9.82696e-19
6.1756e-18
1.54048e-18
1.9425e-18
2.26166e-18
1.99378e-18
3.81568e-18
1.5764e-18
1.81554e-18
2.6181e-18
3.95497e-18
3.93336e-18
2.23932e-18
2.57901e-18
1.28776e-18
1.69946e-18
2.57065e-18
2.42118e-18
1.83168e-18
1.9393e-18
2.5816e-18
5.99126e-18
2.6865e-18
1.25049e-18
2.71228e-18
2.74561e-18
1.45081e-18
2.79242e-18
3.05189e-18
2.08598e-18
1.49476e-18
2.50335e-18
1.70132e-18
1.20883e-18
3.56873e-18
1.28057e-18
2.70729e-18
5.79154e-18
2.80308e-18
2.17026e-18
3.86548e-18
5.92041e-18
2.89292e-18
4.98386e-18
3.47581e-18
1.47466e-18
2.42106e-18
5.94289e-18
2.47347e-18
1.85763e-18
1.38788e-18
1.52306e-18
3.09072e-18
2.7493e-18
1.81949e-18
2.08661e-18
3.64056e-18
3.94388e-18
3.4075e-18
6.94779e-18
3.24149e-18
2.23763e-18
1.23469e-18
3.44663e-18
4.71937e-18
1.60383e-18
1.57112e-18
2.20839e-18
6.36617e-19
1.16318e-18
2.16193e-18
6.17706e-19
1.60393e-18
2.08016e-18
3.89831e-18
3.38019e-18
1.61583e-18
2.0064e-18
1.34915e-18
3.78704e-18
4.23238e-18
3.68426e-18
1.75677e-18
1.21465e-18
1.4959e-18
3.01607e-18
1.44574e-18
1.27459e-18
1.42375e-18
1.63411e-18
6.9475e-18
2.81962e-18
2.61781e-18
7.18546e-18
1.52867e-18
7.47715e-18
2.22061e-18
2.81904e-18
3.8643e-18
2.2766e-18
2.57761e-18
2.58344e-18
3.35319e-18
3.79165e-18
1.36772e-18
1.59108e-18
2.61749e-18
5.47083e-18
1.16656e-18
3.02794e-18
1.73193e-18
3.09862e-18
2.1891e-18
2.30619e-18
4.81037e-18
3.35049e-18
1.382e-18
2.53806e-18
4.72845e-18
3.50161e-18
2.63098e-18
1.26982e-18
2.04731e-18
2.09764e-18
4.02935e-18
1.3592e-18
3.47071e-18
1.36617e-18
2.48484e-18
3.91861e-18
2.8071e-18
5.12278e-18
2.95733e-18
3.23162e-18
2.00257e-18
3.4869e-18
1.63858e-18
1.57244e-18
1.76289e-18
1.54331e-18
1.3765e-18
2.3189e-18
1.1039e-18
1.53633e-18
4.99955e-18
2.63243e-18
1.88583e-18
1.70383e-18
4.29308e-18
2.22976e-18
4.3133e-18
5.13528e-18
2.09271e-18
1.27931e-18
1.82463e-18
1.64439e-18
3.63695e-18
3.22794e-18
3.4217e-18
2.75833e-18
1.48153e-18
6.43527e-18
2.48608e-18
1.43746e-18
2.77466e-18
1.49326e-18
1.29648e-18
2.13549e-18
4.68494e-18
2.58115e-18
2.95432e-18
3.26178e-18
1.76336e-18
3.13672e-18
3.05786e-18
2.07503e-18
9.91267e-19
2.34581e-18
2.65015e-18
2.52492e-18
2.40959e-18
2.60099e-18
4.60651e-18
2.2529e-18
2.52535e-18
2.92323e-18
2.06313e-18
3.67879e-18
3.44915e-18
2.55609e-18
9.50221e-19
1.24985e-18
1.13087e-18
1.90857e-18
3.13131e-18
3.03668e-18
1.31191e-18
2.39796e-18
2.00739e-18
4.23012e-18
2.70583e-18
2.2676e-18
7.16349e-19
2.83129e-18
4.71694e-18
1.75324e-18
1.63563e-18
1.85602e-18
1.99898e-18
1.71678e-18
1.90481e-18
2.22295e-18
1.05693e-18
2.36011e-18
2.67203e-18
1.87746e-18
3.74494e-18
2.11053e-18
7.85719e-18
1.61907e-18
1.60087e-18
2.53658e-18
3.36508e-18
3.0512e-18
2.25492e-18
2.17204e-18
1.39549e-18
1.79154e-18
1.30823e-18
2.2461e-18
1.39323e-18
6.34138e-18
3.30521e-18
1.76992e-18
3.41386e-18
1.57875e-18
4.97665e-18
4.36842e-18
4.41662e-18
2.48092e-18
3.19179e-18
3.2906e-18
1.88853e-18
2.56731e-18
2.14549e-18
6.0688e-18
1.81716e-18
3.2589e-18
2.49578e-18
1.91671e-18
4.5995e-18
2.2096e-18
4.65328e-18
2.5539e-18
3.76832e-18
2.08267e-18
2.61189e-18
1.92183e-18
3.14415e-18
4.71547e-18
2.25098e-18
2.60848e-18
2.47634e-18
2.09161e-18
2.9801e-18
1.24644e-18
2.99927e-18
1.79139e-18
2.10513e-18
1.65032e-18
8.78557e-19
4.29995e-18
2.40864e-18
3.5952e-18
2.82687e-18
1.59245e-18
1.89941e-18
2.68758e-18
1.06241e-18
6.50897e-18
3.48877e-18
3.2683e-18
4.56999e-18
6.10582e-18
2.88413e-18
1.29744e-18
1.43087e-18
1.76175e-18
2.72486e-18
2.21971e-18
1.69283e-18
2.79432e-18
1.02842e-18
2.00145e-18
1.44223e-18
2.59628e-18
3.34957e-18
3.4868e-18
1.07095e-18
2.4165e-18
2.67958e-18
1.31851e-18
6.82039e-19
4.1321e-18
2.16906e-18
2.31418e-18
2.10095e-18
3.88798e-18
1.99731e-18
2.27679e-18
2.44856e-18
3.48483e-18
2.67935e-18
8.52057e-19
4.02756e-18
5.04927e-18
2.71822e-18
1.46259e-18
2.63554e-18
3.74443e-18
3.47075e-18
2.31403e-18
1.8736e-18
5.25665e-18
4.24618e-18
1.41267e-18
3.46563e-18
1.9384e-18
3.021e-18
3.58922e-18
2.15881e-18
2.20718e-18
2.21862e-18
3.76286e-18
1.67068e-18
5.19557e-18
3.83518e-18
1.58018e-18
1.33838e-18
1.28438e-18
4.95845e-18
5.56912e-18
4.75796e-18
2.13642e-18
6.0088e-18
2.10351e-18
2.48236e-18
2.96763e-18
5.47116e-18
8.82865e-19
2.48315e-18
3.0424e-18
3.81685e-18
2.27018e-18
7.05729e-19
2.6742e-18
1.2432e-18
6.33532e-19
2.36576e-18
2.95438e-18
2.20216e-18
3.84385e-18
3.82501e-18
1.66663e-18
3.14135e-18
1.09244e-18
2.45319e-18
7.93953e-18
5.1062e-18
2.28878e-18
1.35157e-18
1.76111e-18
1.57826e-18
1.37895e-18
1.63841e-18
2.4485e-18
3.05052e-18
7.17227e-18
3.13561e-18
2.79572e-18
1.77134e-18
2.06496e-18
1.29441e-18
2.82996e-18
3.25979e-18
2.52042e-18
1.72506e-18
2.02157e-18
1.20765e-18
2.14633e-18
1.4771e-18
5.01181e-18
7.9333e-18
1.90333e-18
1.50256e-18
1.73248e-18
3.7761e-18
3.64027e-18
1.40676e-18
3.35945e-18
1.54301e-18
4.07208e-18
2.57313e-18
2.63184e-18
8.3408e-19
2.05094e-18
1.46573e-18
5.1641e-18
3.43178e-18
3.88671e-18
1.45293e-18
2.37618e-18
4.66216e-18
3.96371e-18
1.52804e-18
1.67585e-18
2.57675e-18
1.34953e-18
1.11534e-18
2.14695e-18
1.61287e-18
3.28884e-18
4.02531e-18
1.34313e-18
2.88822e-18
3.48134e-18
1.82251e-18
1.98848e-18
3.26333e-18
1.51004e-18
1.67073e-18
1.30384e-18
1.09558e-18
2.16434e-18
3.76422e-18
3.5996e-18
8.56033e-19
1.92819e-18
4.15439e-18