/*--------------------------------*- C++ -*----------------------------------*\
  =========                 |
  \\      /  F ield         | OpenFOAM: The Open Source CFD Toolbox
   \\    /   O peration     | Website:  https://openfoam.org
    \\  /    A nd           | Version:  7
     \\/     M anipulation  |
\*---------------------------------------------------------------------------*/
FoamFile
{
    version     2.0;
    format      ascii;
    class       volScalarField;
    location    "500";
    object      k2Write;
}
// * * * * * * * * * * * * * * * * * * * * * * * * * * * * * * * * * * * * * //

dimensions      [0 2 0 0 0 0 0];

internalField   nonuniform List<scalar> 
160000
(
1.34787e-18
1.90153e-18
1.99018e-18
2.5365e-18
3.81803e-18
1.84521e-18
2.9684e-18
1.05976e-18
2.04998e-18
3.94098e-18
3.08887e-18
2.15788e-18
4.15028e-18
3.58307e-18
1.21084e-18
1.86268e-18
1.33009e-18
1.2882e-18
2.13437e-18
2.52605e-18
2.54263e-18
2.07123e-18
2.25557e-18
3.64495e-18
3.30506e-18
4.51585e-18
3.86239e-18
2.20144e-18
2.69954e-18
1.63992e-18
1.67654e-18
2.65362e-18
5.85122e-18
3.05757e-18
2.58924e-18
3.38988e-18
3.01221e-18
4.5033e-18
1.21791e-18
2.24654e-18
2.59943e-18
2.77461e-18
3.09438e-18
1.52237e-18
2.92834e-18
2.7988e-18
2.68946e-18
1.53247e-18
3.17147e-18
1.83222e-18
2.5307e-18
5.11969e-18
3.48336e-18
2.75691e-18
5.39041e-18
1.78079e-18
5.02238e-18
1.39307e-18
1.18334e-18
1.66752e-18
7.5332e-18
2.01557e-18
1.998e-18
1.58873e-18
1.1623e-18
4.64813e-18
3.21685e-18
4.13192e-18
1.0402e-18
4.58374e-19
4.46392e-18
1.29534e-18
3.81693e-18
1.90176e-18
3.31512e-18
2.54086e-18
3.29238e-18
1.99765e-18
4.17213e-18
2.41888e-18
4.53371e-18
5.93625e-18
3.32173e-18
2.64247e-18
2.54143e-18
2.09195e-18
1.98467e-18
1.25262e-18
1.97528e-18
3.65676e-18
1.32572e-18
4.60563e-18
5.2371e-18
4.21666e-18
2.9593e-18
1.4237e-18
2.5043e-18
1.79165e-18
1.89556e-18
1.21764e-18
2.3793e-18
9.08528e-19
3.9051e-18
1.9496e-18
1.10562e-18
3.01557e-18
1.1099e-18
2.70918e-18
3.11967e-18
2.77013e-18
3.78675e-18
1.14519e-18
5.06453e-18
2.13579e-18
2.00048e-18
2.8781e-18
1.61205e-18
2.19986e-18
4.05332e-18
2.60856e-18
1.95422e-18
1.24759e-18
2.72863e-18
2.97737e-18
3.94032e-18
8.05625e-18
5.09314e-18
2.05298e-18
3.57795e-18
3.28078e-18
2.36853e-18
2.24261e-18
3.97904e-18
7.01796e-18
3.04966e-18
2.89156e-18
1.68203e-18
2.22084e-18
1.56131e-18
1.18635e-18
3.8405e-18
4.32069e-18
7.41859e-19
2.67513e-18
4.6121e-18
2.17471e-18
3.12631e-18
2.93061e-18
2.5859e-18
1.61988e-18
1.13539e-18
2.08247e-18
1.35102e-18
3.50486e-18
1.00822e-18
2.47765e-18
2.37807e-18
4.8386e-18
3.09459e-18
4.25728e-18
2.16138e-18
2.48539e-18
1.52887e-18
3.93841e-18
1.09519e-18
3.71015e-18
3.08046e-18
1.65821e-18
2.30146e-18
1.33169e-18
3.91008e-18
4.44059e-18
1.89396e-18
8.99308e-18
3.26209e-18
1.85729e-18
2.48232e-18
2.5802e-18
6.62626e-18
4.57621e-18
1.09425e-18
4.82716e-18
1.82555e-18
1.49526e-18
1.54723e-18
1.47143e-18
1.61589e-18
1.50023e-18
1.17511e-18
2.341e-18
2.54621e-18
1.66623e-18
2.7659e-18
3.49289e-18
4.86226e-18
7.12606e-19
2.5681e-18
4.283e-18
3.29111e-18
5.11028e-18
4.58289e-18
2.82487e-18
3.51425e-18
2.88781e-18
2.675e-18
2.74745e-18
1.20715e-18
2.60671e-18
2.99363e-18
2.14089e-18
3.45236e-18
3.87422e-18
1.77927e-18
2.32319e-18
4.46014e-18
2.34007e-18
1.55081e-18
5.24952e-18
4.93373e-18
3.29e-18
6.89924e-18
3.4719e-18
2.04514e-18
2.48245e-18
2.16334e-18
1.93036e-18
2.59002e-18
9.35174e-19
2.6788e-18
1.49502e-18
5.7316e-19
2.36107e-18
1.3316e-18
1.85666e-18
1.78917e-18
2.89468e-18
1.18957e-18
2.51621e-18
1.18652e-18
2.71177e-18
1.89399e-18
1.80016e-18
2.4434e-18
1.28198e-18
2.67578e-18
2.57859e-18
2.83377e-18
1.93617e-18
4.79124e-18
2.27335e-18
4.28182e-18
2.99452e-18
1.32271e-18
1.13304e-18
1.45662e-18
2.88423e-18
1.72393e-18
1.30008e-18
2.2896e-18
6.38341e-18
5.71308e-18
3.07335e-18
2.70726e-18
1.45708e-18
2.28905e-18
2.16021e-18
2.95504e-18
2.41362e-18
3.10688e-18
4.70324e-18
1.13642e-18
1.76575e-18
1.95416e-18
2.04044e-18
2.54776e-18
2.20157e-18
2.77801e-18
3.22497e-18
1.18486e-18
2.48664e-18
1.6984e-18
2.22885e-18
2.16887e-18
2.0616e-18
1.70348e-18
1.36053e-18
4.13842e-18
1.85213e-18
7.38055e-18
5.53418e-18
3.73629e-18
8.62088e-19
1.84449e-18
1.76513e-18
3.0859e-18
4.12258e-18
3.23259e-18
7.76923e-19
3.20736e-18
1.20735e-18
1.91137e-18
1.8053e-18
4.3153e-18
3.52568e-18
3.33024e-18
1.94632e-18
3.33052e-18
2.16285e-18
1.72838e-18
4.69908e-18
2.76391e-18
1.9803e-18
2.76219e-18
2.97063e-18
1.00271e-18
2.82853e-18
3.64018e-18
2.40346e-18
3.43801e-18
3.18286e-18
1.52e-18
2.67256e-18
2.3652e-18
3.66793e-18
1.82813e-18
3.01398e-18
4.19878e-18
2.69808e-18
2.00168e-18
2.68163e-18
1.39781e-18
2.09752e-18
1.71207e-18
2.79816e-18
2.39316e-18
3.02698e-18
4.1528e-18
4.43649e-18
8.75193e-18
2.11667e-18
1.06198e-18
2.20009e-18
2.30167e-18
1.24214e-18
3.86987e-18
8.06021e-19
1.22029e-18
2.1181e-18
2.0403e-18
3.59132e-18
3.44935e-18
2.43968e-18
4.91135e-18
1.74092e-18
2.35567e-18
2.27553e-18
3.38999e-18
2.20004e-18
2.10824e-18
1.56265e-18
2.02753e-18
2.1256e-18
2.96765e-18
1.81919e-18
3.52083e-18
2.99702e-18
1.89986e-18
9.36949e-18
3.51649e-18
1.79328e-18
1.45307e-18
2.51848e-18
2.6086e-18
8.89484e-18
1.52121e-18
6.21928e-18
2.0196e-18
2.07335e-18
1.35456e-18
1.5875e-18
1.72948e-18
1.75654e-18
1.7357e-18
2.7371e-18
3.36598e-18
3.62064e-18
4.278e-18
3.85122e-18
2.63051e-18
2.0345e-18
2.68651e-18
1.99766e-18
3.2711e-18
2.43167e-18
1.3979e-18
4.89446e-18
3.06413e-18
9.3491e-19
7.36472e-18
4.54748e-18
5.70694e-18
1.39215e-18
1.69409e-18
1.77579e-18
1.52796e-18
1.95664e-18
3.2447e-18
2.32968e-18
2.24456e-18
2.58343e-18
3.37432e-18
1.74795e-18
2.11233e-18
2.5477e-18
3.79229e-18
1.48195e-18
1.79328e-18
6.2253e-18
5.05359e-18
3.51428e-18
1.99777e-18
2.20231e-18
3.22321e-18
3.08032e-18
1.2493e-18
2.0758e-18
6.17182e-18
5.30201e-18
2.56325e-18
4.0984e-18
2.98557e-18
1.94279e-18
2.48355e-18
1.89292e-18
1.43684e-18
3.38152e-18
4.83932e-18
4.58635e-19
2.85638e-18
5.82014e-18
2.95451e-18
1.91968e-18
3.84515e-18
1.23018e-18
2.94452e-18
4.69338e-18
2.45029e-18
1.29155e-18
3.00971e-18
4.94398e-18
2.07738e-18
2.53369e-18
1.67095e-18
6.08748e-18
9.6209e-19
2.45042e-18
3.14869e-18
1.58601e-18
2.09766e-18
2.15859e-18
2.28679e-18
2.9409e-18
1.63643e-18
1.45677e-18
2.60589e-18
2.2539e-18
1.22041e-18
4.24415e-18
3.67026e-18
5.8007e-18
5.1181e-18
3.25683e-18
1.26154e-18
2.2932e-18
1.9753e-18
3.25938e-18
1.94949e-18
2.10887e-18
1.82739e-18
4.23571e-18
3.24465e-18
2.43166e-18
2.60929e-18
2.5944e-18
6.50407e-18
6.00459e-18
1.52702e-18
1.95399e-18
2.19113e-18
3.35727e-18
4.24112e-18
2.89277e-18
6.80345e-18
4.08209e-18
1.7096e-18
3.38153e-18
2.43476e-18
3.43685e-18
2.9258e-18
1.5325e-18
3.57052e-18
2.35204e-18
1.18523e-18
6.27916e-18
2.48904e-18
1.38591e-18
3.29331e-18
4.31592e-18
2.74989e-18
3.35453e-18
2.68983e-18
1.15922e-18
1.77359e-18
1.56994e-18
2.24121e-18
2.56627e-18
2.47036e-18
2.71174e-18
2.75144e-18
5.27653e-18
4.77553e-18
2.05467e-18
2.37031e-18
2.26634e-18
2.0733e-18
2.71449e-18
2.50854e-18
1.58625e-18
3.04468e-18
1.78938e-18
2.00073e-18
6.62877e-19
8.15308e-18
5.51074e-18
3.34363e-18
1.23526e-18
9.95821e-18
1.46808e-18
1.24386e-18
1.956e-18
3.08122e-18
4.05002e-18
3.04304e-18
3.50106e-18
3.64223e-18
1.32821e-18
2.91623e-18
1.90202e-18
1.99233e-18
1.31644e-18
6.51201e-18
1.04642e-18
1.59708e-18
2.39768e-18
2.05475e-18
3.51334e-18
1.66528e-18
3.59753e-18
1.50407e-18
4.32393e-18
3.15353e-18
4.46479e-18
2.45615e-18
2.11271e-18
1.78776e-18
3.38698e-18
5.49938e-18
2.26201e-18
3.09233e-18
1.85044e-18
1.63562e-18
1.78082e-18
8.04589e-19
8.22182e-18
1.76136e-18
3.85434e-18
2.83477e-18
1.77806e-18
3.08194e-18
2.09904e-18
1.71396e-18
2.79816e-18
1.80919e-18
1.05334e-18
3.9377e-18
2.3093e-18
2.56156e-18
1.21727e-18
1.94184e-18
3.91792e-18
3.65277e-18
2.71764e-18
1.88105e-18
5.40355e-18
2.50929e-18
4.30728e-18
3.23238e-18
4.17769e-18
3.6292e-18
3.22133e-18
4.58368e-18
2.12306e-18
2.6293e-18
3.96586e-18
9.9441e-18
4.58407e-18
2.03136e-18
2.66286e-18
2.21556e-18
3.98499e-18
1.40753e-18
1.90996e-18
3.39618e-18
2.02748e-18
1.43846e-18
3.30102e-18
2.32838e-18
2.98628e-18
3.13089e-18
1.4511e-18
2.11792e-18
9.52188e-19
4.03665e-18
2.14706e-18
4.90054e-18
3.21342e-18
4.79037e-18
1.49865e-18
3.1721e-18
1.80553e-18
2.25953e-18
2.07619e-18
6.943e-18
4.46508e-18
1.19905e-18
1.97826e-18
2.13687e-18
2.63339e-18
1.28027e-18
2.31788e-18
1.23374e-18
1.78888e-18
4.90277e-18
3.07308e-18
9.40812e-19
5.18768e-18
3.49025e-18
2.69228e-18
3.63885e-18
4.88205e-18
3.28948e-18
5.49059e-18
6.46547e-18
1.53884e-18
2.23337e-18
3.5598e-18
1.35545e-18
3.67209e-18
2.86434e-18
3.63104e-18
9.71145e-19
3.43799e-18
2.87657e-18
2.93356e-18
5.45093e-18
3.33998e-18
6.44328e-19
3.46702e-18
5.92954e-18
3.03483e-18
1.67619e-18
4.43281e-18
2.22898e-18
1.20159e-18
2.71059e-18
2.63029e-18
5.51777e-18
2.38078e-18
1.39506e-18
1.99248e-18
2.80471e-18
2.35295e-18
3.32202e-18
4.4482e-18
3.12881e-18
2.24299e-18
1.7872e-18
1.65256e-18
2.32706e-18
3.74991e-18
1.94213e-18
3.39744e-18
3.54259e-18
3.56532e-18
6.76937e-19
2.98212e-18
3.28636e-18
2.09212e-18
2.06107e-18
4.2036e-18
1.57811e-18
4.2324e-18
2.09027e-18
2.09922e-18
2.00062e-18
1.48399e-18
2.06446e-18
2.84356e-18
1.20485e-18
3.33508e-18
1.72088e-18
2.4419e-18
3.62914e-18
3.67233e-18
3.51235e-18
1.32613e-18
8.75109e-19
2.00236e-18
2.79728e-18
2.52563e-18
2.61433e-18
1.704e-18
4.03193e-18
7.64349e-18
2.91208e-18
2.71137e-18
6.65537e-18
7.72951e-18
1.75812e-18
2.85518e-18
4.01742e-18
1.59578e-18
1.53327e-18
4.36016e-18
2.40949e-18
2.05413e-18
3.74324e-18
4.00474e-18
2.33959e-18
2.33777e-18
2.54289e-18
4.03378e-18
2.18522e-18
2.19194e-18
1.92984e-18
2.92333e-18
1.30094e-18
1.83728e-18
1.78401e-18
2.69995e-18
1.2609e-18
2.64049e-18
2.28891e-18
4.68758e-18
1.59039e-18
1.91126e-18
2.135e-18
1.77511e-18
1.46877e-18
1.83222e-18
2.04204e-18
3.0281e-18
2.26655e-18
2.20026e-18
4.63334e-18
2.63296e-18
4.63479e-18
4.73317e-18
1.85276e-18
1.86914e-18
1.68807e-18
9.83041e-19
1.91058e-18
1.38118e-18
2.88821e-18
1.20664e-18
2.882e-18
3.61112e-18
1.69162e-18
2.38806e-18
3.99224e-18
7.88768e-19
6.98354e-18
2.02935e-18
1.08647e-18
4.19495e-18
2.19057e-18
1.74259e-18
2.50808e-18
4.26087e-18
1.75594e-18
2.84435e-18
4.16934e-18
2.09697e-18
1.58505e-18
4.73744e-18
1.03975e-18
2.56002e-18
1.36932e-18
4.12451e-18
1.01585e-18
8.00719e-19
2.32809e-18
8.91321e-19
3.61521e-18
1.09965e-18
2.12361e-18
3.62143e-18
1.43672e-18
3.69344e-18
6.02423e-18
3.2374e-18
1.96114e-18
3.69885e-18
6.2208e-18
3.05692e-18
6.82846e-18
4.41563e-18
1.90659e-18
3.70473e-18
2.19807e-18
2.64302e-18
1.65997e-18
1.21074e-18
1.29238e-18
1.8348e-18
2.25441e-18
2.41784e-18
6.29084e-18
2.51118e-18
2.08642e-18
3.09158e-18
3.00267e-18
3.53475e-18
1.28129e-18
1.77741e-18
2.30477e-18
1.59639e-18
1.58782e-18
2.00504e-18
2.61708e-18
2.51725e-18
2.52479e-18
2.13657e-18
7.49725e-18
1.70937e-18
1.34864e-18
1.3847e-18
2.97526e-18
6.08305e-18
2.57637e-18
1.53043e-18
1.57484e-18
1.88694e-18
2.57989e-18
2.63751e-18
5.26758e-18
4.45968e-18
7.41944e-18
1.7934e-18
2.01747e-18
2.1187e-18
4.20207e-18
1.28915e-18
1.67805e-18
4.18747e-18
1.35059e-18
1.37235e-18
7.90975e-19
2.25621e-18
8.07143e-19
3.87745e-18
2.75281e-18
9.41764e-19
1.52268e-18
2.52761e-18
2.51012e-18
3.50627e-18
5.65279e-18
2.38039e-18
3.62656e-18
3.82946e-18
4.27948e-18
1.57917e-18
3.21988e-18
1.75491e-18
3.78664e-18
3.62031e-18
1.55959e-18
1.20321e-18
3.46938e-18
1.57664e-18
1.0108e-18
2.47204e-18
9.34553e-19
8.77577e-19
1.89507e-18
2.13267e-18
2.42588e-18
1.65566e-18
1.51521e-18
3.43739e-18
1.60219e-18
2.66843e-18
4.12791e-18
2.2505e-18
2.14982e-18
1.22202e-18
2.31034e-18
3.71318e-18
1.89598e-18
2.53494e-18
1.60619e-18
1.05613e-18
2.70851e-18
1.67126e-18
2.37754e-18
2.63134e-18
2.14614e-18
1.97741e-18
1.37849e-18
1.56121e-18
1.94983e-18
1.52686e-18
1.36359e-18
1.54801e-18
1.21954e-18
2.31073e-18
2.11662e-18
1.28016e-18
2.46261e-18
4.48101e-18
3.59197e-18
2.30382e-18
2.74145e-18
1.87457e-18
2.7865e-18
3.26828e-18
1.90484e-18
2.04554e-18
3.58951e-18
1.0795e-17
2.71897e-18
3.32755e-18
5.4059e-18
2.04401e-18
1.98122e-18
2.26834e-18
2.20111e-18
1.64982e-18
3.8741e-18
1.74402e-18
2.45372e-18
7.51341e-18
4.82791e-18
1.21803e-18
3.1468e-18
2.03247e-18
2.09267e-18
1.96273e-18
1.17593e-18
2.91633e-18
1.84663e-18
2.12758e-18
2.17396e-18
2.60601e-18
2.95874e-18
2.21883e-18
3.16783e-18
3.66428e-18
2.72822e-18
3.95883e-18
2.3881e-18
1.21531e-18
7.00643e-19
3.18189e-18
4.04763e-18
2.99415e-18
1.6117e-18
2.62387e-18
1.42062e-18
1.08906e-18
2.13712e-18
3.00489e-18
2.05331e-18
2.73794e-18
2.39674e-18
3.09981e-18
3.07788e-18
5.42042e-18
2.54259e-18
2.22996e-18
2.6644e-18
2.77352e-18
3.03154e-18
6.00898e-18
2.02254e-18
2.9289e-18
3.26693e-18
1.57377e-18
3.10555e-18
3.33034e-18
2.96429e-18
2.77874e-18
1.5273e-18
2.98551e-18
8.26523e-19
4.72958e-18
1.7866e-18
1.12663e-18
1.75528e-18
3.24414e-18
1.91459e-18
1.0432e-18
2.41415e-18
2.1589e-18
2.75511e-18
1.53568e-18
1.49764e-18
2.08098e-18
3.22746e-18
2.43022e-18
2.20591e-18
3.52396e-18
2.51969e-18
3.6194e-18
1.64548e-18
3.60968e-18
4.69226e-18
1.41172e-18
1.26689e-18
2.16263e-18
3.77474e-18
1.52096e-18
5.53844e-18
2.8424e-18
1.09138e-18
1.3619e-18
1.84285e-18
4.36781e-18
3.83507e-18
3.19421e-18
6.88811e-18
3.10295e-18
4.56335e-18
1.77163e-18
4.99876e-18
2.15806e-18
1.38973e-18
2.52188e-18
2.5342e-18
2.69916e-18
2.86722e-18
1.8224e-18
2.18055e-18
2.27258e-18
1.45421e-18
2.34296e-18
1.78971e-18
1.36105e-18
2.5828e-18
3.42211e-18
1.65648e-18
3.69264e-18
2.88821e-18
4.34032e-18
3.4677e-18
2.91811e-18
1.25431e-18
1.18607e-18
1.38733e-18
2.91781e-18
2.47184e-18
3.03475e-18
4.84873e-18
2.1042e-18
7.29892e-18
2.80208e-18
1.35427e-18
4.60258e-18
1.56205e-18
6.30532e-18
1.52268e-18
2.08125e-18
9.58551e-19
3.95161e-18
1.60596e-18
2.36377e-18
2.15014e-18
3.0038e-18
7.43408e-18
3.01777e-18
2.42632e-18
3.37838e-18
3.70102e-18
5.66041e-18
3.17379e-18
1.59239e-18
5.99081e-18
2.16452e-18
2.86918e-18
1.23214e-18
1.99533e-18
2.99739e-18
4.04649e-18
3.18815e-18
2.42234e-18
1.35278e-18
2.7592e-18
3.2703e-18
1.79819e-18
2.50852e-18
2.29295e-18
2.03183e-18
8.23135e-19
1.68845e-18
3.05466e-18
2.14284e-18
2.06008e-18
2.44916e-18
3.33222e-18
3.8841e-18
4.20521e-18
3.13959e-18
1.58833e-18
3.27086e-18
1.96116e-18
2.07016e-18
1.86369e-18
2.10829e-18
4.41662e-18
2.88569e-18
8.9011e-19
3.52095e-18
1.05251e-18
1.73044e-18
3.02707e-18
2.63668e-18
2.42048e-18
2.83045e-18
1.83584e-18
1.81515e-18
5.20636e-18
2.80203e-18
1.46655e-18
3.36072e-18
3.66871e-18
1.57313e-18
7.723e-19
1.60653e-18
3.26932e-18
1.95741e-18
7.16382e-18
2.69646e-18
1.62235e-18
2.976e-18
4.39417e-18
3.66316e-18
1.24017e-18
7.71143e-19
2.02648e-18
2.91058e-18
4.71837e-18
3.32181e-18
2.67035e-18
7.67437e-19
2.53703e-18
2.56982e-18
1.76532e-18
3.29149e-18
3.70915e-18
3.55496e-18
3.08875e-18
3.67729e-18
3.36848e-18
2.55405e-18
2.2599e-18
1.72585e-18
2.08003e-18
3.12258e-18
1.30108e-18
2.12286e-18
2.70515e-18
3.13124e-18
1.81588e-18
1.38578e-18
3.27002e-18
2.98538e-18
3.6031e-18
2.40465e-18
1.4228e-18
3.65928e-18
3.23214e-18
2.3251e-18
3.73909e-18
2.63287e-18
1.27612e-18
3.10223e-18
3.01846e-18
2.04009e-18
4.61139e-18
4.429e-18
4.80039e-18
5.19508e-18
5.49009e-18
4.7564e-18
3.13258e-18
5.57804e-18
3.38382e-18
4.64837e-18
1.9422e-18
2.26482e-18
2.55028e-18
1.87145e-18
5.80605e-18
3.41426e-18
4.94555e-18
4.05281e-18
3.00143e-18
3.23254e-18
1.49668e-18
6.47617e-18
1.45682e-18
2.80515e-18
6.03518e-18
1.28089e-18
1.8878e-18
3.3329e-18
1.81528e-18
5.81265e-19
1.39085e-18
1.78259e-18
2.70754e-18
3.41275e-18
3.993e-18
2.84396e-18
3.82533e-18
7.77983e-19
2.15629e-18
5.89465e-18
6.06607e-18
3.40178e-18
2.85634e-18
2.98719e-18
3.83141e-18
2.60642e-18
2.93668e-18
1.88247e-18
2.5441e-18
1.60564e-18
5.38545e-18
3.4169e-18
8.66655e-19
3.65563e-18
2.41883e-18
1.80303e-18
1.57746e-18
2.38285e-18
1.83012e-18
3.93616e-18
2.30436e-18
5.81981e-18
2.05292e-18
1.6987e-18
2.06008e-18
2.45455e-18
2.35901e-18
1.84811e-18
2.95799e-18
3.92151e-18
9.59239e-19
1.38566e-18
1.72236e-18
3.60994e-18
5.85306e-18
3.81525e-18
1.42054e-18
4.28216e-18
2.06578e-18
7.09046e-19
5.48046e-18
2.92324e-18
2.61638e-18
1.85309e-18
5.32544e-18
4.30499e-18
4.00975e-18
5.49665e-18
2.02421e-18
6.53041e-18
1.25e-18
4.50153e-18
2.03008e-18
2.33944e-18
1.58041e-18
4.75856e-18
1.09428e-18
1.60541e-18
2.87879e-18
6.09637e-18
1.85809e-18
2.96304e-18
4.06986e-18
2.50667e-18
4.1459e-18
4.21946e-18
2.78186e-18
2.20933e-18
2.382e-18
2.56813e-18
1.43364e-18
4.59039e-18
2.09444e-18
1.52501e-18
1.84897e-18
2.91683e-18
2.88671e-18
4.17054e-18
3.30428e-18
1.59635e-18
2.06253e-18
1.86593e-18
3.19918e-18
8.00646e-19
4.28584e-18
2.77074e-18
3.63976e-18
1.612e-18
1.73756e-18
2.55804e-18
1.79569e-18
3.58103e-18
1.65287e-18
2.96463e-18
2.66926e-18
1.18462e-18
3.89934e-18
2.45105e-18
2.01961e-18
2.11588e-18
3.35155e-18
6.44238e-19
3.17758e-18
3.50142e-18
3.62376e-18
4.74761e-18
2.11753e-18
1.85894e-18
1.35568e-18
5.93961e-18
1.57743e-18
2.90783e-18
1.17819e-18
1.38461e-18
2.35336e-18
1.92838e-18
4.48055e-18
3.08457e-18
1.72503e-18
3.6051e-18
2.33118e-18
2.25194e-18
2.47395e-18
2.28179e-18
1.45747e-18
2.65485e-18
2.96904e-18
3.78617e-18
5.67074e-18
7.40798e-18
3.48259e-18
1.847e-18
3.31059e-18
3.8404e-18
2.02281e-18
3.13803e-18
2.85416e-18
1.38597e-18
1.75854e-18
2.90967e-18
2.00458e-18
5.62217e-19
1.12232e-18
3.33049e-18
3.52721e-18
3.31355e-18
2.10884e-18
2.63544e-18
2.44279e-18
1.92357e-18
2.37813e-18
4.598e-18
3.32582e-18
2.11609e-18
3.20763e-18
1.72636e-18
4.06251e-18
3.44103e-18
1.74751e-18
2.87758e-18
9.21373e-19
2.62657e-18
3.19037e-18
2.85589e-18
1.65944e-18
3.43695e-18
1.22805e-18
4.73329e-18
1.17103e-18
1.10317e-18
3.56019e-18
4.14048e-18
1.7488e-18
2.06218e-18
2.5583e-18
1.58998e-18
1.36295e-18
2.20504e-18
1.33647e-18
4.49599e-18
3.84679e-18
3.52921e-18
3.7097e-18
2.8786e-18
2.22177e-18
3.34517e-18
1.71597e-18
2.13347e-18
2.07464e-18
2.11894e-18
2.51512e-18
9.94523e-19
7.5545e-19
2.56275e-18
1.28231e-18
2.19404e-18
2.79047e-18
2.55742e-18
1.22558e-18
1.69183e-18
1.04824e-18
9.28754e-19
4.78523e-18
2.4686e-18
2.82675e-18
2.52246e-18
3.28226e-18
2.23014e-18
1.92703e-18
2.3184e-18
1.72326e-18
3.86342e-18
3.56918e-19
6.16577e-18
1.94845e-18
1.83417e-18
4.61395e-18
2.42897e-18
2.37872e-18
1.50782e-18
2.17212e-18
3.29409e-18
2.99635e-18
2.8988e-18
2.34511e-18
4.07359e-18
2.13573e-18
4.66449e-18
2.28682e-18
6.89095e-18
4.99272e-18
1.36393e-18
1.01198e-18
1.05928e-18
2.19064e-18
2.325e-18
3.25673e-18
2.72723e-18
3.13554e-18
1.43956e-18
2.10748e-18
1.80455e-18
2.96806e-18
4.07772e-18
2.72172e-18
9.80647e-19
1.87277e-18
1.98819e-18
6.39944e-18
2.28751e-18
1.82837e-18
5.89806e-18
3.61693e-18
5.44875e-18
3.98952e-18
1.91497e-18
2.44793e-18
5.10115e-18
2.96363e-18
1.74179e-18
1.99828e-18
1.5529e-18
4.04763e-18
2.82272e-18
1.5143e-18
3.7254e-18
3.26198e-18
1.61597e-18
3.47813e-18
2.31471e-18
1.29452e-18
3.19024e-18
3.01567e-18
2.09642e-18
2.55818e-18
2.10405e-18
1.01721e-18
9.93297e-19
4.97208e-18
1.4285e-18
2.96321e-18
1.98772e-18
2.20777e-18
1.64458e-18
1.38393e-18
2.52679e-18
1.29592e-18
3.03281e-18
2.74936e-18
7.90054e-19
3.92899e-18
2.66766e-18
2.98496e-18
2.92687e-18
7.09586e-18
1.4924e-18
7.33164e-18
5.11489e-18
2.88454e-18
1.53101e-18
3.02775e-18
1.30301e-18
2.01956e-18
5.04692e-18
2.72588e-18
2.44691e-18
1.10756e-18
2.38772e-18
9.74985e-19
1.37905e-18
1.47125e-18
1.12033e-18
2.17644e-18
3.23857e-18
1.63263e-18
4.26887e-18
2.12625e-18
5.4164e-18
3.44601e-18
2.99844e-18
1.48058e-18
2.96265e-18
2.52208e-18
2.90009e-18
4.13114e-18
5.71087e-19
2.19287e-18
1.74104e-18
1.89157e-18
5.29594e-18
3.08734e-18
1.95214e-18
2.98929e-18
2.0105e-18
3.22543e-18
2.98285e-18
1.11733e-18
1.06428e-18
3.46275e-18
4.51236e-18
2.68708e-18
7.07068e-19
6.29689e-18
4.09614e-18
2.49537e-18
1.5892e-18
2.22789e-18
3.29591e-18
1.41489e-18
4.05406e-18
1.99911e-18
1.36921e-18
1.07957e-18
2.52988e-18
1.95652e-18
1.76309e-18
1.50403e-18
1.97838e-18
3.04853e-18
4.15821e-18
3.4313e-18
3.15237e-18
5.06826e-18
2.47609e-18
2.2358e-18
2.21976e-18
1.3976e-18
3.32938e-18
2.75942e-18
1.44787e-18
1.68732e-18
4.9691e-19
4.91016e-18
7.6882e-18
1.92185e-18
1.1409e-18
3.89435e-18
3.38474e-18
5.26179e-18
7.00945e-18
2.13047e-18
1.66568e-18
1.04945e-18
1.89188e-18
1.85174e-18
8.83437e-19
3.21109e-18
5.5717e-18
2.56819e-18
4.01887e-18
3.13108e-18
1.38469e-18
2.35464e-18
4.66161e-18
2.39294e-18
9.34908e-19
1.85734e-18
2.76088e-18
5.53781e-18
3.31843e-18
1.81308e-18
4.36366e-18
2.00444e-18
1.50351e-18
1.59338e-18
2.63296e-18
1.71722e-18
3.97818e-18
7.94392e-18
2.55003e-18
3.04993e-18
2.95694e-18
2.44414e-18
1.55076e-18
2.50244e-18
2.90216e-18
1.43034e-18
2.98843e-18
2.69537e-18
1.25239e-18
2.15193e-18
1.82432e-18
2.21764e-18
1.28641e-18
1.73294e-18
4.09765e-18
2.73633e-18
3.27215e-18
1.53897e-18
2.62542e-18
1.52351e-18
1.58903e-18
3.58005e-18
2.39203e-18
4.22578e-18
4.77222e-18
2.03948e-18
3.04585e-18
2.60957e-18
7.79279e-18
9.99239e-19
2.0665e-18
2.24333e-18
1.78382e-18
2.80929e-18
4.05021e-18
2.04201e-18
2.57821e-18
2.38946e-18
2.54856e-18
2.17067e-18
1.65784e-18
2.48424e-18
2.14695e-18
1.65197e-18
3.4084e-18
2.83726e-18
1.9122e-18
1.64664e-18
4.88451e-18
4.6141e-18
2.39106e-18
8.91771e-19
4.3276e-18
2.03343e-18
5.26038e-18
4.1084e-18
2.24822e-18
2.9058e-18
2.4747e-18
1.75431e-18
2.2505e-18
5.30455e-18
5.67529e-18
3.27348e-18
8.54672e-19
2.39053e-18
7.60806e-18
2.0132e-18
2.06718e-18
3.35073e-18
1.63426e-18
2.56254e-18
2.10148e-18
5.53931e-18
2.01627e-18
1.26116e-18
1.68007e-18
1.94716e-18
2.30386e-18
1.51833e-18
4.95934e-18
2.9404e-18
3.45063e-18
1.61395e-18
2.57911e-18
1.20245e-18
2.68485e-18
4.6802e-18
2.9056e-18
3.85907e-18
2.74913e-18
4.92987e-18
1.21532e-18
4.46173e-18
3.70678e-18
1.58811e-18
1.75744e-18
2.96471e-18
1.92565e-18
2.1997e-18
2.74181e-18
3.22441e-18
3.872e-18
3.10844e-18
4.45207e-18
3.44431e-18
1.39697e-18
1.51321e-18
3.22015e-18
2.97798e-18
2.99137e-18
3.52478e-18
1.672e-18
1.20947e-18
2.90412e-18
6.47471e-18
2.50081e-18
2.68232e-18
4.07547e-18
1.71143e-18
4.4408e-18
1.9554e-18
1.51735e-18
3.56742e-18
2.02703e-18
2.43938e-18
2.67684e-18
2.16156e-18
2.06259e-18
2.92253e-18
2.86004e-18
1.43424e-18
1.29875e-18
9.5446e-19
4.05876e-18
2.47186e-18
2.90133e-18
2.13126e-18
3.49679e-18
1.47678e-18
1.98929e-18
2.38122e-18
8.8381e-19
9.50595e-19
3.30377e-18
3.18395e-18
3.05287e-18
4.73094e-18
1.31637e-18
3.67038e-18
2.86113e-18
2.48315e-18
3.6595e-18
1.94454e-18
1.72808e-18
1.87714e-18
3.01951e-18
2.65015e-18
3.80975e-18
8.33185e-18
2.68319e-18
2.45606e-18
2.89835e-18
1.08536e-18
4.06239e-18
2.9684e-18
1.65221e-18
3.59925e-18
2.78325e-18
1.82298e-18
3.11446e-18
2.89234e-18
2.15416e-18
1.60048e-18
2.58579e-18
2.95285e-18
2.12807e-18
2.79686e-18
1.24702e-18
6.30144e-18
1.50414e-18
1.20739e-18
3.03728e-18
1.98669e-18
1.59774e-18
2.09238e-18
1.8434e-18
2.09951e-18
4.8729e-18
3.40935e-18
2.5587e-18
2.32151e-18
2.58338e-18
3.51976e-18
3.79811e-18
3.46117e-18
1.46473e-18
1.62875e-18
2.38866e-18
1.42803e-18
1.31395e-18
3.5106e-18
1.11135e-18
3.64433e-18
2.10771e-18
2.05632e-18
4.50092e-18
2.27837e-18
1.99486e-18
1.39457e-18
1.77101e-18
2.604e-18
2.40417e-18
1.48109e-18
3.06692e-18
8.45112e-18
6.3445e-18
1.19931e-18
3.10663e-18
1.47434e-18
1.04715e-18
2.70633e-18
4.43573e-18
1.19471e-18
3.60142e-18
2.72362e-18
1.97364e-18
1.80414e-18
1.29398e-18
1.80908e-18
2.70759e-18
1.24039e-18
1.87844e-18
3.0413e-18
5.03303e-18
4.26161e-18
8.48804e-19
1.61586e-18
1.00948e-18
2.1334e-18
2.20071e-18
3.0869e-18
3.91216e-18
2.88839e-18
6.72667e-18
2.9209e-18
1.58965e-18
3.91914e-18
3.83228e-18
4.71509e-18
3.31788e-18
2.28158e-18
1.56083e-18
2.98342e-18
8.50769e-19
1.36388e-18
3.45939e-18
2.18688e-18
3.88727e-18
3.15087e-18
9.80074e-18
3.67453e-18
3.66212e-18
2.46608e-18
3.87707e-18
3.48493e-18
2.4288e-18
4.02525e-18
4.77114e-18
2.738e-18
3.56838e-18
2.33157e-18
1.457e-18
1.89462e-18
3.68028e-18
2.05651e-18
4.26906e-18
2.88953e-18
7.71933e-19
2.86591e-18
2.52625e-18
6.63342e-18
1.36667e-18
1.94215e-18
2.37925e-18
3.54729e-18
3.04959e-18
2.12082e-18
3.16513e-18
3.41158e-18
3.4972e-18
2.75366e-18
3.01751e-18
9.23062e-19
1.74217e-18
3.06023e-18
1.11413e-18
1.7399e-18
1.1443e-18
4.52329e-18
1.49583e-18
1.71025e-18
2.31303e-18
1.33115e-18
3.93327e-18
2.90956e-18
3.57147e-18
2.82085e-18
3.65209e-18
1.79629e-18
2.31011e-18
3.48323e-18
4.31572e-18
5.59029e-18
3.57923e-18
2.9216e-18
1.67072e-18
3.07239e-18
1.291e-18
3.57799e-18
2.99569e-18
2.54898e-18
1.10944e-18
6.70877e-19
2.15538e-18
3.56446e-18
1.00499e-18
3.5337e-18
4.60745e-18
3.93233e-18
2.5948e-18
5.2648e-18
3.54061e-18
1.1911e-18
1.92249e-18
3.01953e-18
6.34378e-18
3.18791e-18
2.1701e-18
2.66512e-18
2.30111e-18
3.45939e-18
1.36712e-18
8.83869e-19
2.23563e-18
1.91957e-18
2.47766e-18
6.12918e-19
3.74721e-18
1.33678e-18
1.07858e-18
4.51328e-18
3.35075e-18
1.99281e-18
2.98352e-18
1.29649e-18
1.59308e-18
6.6996e-19
1.78025e-18
3.5132e-18
1.65394e-18
4.4928e-18
3.54842e-18
4.41034e-18
7.04715e-18
1.79081e-18
2.16884e-18
2.75973e-18
4.54497e-18
3.61199e-18
5.41797e-18
2.44327e-18
1.07778e-18
1.84025e-18
1.99764e-18
7.00075e-19
2.23496e-18
1.10163e-18
6.73485e-18
2.05699e-18
2.63762e-18
2.99468e-18
2.96466e-18
3.78418e-18
1.50908e-18
1.73376e-18
2.49457e-18
3.75903e-18
3.73002e-18
2.11856e-18
2.80113e-18
1.57013e-18
1.71546e-18
2.58929e-18
2.43355e-18
2.3729e-18
2.50706e-18
2.83322e-18
7.43751e-18
3.5081e-18
1.58282e-18
3.10278e-18
3.34476e-18
1.76414e-18
2.80806e-18
3.06339e-18
2.17504e-18
1.54098e-18
2.57628e-18
1.90957e-18
1.24153e-18
3.8605e-18
1.58247e-18
3.34012e-18
7.13324e-18
3.44669e-18
1.94501e-18
3.27354e-18
5.00724e-18
2.4427e-18
4.61989e-18
4.54675e-18
2.03471e-18
2.39923e-18
5.88119e-18
2.54725e-18
2.26499e-18
1.78318e-18
1.69782e-18
3.44101e-18
3.11049e-18
2.05599e-18
2.1417e-18
3.37205e-18
3.64864e-18
3.14873e-18
6.90952e-18
4.37472e-18
3.01644e-18
1.55962e-18
3.41264e-18
4.6679e-18
1.85582e-18
1.94609e-18
2.81428e-18
8.10487e-19
1.4287e-18
2.65305e-18
9.81164e-19
2.5453e-18
1.72486e-18
3.09484e-18
3.73523e-18
1.78454e-18
2.19708e-18
1.34891e-18
3.45364e-18
3.85662e-18
3.38823e-18
1.86863e-18
1.29096e-18
1.55288e-18
3.10106e-18
1.65124e-18
1.45473e-18
1.62386e-18
1.31436e-18
5.58429e-18
2.51172e-18
2.33055e-18
7.14698e-18
1.719e-18
8.40323e-18
2.71369e-18
2.83198e-18
3.87972e-18
2.34152e-18
2.5919e-18
2.46161e-18
3.51469e-18
4.71958e-18
1.70142e-18
1.77662e-18
2.11238e-18
4.41349e-18
1.16293e-18
3.12397e-18
1.8158e-18
2.85702e-18
2.01745e-18
2.01377e-18
4.19865e-18
3.80562e-18
1.56896e-18
2.4096e-18
4.48716e-18
3.32167e-18
2.74457e-18
1.44387e-18
2.01779e-18
2.03114e-18
3.90008e-18
1.46287e-18
3.33274e-18
1.34614e-18
2.2393e-18
3.53008e-18
2.59388e-18
4.70566e-18
2.94232e-18
2.98833e-18
1.8512e-18
3.99631e-18
2.2069e-18
2.02953e-18
2.31076e-18
1.23295e-18
9.99358e-19
1.91244e-18
1.23476e-18
1.71797e-18
5.76159e-18
3.03305e-18
2.07007e-18
1.46075e-18
3.67776e-18
1.90975e-18
3.69351e-18
5.0962e-18
2.57659e-18
1.57479e-18
2.20054e-18
1.85615e-18
3.52869e-18
3.13128e-18
3.15852e-18
2.64584e-18
1.28041e-18
5.30953e-18
3.19211e-18
1.68534e-18
2.70068e-18
1.73004e-18
1.50748e-18
2.51338e-18
5.86098e-18
3.22917e-18
3.69486e-18
4.0788e-18
2.20474e-18
2.59177e-18
3.21857e-18
2.5702e-18
1.22765e-18
2.52953e-18
2.85736e-18
2.72204e-18
2.59738e-18
2.45366e-18
4.34534e-18
2.29403e-18
2.52071e-18
2.91765e-18
2.17716e-18
4.46393e-18
4.23388e-18
3.13746e-18
1.07937e-18
1.29153e-18
1.16123e-18
1.59891e-18
2.52737e-18
2.97518e-18
1.34783e-18
2.05752e-18
1.68297e-18
3.54629e-18
2.47892e-18
2.51645e-18
8.51487e-19
2.96453e-18
4.85699e-18
2.57609e-18
1.49568e-18
1.49847e-18
2.02508e-18
1.98557e-18
2.29397e-18
2.67696e-18
1.12429e-18
1.78229e-18
2.01781e-18
1.69476e-18
3.62871e-18
2.11303e-18
1.05766e-17
2.17929e-18
1.58009e-18
1.99682e-18
2.64893e-18
2.40176e-18
2.11003e-18
2.3835e-18
1.53141e-18
1.92562e-18
1.4061e-18
2.38153e-18
1.36605e-18
6.21735e-18
3.24041e-18
1.73146e-18
3.16719e-18
1.52348e-18
5.15715e-18
5.11958e-18
5.96072e-18
1.81986e-18
2.34126e-18
2.52383e-18
1.94174e-18
2.88869e-18
2.60811e-18
7.40243e-18
2.21651e-18
3.27932e-18
2.51145e-18
1.5167e-18
3.63872e-18
1.74797e-18
4.16257e-18
2.56143e-18
3.76773e-18
2.34719e-18
2.77926e-18
2.01496e-18
3.28593e-18
5.21461e-18
2.52415e-18
2.92497e-18
2.9219e-18
2.52518e-18
3.95151e-18
1.65268e-18
3.67229e-18
2.1934e-18
2.0724e-18
1.62477e-18
1.07816e-18
4.33454e-18
2.42803e-18
2.78389e-18
2.93999e-18
1.65624e-18
1.90424e-18
2.82772e-18
1.11779e-18
6.43757e-18
3.88674e-18
3.72789e-18
5.213e-18
6.96383e-18
3.28967e-18
1.47964e-18
1.37939e-18
1.5663e-18
2.42251e-18
2.28425e-18
1.76336e-18
2.79144e-18
1.09182e-18
1.85582e-18
1.33726e-18
2.92743e-18
3.77851e-18
3.9333e-18
1.20809e-18
2.2244e-18
2.46667e-18
1.22933e-18
6.35878e-19
3.94007e-18
2.68279e-18
2.9379e-18
1.61909e-18
2.99538e-18
1.53921e-18
2.07587e-18
2.47584e-18
3.90683e-18
3.27474e-18
1.04138e-18
3.75943e-18
5.30747e-18
2.8569e-18
1.53726e-18
2.53878e-18
3.60732e-18
4.02888e-18
2.74575e-18
1.81783e-18
5.10003e-18
4.11972e-18
1.58859e-18
3.72715e-18
2.08466e-18
2.68464e-18
4.07166e-18
2.46909e-18
2.52422e-18
2.1737e-18
3.68683e-18
1.69196e-18
5.89825e-18
4.98121e-18
2.05218e-18
1.73801e-18
8.7938e-19
3.39537e-18
3.81293e-18
3.34372e-18
1.82199e-18
5.1258e-18
2.12759e-18
2.51025e-18
3.30869e-18
6.10454e-18
9.85053e-19
2.29011e-18
2.80513e-18
4.29272e-18
2.62925e-18
8.1735e-19
2.35932e-18
1.09669e-18
5.70279e-19
1.98731e-18
2.48138e-18
1.84985e-18
3.22764e-18
3.21309e-18
1.50302e-18
3.24675e-18
1.19438e-18
2.03239e-18
6.57786e-18
6.26831e-18
3.43371e-18
2.02801e-18
2.64301e-18
1.74167e-18
2.03638e-18
2.82101e-18
3.67419e-18
4.003e-18
9.2794e-18
3.93705e-18
3.0645e-18
1.90528e-18
2.41566e-18
1.53063e-18
3.59862e-18
4.87226e-18
3.75452e-18
2.01501e-18
2.26671e-18
1.45885e-18
2.60821e-18
1.5845e-18
5.08448e-18
8.02371e-18
2.14768e-18
1.57716e-18
1.81349e-18
4.08082e-18
4.67363e-18
1.80124e-18
4.07046e-18
1.86457e-18
4.4409e-18
2.96919e-18
3.93304e-18
1.24334e-18
3.04965e-18
1.45382e-18
5.40475e-18
4.19709e-18
4.74185e-18
1.7686e-18
2.32805e-18
4.22178e-18
3.58111e-18
1.75544e-18
1.90097e-18
3.20207e-18
1.67345e-18
1.34489e-18
2.55823e-18
1.74635e-18
3.55371e-18
5.25638e-18
1.7505e-18
3.30401e-18
3.97479e-18
2.07694e-18
1.99964e-18
3.27567e-18
1.72078e-18
2.06921e-18
1.61197e-18
1.26378e-18
2.22295e-18
4.24629e-18
4.44791e-18
1.05602e-18
1.84073e-18
4.98525e-18