/*--------------------------------*- C++ -*----------------------------------*\
  =========                 |
  \\      /  F ield         | OpenFOAM: The Open Source CFD Toolbox
   \\    /   O peration     | Website:  https://openfoam.org
    \\  /    A nd           | Version:  7
     \\/     M anipulation  |
\*---------------------------------------------------------------------------*/
FoamFile
{
    version     2.0;
    format      ascii;
    class       volScalarField;
    location    "500";
    object      mu1;
}
// * * * * * * * * * * * * * * * * * * * * * * * * * * * * * * * * * * * * * //

dimensions      [1 -1 -1 0 0 0 0];

internalField   nonuniform List<scalar> 
160000
(
0.000726063
0.000728458
0.00073084
0.000733226
0.000735653
0.000738047
0.000740407
0.000742688
0.000744907
0.00074722
0.000749552
0.000751795
0.000754033
0.00075632
0.000758508
0.00076064
0.000762773
0.000764891
0.000767012
0.000769128
0.000771223
0.000773257
0.00077523
0.000777201
0.000779166
0.00078113
0.000783116
0.000785046
0.000786936
0.000788795
0.000790605
0.000792404
0.000794258
0.000796101
0.000797858
0.000799612
0.000801359
0.000803062
0.000804695
0.000806327
0.000808019
0.000809703
0.000811372
0.000812954
0.000814508
0.000816095
0.000817654
0.000819148
0.000820651
0.000822181
0.000823662
0.000825142
0.000826597
0.000828008
0.000829434
0.000830814
0.000832198
0.000833567
0.000834853
0.000836127
0.000837463
0.000838794
0.000840043
0.000841264
0.000842446
0.000843659
0.000844894
0.000846115
0.000847287
0.000848365
0.00084949
0.000850629
0.000851723
0.00085281
0.000853879
0.000854953
0.000856009
0.00085703
0.000858042
0.00085905
0.000860045
0.000861054
0.000862037
0.000862984
0.000863926
0.000864861
0.000865767
0.000866634
0.000867483
0.000868358
0.000869207
0.000870041
0.000870905
0.000871752
0.000872559
0.000873324
0.000874082
0.000874843
0.000875592
0.000876317
0.000877039
0.000877745
0.000878445
0.000879159
0.000879833
0.000880503
0.000881161
0.000881806
0.000882462
0.000883102
0.000883734
0.000884329
0.000884917
0.000885511
0.000886078
0.00088665
0.000887211
0.000887757
0.00088831
0.000888861
0.000889392
0.000889896
0.00089039
0.000890886
0.000891373
0.000891869
0.000892366
0.000892827
0.000893277
0.00089373
0.000894167
0.000894588
0.000895013
0.000895458
0.000895888
0.000896289
0.000896681
0.000897067
0.000897439
0.000897796
0.000898163
0.000898548
0.000898903
0.000899243
0.000899599
0.00089994
0.000900267
0.000900593
0.000900911
0.000901218
0.000901516
0.000901811
0.000902098
0.000902388
0.000902671
0.000902942
0.000903214
0.000903484
0.00090375
0.000904011
0.000904267
0.000904515
0.000904753
0.000904989
0.000905216
0.00090544
0.000905671
0.000905891
0.000906104
0.00090631
0.000906513
0.00090672
0.000906913
0.000907109
0.000907306
0.000907488
0.000907666
0.000907841
0.000908018
0.000908196
0.000908357
0.000908516
0.000908675
0.000908826
0.000908976
0.000909125
0.00090927
0.000909411
0.000909547
0.000909683
0.000909821
0.000909952
0.000910079
0.000910206
0.000910335
0.000910455
0.000910569
0.000910686
0.000910802
0.000910915
0.000911027
0.000911134
0.000911237
0.000911339
0.000911439
0.000911537
0.00091163
0.000911719
0.000911809
0.000911896
0.000911981
0.000912066
0.000912148
0.000912226
0.000912304
0.000912381
0.000912453
0.000912525
0.000912599
0.000912669
0.000912738
0.000912806
0.00091287
0.000912932
0.000912995
0.000913055
0.000913115
0.000913171
0.000913227
0.000913282
0.000913332
0.000913383
0.000913434
0.000913484
0.000913532
0.00091358
0.000913625
0.000913669
0.000913712
0.000913754
0.000913796
0.000913836
0.000913876
0.000913915
0.000913952
0.000913989
0.000914026
0.000914061
0.000914095
0.000914128
0.000914161
0.000914194
0.000914225
0.000914254
0.000914282
0.00091431
0.000914337
0.000914363
0.000914389
0.000914415
0.000914441
0.000914466
0.00091449
0.000914512
0.000914535
0.000914557
0.000914578
0.000914599
0.000914619
0.00091464
0.000914659
0.000914677
0.000914694
0.000914712
0.000914729
0.000914745
0.000914762
0.000914778
0.000914793
0.000914808
0.000914822
0.000914836
0.00091485
0.000914863
0.000914876
0.000914888
0.000914901
0.000914912
0.000914924
0.000914936
0.000914947
0.000914958
0.000914968
0.000914978
0.000914988
0.000914998
0.000915007
0.000915016
0.000915025
0.000915033
0.000915041
0.000915049
0.000915057
0.000915064
0.000915072
0.000915079
0.000915085
0.000915092
0.000915098
0.000915105
0.000915111
0.000915117
0.000915123
0.000915128
0.000915134
0.000915139
0.000915144
0.000915149
0.000915153
0.000915158
0.000915163
0.000915167
0.000915171
0.000915175
0.000915179
0.000915183
0.000915187
0.000915191
0.000915194
0.000915198
0.000915201
0.000915204
0.000915207
0.00091521
0.000915213
0.000915216
0.000915218
0.000915221
0.000915224
0.000915226
0.000915229
0.000915231
0.000915233
0.000915235
0.000915237
0.000915239
0.000915241
0.000915243
0.000915245
0.000915247
0.000915248
0.00091525
0.000915252
0.000915253
0.000915255
0.000915256
0.000915257
0.000915259
0.00091526
0.000915261
0.000915262
0.000915264
0.000915265
0.000915266
0.000915267
0.000915268
0.000915269
0.00091527
0.000915271
0.000915271
0.000915272
0.000915273
0.000915274
0.000915274
0.000915275
0.000915276
0.000915276
0.000915277
0.000915277
0.000915278
0.000915278
0.000915279
0.000915279
0.00091528
0.00091528
0.00091528
0.000915281
0.000915281
0.000915281
0.000915282
0.000915282
0.000915282
0.000915282
0.000915282
0.000915283
0.000915283
0.000915283
0.000915283
0.000915283
0.000915283
0.000726115
0.000728529
0.000730869
0.000733243
0.000735639
0.000738004
0.000740362
0.000742696
0.00074496
0.000747232
0.00074956
0.000751825
0.000754021
0.00075624
0.000758473
0.00076063
0.000762722
0.000764887
0.000767067
0.00076919
0.000771258
0.000773267
0.000775265
0.000777256
0.000779188
0.000781082
0.000783038
0.00078502
0.000786928
0.000788795
0.000790641
0.000792448
0.000794272
0.000796097
0.000797851
0.000799592
0.000801381
0.00080304
0.000804629
0.000806329
0.000808051
0.000809705
0.000811362
0.000812952
0.000814504
0.000816107
0.000817666
0.000819141
0.000820626
0.000822187
0.000823708
0.000825171
0.000826589
0.00082802
0.000829431
0.000830785
0.000832174
0.000833536
0.000834855
0.000836163
0.000837465
0.000838771
0.000840042
0.000841258
0.000842461
0.000843694
0.000844892
0.000846073
0.000847244
0.000848375
0.000849517
0.000850649
0.000851741
0.000852809
0.000853877
0.00085495
0.000856008
0.000857033
0.000858044
0.000859054
0.000860064
0.000861054
0.000862023
0.000862962
0.000863904
0.000864863
0.000865768
0.000866637
0.000867498
0.000868357
0.000869217
0.000870059
0.000870905
0.000871753
0.000872544
0.000873309
0.000874073
0.000874832
0.00087559
0.000876317
0.000877037
0.000877758
0.000878445
0.000879143
0.000879845
0.000880506
0.000881158
0.000881817
0.000882465
0.000883104
0.000883736
0.000884335
0.000884921
0.000885502
0.000886073
0.000886645
0.000887207
0.000887761
0.000888308
0.000888852
0.000889391
0.000889902
0.000890399
0.000890896
0.000891385
0.000891874
0.00089236
0.000892822
0.000893277
0.000893727
0.000894165
0.000894585
0.000895014
0.000895462
0.000895886
0.000896277
0.000896675
0.000897072
0.000897437
0.000897797
0.000898164
0.00089854
0.000898901
0.000899249
0.000899604
0.000899943
0.000900269
0.000900592
0.000900906
0.000901208
0.000901516
0.000901816
0.000902098
0.000902386
0.000902671
0.000902948
0.000903219
0.000903487
0.000903749
0.000904007
0.000904264
0.000904513
0.000904756
0.000904989
0.000905215
0.000905439
0.000905669
0.00090589
0.000906104
0.000906314
0.000906518
0.000906721
0.000906914
0.000907109
0.000907302
0.000907484
0.000907668
0.000907844
0.000908019
0.000908193
0.000908356
0.000908515
0.000908673
0.000908823
0.000908974
0.000909125
0.000909271
0.000909411
0.000909547
0.000909684
0.000909822
0.000909954
0.00091008
0.000910207
0.000910332
0.000910453
0.000910572
0.000910688
0.000910804
0.000910915
0.000911026
0.000911133
0.000911236
0.000911337
0.000911438
0.000911538
0.00091163
0.00091172
0.000911809
0.000911897
0.000911982
0.000912065
0.000912148
0.000912227
0.000912304
0.000912379
0.000912454
0.000912527
0.000912599
0.000912669
0.000912738
0.000912804
0.000912868
0.000912932
0.000912994
0.000913055
0.000913115
0.000913171
0.000913227
0.000913281
0.000913333
0.000913383
0.000913434
0.000913485
0.000913533
0.00091358
0.000913625
0.000913669
0.000913712
0.000913754
0.000913796
0.000913835
0.000913875
0.000913915
0.000913952
0.000913989
0.000914026
0.000914061
0.000914095
0.000914128
0.000914161
0.000914193
0.000914224
0.000914254
0.000914282
0.00091431
0.000914337
0.000914364
0.00091439
0.000914416
0.000914441
0.000914465
0.000914489
0.000914512
0.000914535
0.000914558
0.000914579
0.000914599
0.00091462
0.00091464
0.000914658
0.000914677
0.000914695
0.000914712
0.000914729
0.000914745
0.000914762
0.000914778
0.000914793
0.000914808
0.000914822
0.000914836
0.00091485
0.000914863
0.000914876
0.000914889
0.000914901
0.000914913
0.000914924
0.000914936
0.000914947
0.000914958
0.000914968
0.000914979
0.000914988
0.000914998
0.000915007
0.000915016
0.000915025
0.000915033
0.000915041
0.000915049
0.000915057
0.000915064
0.000915072
0.000915079
0.000915085
0.000915092
0.000915098
0.000915105
0.000915111
0.000915117
0.000915123
0.000915128
0.000915134
0.000915139
0.000915144
0.000915149
0.000915153
0.000915158
0.000915163
0.000915167
0.000915171
0.000915175
0.000915179
0.000915183
0.000915187
0.000915191
0.000915194
0.000915198
0.000915201
0.000915204
0.000915207
0.00091521
0.000915213
0.000915216
0.000915218
0.000915221
0.000915224
0.000915226
0.000915229
0.000915231
0.000915233
0.000915235
0.000915237
0.000915239
0.000915241
0.000915243
0.000915245
0.000915247
0.000915248
0.00091525
0.000915252
0.000915253
0.000915255
0.000915256
0.000915257
0.000915259
0.00091526
0.000915261
0.000915262
0.000915264
0.000915265
0.000915266
0.000915267
0.000915268
0.000915269
0.00091527
0.000915271
0.000915271
0.000915272
0.000915273
0.000915274
0.000915274
0.000915275
0.000915276
0.000915276
0.000915277
0.000915277
0.000915278
0.000915278
0.000915279
0.000915279
0.00091528
0.00091528
0.00091528
0.000915281
0.000915281
0.000915281
0.000915282
0.000915282
0.000915282
0.000915282
0.000915282
0.000915283
0.000915283
0.000915283
0.000915283
0.000915283
0.000915283
0.000726081
0.000728478
0.000730875
0.000733251
0.000735645
0.000738033
0.00074034
0.000742696
0.000744983
0.000747234
0.000749561
0.00075183
0.000754008
0.00075619
0.000758428
0.0007606
0.000762752
0.000764967
0.000767093
0.000769193
0.000771267
0.000773301
0.000775312
0.000777262
0.000779191
0.000781105
0.000783028
0.000784962
0.000786912
0.000788811
0.000790623
0.000792435
0.000794262
0.000796103
0.000797884
0.000799605
0.000801344
0.000803022
0.00080465
0.000806328
0.000808035
0.00080971
0.000811344
0.000812919
0.00081453
0.000816141
0.000817654
0.000819131
0.000820625
0.000822184
0.000823726
0.000825193
0.000826604
0.000828006
0.000829408
0.000830776
0.000832143
0.000833507
0.000834871
0.000836193
0.000837466
0.000838747
0.000840037
0.000841274
0.000842461
0.000843701
0.000844923
0.000846094
0.000847239
0.000848386
0.000849507
0.000850613
0.000851743
0.000852817
0.000853873
0.000854949
0.000856002
0.000857032
0.000858071
0.000859074
0.000860058
0.000861048
0.000862028
0.000862968
0.000863899
0.000864831
0.00086574
0.00086665
0.000867526
0.00086837
0.000869229
0.000870084
0.000870908
0.000871733
0.000872534
0.000873298
0.000874061
0.00087482
0.000875575
0.000876318
0.000877036
0.000877752
0.000878453
0.000879138
0.000879835
0.000880516
0.000881179
0.000881824
0.000882458
0.000883102
0.000883726
0.000884331
0.000884929
0.000885502
0.000886072
0.000886642
0.000887201
0.000887763
0.000888318
0.000888859
0.000889386
0.000889896
0.000890403
0.000890901
0.00089139
0.000891878
0.000892355
0.000892819
0.000893278
0.000893721
0.000894154
0.000894592
0.000895033
0.000895463
0.00089588
0.000896276
0.000896667
0.000897061
0.000897437
0.000897799
0.000898163
0.000898539
0.000898903
0.000899249
0.000899602
0.000899947
0.000900272
0.00090059
0.000900902
0.000901207
0.000901514
0.000901814
0.000902097
0.000902386
0.00090268
0.000902953
0.00090322
0.00090349
0.000903751
0.000904011
0.000904263
0.000904511
0.000904754
0.000904988
0.000905215
0.00090544
0.000905667
0.000905887
0.000906101
0.000906314
0.00090652
0.000906723
0.000906921
0.000907114
0.000907298
0.00090748
0.000907666
0.000907847
0.000908019
0.00090819
0.000908357
0.000908514
0.000908668
0.000908823
0.000908975
0.000909124
0.00090927
0.000909411
0.000909549
0.000909687
0.000909824
0.000909954
0.000910082
0.000910207
0.00091033
0.000910453
0.000910573
0.000910689
0.000910805
0.000910916
0.000911024
0.000911132
0.000911236
0.000911339
0.000911438
0.000911536
0.000911628
0.000911719
0.000911811
0.000911896
0.00091198
0.000912066
0.000912149
0.000912227
0.000912304
0.00091238
0.000912455
0.000912528
0.000912598
0.000912668
0.000912737
0.000912804
0.000912868
0.000912932
0.000912994
0.000913055
0.000913114
0.00091317
0.000913227
0.000913282
0.000913333
0.000913383
0.000913434
0.000913484
0.000913533
0.000913581
0.000913626
0.000913669
0.000913711
0.000913754
0.000913796
0.000913835
0.000913876
0.000913915
0.000913953
0.00091399
0.000914027
0.000914062
0.000914095
0.000914128
0.000914161
0.000914192
0.000914223
0.000914253
0.000914282
0.00091431
0.000914337
0.000914364
0.00091439
0.000914416
0.00091444
0.000914465
0.000914489
0.000914512
0.000914535
0.000914557
0.000914579
0.0009146
0.00091462
0.000914639
0.000914658
0.000914676
0.000914694
0.000914711
0.000914729
0.000914745
0.000914762
0.000914778
0.000914793
0.000914808
0.000914822
0.000914836
0.00091485
0.000914863
0.000914876
0.000914889
0.000914901
0.000914913
0.000914924
0.000914936
0.000914947
0.000914958
0.000914968
0.000914978
0.000914988
0.000914998
0.000915007
0.000915016
0.000915025
0.000915033
0.000915041
0.000915049
0.000915057
0.000915064
0.000915071
0.000915079
0.000915085
0.000915092
0.000915098
0.000915105
0.000915111
0.000915117
0.000915123
0.000915128
0.000915134
0.000915139
0.000915144
0.000915149
0.000915153
0.000915158
0.000915163
0.000915167
0.000915171
0.000915175
0.000915179
0.000915183
0.000915187
0.000915191
0.000915194
0.000915197
0.000915201
0.000915204
0.000915207
0.00091521
0.000915213
0.000915216
0.000915218
0.000915221
0.000915224
0.000915226
0.000915229
0.000915231
0.000915233
0.000915235
0.000915237
0.000915239
0.000915241
0.000915243
0.000915245
0.000915247
0.000915248
0.00091525
0.000915252
0.000915253
0.000915255
0.000915256
0.000915257
0.000915259
0.00091526
0.000915261
0.000915262
0.000915264
0.000915265
0.000915266
0.000915267
0.000915268
0.000915269
0.00091527
0.000915271
0.000915271
0.000915272
0.000915273
0.000915274
0.000915274
0.000915275
0.000915276
0.000915276
0.000915277
0.000915277
0.000915278
0.000915278
0.000915279
0.000915279
0.00091528
0.00091528
0.00091528
0.000915281
0.000915281
0.000915281
0.000915282
0.000915282
0.000915282
0.000915282
0.000915282
0.000915283
0.000915283
0.000915283
0.000915283
0.000915283
0.000915283
0.000726067
0.000728469
0.000730877
0.000733286
0.000735689
0.000738073
0.000740377
0.000742704
0.000745027
0.000747315
0.000749581
0.000751771
0.000753976
0.000756188
0.000758414
0.000760602
0.000762762
0.000764953
0.000767086
0.00076921
0.000771261
0.000773311
0.000775323
0.000777237
0.000779226
0.000781151
0.000783018
0.000784972
0.000786939
0.000788794
0.000790605
0.000792426
0.00079424
0.000796073
0.000797882
0.000799616
0.000801344
0.000803007
0.000804626
0.000806327
0.000808054
0.000809733
0.000811355
0.000812936
0.000814526
0.000816103
0.000817635
0.00081914
0.000820661
0.000822178
0.000823694
0.000825211
0.000826613
0.000828001
0.000829421
0.000830801
0.000832153
0.000833504
0.000834843
0.000836161
0.000837448
0.000838745
0.000840041
0.000841264
0.000842467
0.000843697
0.000844922
0.000846096
0.00084724
0.000848406
0.000849531
0.000850613
0.000851707
0.000852792
0.000853885
0.000854984
0.000856022
0.000857052
0.000858096
0.000859073
0.000860053
0.000861053
0.00086202
0.000862949
0.000863878
0.00086482
0.000865733
0.000866645
0.000867522
0.000868391
0.000869244
0.000870078
0.000870913
0.000871725
0.000872512
0.0008733
0.000874075
0.000874811
0.000875552
0.000876312
0.00087705
0.000877754
0.000878455
0.000879144
0.000879828
0.000880513
0.000881184
0.000881831
0.000882467
0.000883104
0.000883714
0.000884318
0.000884926
0.000885507
0.000886077
0.000886639
0.000887196
0.000887761
0.000888324
0.000888859
0.00088938
0.000889893
0.000890406
0.000890899
0.000891388
0.000891884
0.000892364
0.000892827
0.000893275
0.00089372
0.000894158
0.000894599
0.000895037
0.000895462
0.00089588
0.000896273
0.000896663
0.000897057
0.000897435
0.000897804
0.000898178
0.000898538
0.000898891
0.000899247
0.000899596
0.000899943
0.000900274
0.00090059
0.000900897
0.000901208
0.000901517
0.000901814
0.000902105
0.000902389
0.000902674
0.00090295
0.000903222
0.000903493
0.00090375
0.000904008
0.000904264
0.000904511
0.000904754
0.00090499
0.000905216
0.00090544
0.000905666
0.000905886
0.000906099
0.000906315
0.000906524
0.000906723
0.000906919
0.000907113
0.0009073
0.000907483
0.000907667
0.000907845
0.000908016
0.000908188
0.000908357
0.000908516
0.000908667
0.000908821
0.000908975
0.000909125
0.000909271
0.000909412
0.000909551
0.000909689
0.000909823
0.000909954
0.000910084
0.000910208
0.00091033
0.000910451
0.000910571
0.000910691
0.000910806
0.000910918
0.000911025
0.00091113
0.000911235
0.000911338
0.000911437
0.000911534
0.000911627
0.000911719
0.00091181
0.000911894
0.00091198
0.000912067
0.000912149
0.000912227
0.000912305
0.000912381
0.000912455
0.000912528
0.000912598
0.000912667
0.000912736
0.000912803
0.000912869
0.000912933
0.000912994
0.000913054
0.000913113
0.00091317
0.000913226
0.00091328
0.000913333
0.000913385
0.000913434
0.000913484
0.000913533
0.000913579
0.000913625
0.000913669
0.000913712
0.000913755
0.000913796
0.000913835
0.000913875
0.000913915
0.000913953
0.00091399
0.000914027
0.000914062
0.000914096
0.000914129
0.000914161
0.000914193
0.000914223
0.000914252
0.000914282
0.000914309
0.000914337
0.000914364
0.000914391
0.000914416
0.00091444
0.000914465
0.000914489
0.000914512
0.000914534
0.000914557
0.000914579
0.0009146
0.00091462
0.000914639
0.000914659
0.000914677
0.000914694
0.000914711
0.000914729
0.000914745
0.000914762
0.000914778
0.000914793
0.000914808
0.000914822
0.000914836
0.00091485
0.000914863
0.000914876
0.000914889
0.000914901
0.000914913
0.000914924
0.000914936
0.000914947
0.000914957
0.000914968
0.000914978
0.000914988
0.000914998
0.000915007
0.000915016
0.000915025
0.000915033
0.000915041
0.000915049
0.000915057
0.000915064
0.000915071
0.000915078
0.000915085
0.000915092
0.000915098
0.000915105
0.000915111
0.000915117
0.000915123
0.000915128
0.000915134
0.000915139
0.000915144
0.000915149
0.000915153
0.000915158
0.000915163
0.000915167
0.000915171
0.000915175
0.000915179
0.000915183
0.000915187
0.000915191
0.000915194
0.000915197
0.000915201
0.000915204
0.000915207
0.00091521
0.000915213
0.000915216
0.000915218
0.000915221
0.000915224
0.000915226
0.000915229
0.000915231
0.000915233
0.000915235
0.000915237
0.000915239
0.000915241
0.000915243
0.000915245
0.000915247
0.000915248
0.00091525
0.000915252
0.000915253
0.000915255
0.000915256
0.000915257
0.000915259
0.00091526
0.000915261
0.000915263
0.000915264
0.000915265
0.000915266
0.000915267
0.000915268
0.000915269
0.00091527
0.000915271
0.000915271
0.000915272
0.000915273
0.000915274
0.000915274
0.000915275
0.000915276
0.000915276
0.000915277
0.000915277
0.000915278
0.000915278
0.000915279
0.000915279
0.00091528
0.00091528
0.00091528
0.000915281
0.000915281
0.000915281
0.000915282
0.000915282
0.000915282
0.000915282
0.000915282
0.000915283
0.000915283
0.000915283
0.000915283
0.000915283
0.000915283
0.000726064
0.000728441
0.000730868
0.00073332
0.000735705
0.000738088
0.000740407
0.000742726
0.000745063
0.000747324
0.000749571
0.000751717
0.000753891
0.000756239
0.000758495
0.000760615
0.000762748
0.000764903
0.000767026
0.000769198
0.000771307
0.000773339
0.000775318
0.000777254
0.000779225
0.000781127
0.000782993
0.000784959
0.000786897
0.000788775
0.000790654
0.000792459
0.000794237
0.00079608
0.000797912
0.000799616
0.000801285
0.000802964
0.000804667
0.000806394
0.00080806
0.000809723
0.000811372
0.000812947
0.000814507
0.000816072
0.000817598
0.000819102
0.000820666
0.00082221
0.000823708
0.000825189
0.000826623
0.000828025
0.000829416
0.000830806
0.000832159
0.000833501
0.000834853
0.000836158
0.000837443
0.000838728
0.000840009
0.00084125
0.000842452
0.000843691
0.000844931
0.000846121
0.000847264
0.000848401
0.000849523
0.00085061
0.000851715
0.000852812
0.000853891
0.000854991
0.000856043
0.000857063
0.000858076
0.000859096
0.000860089
0.000861047
0.000862008
0.000862941
0.000863868
0.000864813
0.000865731
0.00086663
0.00086752
0.000868394
0.000869247
0.000870075
0.000870905
0.000871722
0.000872506
0.000873289
0.00087407
0.00087482
0.000875554
0.000876299
0.000877053
0.000877776
0.000878455
0.00087914
0.000879826
0.0008805
0.000881179
0.000881828
0.000882469
0.000883107
0.000883718
0.000884309
0.000884906
0.000885509
0.000886097
0.000886646
0.000887184
0.000887756
0.000888321
0.000888852
0.000889379
0.000889896
0.0008904
0.000890896
0.0008914
0.000891897
0.000892366
0.000892825
0.000893276
0.000893722
0.000894156
0.000894599
0.000895041
0.000895467
0.000895879
0.000896277
0.000896667
0.000897048
0.000897434
0.000897808
0.000898176
0.000898536
0.000898896
0.000899248
0.000899591
0.00089994
0.000900271
0.000900586
0.000900899
0.00090121
0.000901513
0.00090181
0.000902104
0.000902393
0.000902676
0.000902953
0.000903228
0.000903493
0.000903748
0.000904005
0.000904263
0.000904512
0.000904756
0.000904992
0.000905217
0.00090544
0.000905671
0.000905893
0.000906101
0.000906313
0.000906518
0.000906719
0.00090692
0.000907111
0.000907299
0.000907483
0.000907663
0.000907841
0.000908015
0.000908185
0.000908353
0.000908516
0.000908672
0.000908825
0.000908974
0.000909124
0.000909272
0.000909414
0.000909552
0.00090969
0.000909825
0.000909955
0.000910085
0.00091021
0.000910328
0.000910448
0.00091057
0.000910689
0.000910807
0.000910918
0.000911025
0.000911131
0.000911235
0.000911338
0.000911437
0.000911533
0.000911626
0.000911718
0.000911808
0.000911894
0.000911982
0.000912068
0.000912148
0.000912228
0.000912304
0.000912379
0.000912456
0.000912529
0.000912599
0.000912669
0.000912736
0.000912802
0.000912868
0.000912932
0.000912994
0.000913053
0.000913113
0.00091317
0.000913226
0.000913279
0.000913332
0.000913385
0.000913435
0.000913484
0.000913533
0.000913579
0.000913624
0.000913669
0.000913712
0.000913755
0.000913797
0.000913837
0.000913876
0.000913915
0.000913953
0.00091399
0.000914028
0.000914063
0.000914096
0.000914129
0.000914161
0.000914192
0.000914222
0.000914252
0.000914281
0.00091431
0.000914337
0.000914364
0.000914391
0.000914416
0.000914441
0.000914465
0.000914488
0.000914512
0.000914534
0.000914556
0.000914579
0.000914601
0.00091462
0.000914639
0.000914658
0.000914676
0.000914694
0.000914712
0.000914729
0.000914745
0.000914762
0.000914778
0.000914793
0.000914808
0.000914822
0.000914836
0.00091485
0.000914863
0.000914876
0.000914889
0.000914901
0.000914913
0.000914925
0.000914936
0.000914947
0.000914957
0.000914968
0.000914978
0.000914988
0.000914998
0.000915007
0.000915016
0.000915024
0.000915033
0.000915041
0.000915049
0.000915057
0.000915064
0.000915072
0.000915078
0.000915085
0.000915092
0.000915098
0.000915105
0.000915111
0.000915117
0.000915123
0.000915128
0.000915134
0.000915139
0.000915144
0.000915149
0.000915153
0.000915158
0.000915163
0.000915167
0.000915171
0.000915175
0.000915179
0.000915183
0.000915187
0.000915191
0.000915194
0.000915197
0.000915201
0.000915204
0.000915207
0.00091521
0.000915213
0.000915216
0.000915218
0.000915221
0.000915224
0.000915226
0.000915229
0.000915231
0.000915233
0.000915235
0.000915237
0.000915239
0.000915241
0.000915243
0.000915245
0.000915247
0.000915248
0.00091525
0.000915252
0.000915253
0.000915255
0.000915256
0.000915257
0.000915259
0.00091526
0.000915261
0.000915263
0.000915264
0.000915265
0.000915266
0.000915267
0.000915268
0.000915269
0.00091527
0.000915271
0.000915271
0.000915272
0.000915273
0.000915274
0.000915274
0.000915275
0.000915276
0.000915276
0.000915277
0.000915277
0.000915278
0.000915278
0.000915279
0.000915279
0.00091528
0.00091528
0.00091528
0.000915281
0.000915281
0.000915281
0.000915282
0.000915282
0.000915282
0.000915282
0.000915282
0.000915283
0.000915283
0.000915283
0.000915283
0.000915283
0.000915283
0.000726051
0.000728396
0.000730801
0.000733292
0.000735697
0.000738103
0.00074047
0.000742792
0.000745056
0.000747266
0.000749532
0.000751733
0.000753952
0.00075624
0.000758455
0.000760664
0.000762812
0.000764899
0.000766997
0.000769129
0.000771246
0.000773326
0.000775351
0.000777272
0.000779199
0.00078116
0.000783049
0.000784957
0.000786849
0.000788745
0.000790651
0.000792464
0.000794269
0.000796083
0.00079789
0.000799612
0.000801288
0.000802976
0.000804683
0.000806397
0.000808069
0.000809729
0.00081136
0.000812929
0.000814503
0.000816072
0.000817603
0.000819123
0.000820639
0.000822184
0.000823731
0.000825181
0.000826599
0.000828038
0.000829431
0.000830795
0.000832165
0.000833516
0.000834835
0.000836145
0.000837445
0.000838704
0.000839982
0.000841245
0.000842454
0.000843701
0.000844952
0.000846129
0.000847263
0.000848402
0.000849514
0.000850615
0.000851747
0.000852845
0.000853906
0.000854992
0.000856055
0.000857078
0.000858088
0.000859079
0.000860069
0.000861053
0.000862005
0.000862938
0.000863874
0.000864806
0.000865714
0.00086662
0.000867526
0.000868404
0.000869239
0.00087006
0.000870905
0.000871725
0.000872509
0.000873296
0.000874064
0.000874813
0.000875571
0.000876306
0.000877042
0.000877765
0.000878454
0.000879153
0.000879835
0.000880506
0.000881166
0.00088181
0.000882466
0.000883111
0.000883725
0.000884315
0.000884903
0.000885502
0.00088609
0.000886646
0.000887195
0.000887746
0.000888303
0.000888852
0.000889372
0.000889895
0.000890398
0.0008909
0.000891411
0.000891891
0.000892364
0.000892829
0.000893282
0.000893725
0.000894161
0.000894607
0.000895044
0.000895462
0.000895873
0.00089628
0.000896673
0.000897056
0.000897437
0.000897809
0.000898176
0.000898532
0.000898889
0.000899249
0.000899594
0.00089993
0.000900263
0.000900587
0.000900902
0.000901208
0.000901512
0.000901811
0.000902108
0.000902399
0.000902681
0.000902955
0.00090322
0.000903486
0.000903747
0.000904007
0.000904267
0.000904516
0.000904754
0.000904989
0.000905222
0.000905448
0.000905674
0.000905894
0.000906102
0.00090631
0.000906516
0.000906714
0.000906915
0.000907113
0.000907301
0.000907481
0.000907661
0.000907838
0.00090801
0.000908184
0.000908354
0.000908515
0.000908671
0.000908825
0.000908977
0.000909127
0.000909273
0.000909417
0.000909553
0.000909688
0.000909825
0.000909955
0.000910083
0.000910209
0.000910329
0.000910447
0.00091057
0.00091069
0.000910806
0.000910919
0.000911027
0.000911131
0.000911234
0.000911337
0.000911435
0.000911531
0.000911626
0.000911718
0.000911808
0.000911895
0.000911982
0.000912066
0.000912147
0.000912227
0.000912303
0.000912379
0.000912456
0.000912531
0.000912602
0.000912669
0.000912736
0.000912802
0.000912867
0.000912931
0.000912993
0.000913053
0.000913112
0.000913169
0.000913225
0.00091328
0.000913332
0.000913383
0.000913435
0.000913486
0.000913534
0.000913579
0.000913624
0.000913669
0.000913712
0.000913756
0.000913797
0.000913837
0.000913876
0.000913915
0.000913953
0.00091399
0.000914027
0.000914063
0.000914096
0.000914129
0.000914161
0.000914192
0.000914222
0.000914252
0.000914281
0.000914309
0.000914337
0.000914364
0.00091439
0.000914416
0.000914441
0.000914465
0.000914489
0.000914512
0.000914534
0.000914557
0.000914579
0.0009146
0.00091462
0.000914639
0.000914658
0.000914676
0.000914694
0.000914712
0.000914729
0.000914746
0.000914762
0.000914778
0.000914793
0.000914808
0.000914822
0.000914836
0.00091485
0.000914863
0.000914876
0.000914889
0.000914901
0.000914913
0.000914925
0.000914936
0.000914947
0.000914958
0.000914968
0.000914978
0.000914988
0.000914998
0.000915007
0.000915016
0.000915024
0.000915033
0.000915041
0.000915049
0.000915057
0.000915064
0.000915071
0.000915078
0.000915085
0.000915092
0.000915098
0.000915105
0.000915111
0.000915117
0.000915123
0.000915128
0.000915134
0.000915139
0.000915144
0.000915149
0.000915153
0.000915158
0.000915163
0.000915167
0.000915171
0.000915175
0.000915179
0.000915183
0.000915187
0.000915191
0.000915194
0.000915198
0.000915201
0.000915204
0.000915207
0.00091521
0.000915213
0.000915216
0.000915219
0.000915221
0.000915224
0.000915226
0.000915229
0.000915231
0.000915233
0.000915235
0.000915237
0.000915239
0.000915241
0.000915243
0.000915245
0.000915247
0.000915248
0.00091525
0.000915252
0.000915253
0.000915255
0.000915256
0.000915257
0.000915259
0.00091526
0.000915261
0.000915263
0.000915264
0.000915265
0.000915266
0.000915267
0.000915268
0.000915269
0.00091527
0.000915271
0.000915271
0.000915272
0.000915273
0.000915274
0.000915274
0.000915275
0.000915276
0.000915276
0.000915277
0.000915277
0.000915278
0.000915278
0.000915279
0.000915279
0.00091528
0.00091528
0.00091528
0.000915281
0.000915281
0.000915281
0.000915282
0.000915282
0.000915282
0.000915282
0.000915282
0.000915283
0.000915283
0.000915283
0.000915283
0.000915283
0.000915283
0.000726036
0.000728401
0.0007308
0.000733238
0.000735643
0.000738077
0.000740491
0.000742817
0.000745086
0.000747321
0.000749536
0.000751729
0.000753999
0.000756296
0.000758501
0.000760656
0.000762784
0.000764912
0.000767003
0.000769077
0.000771233
0.000773319
0.000775295
0.000777226
0.000779172
0.00078116
0.000783082
0.00078499
0.000786875
0.000788755
0.000790644
0.000792493
0.000794289
0.000796081
0.000797849
0.000799567
0.000801299
0.000803016
0.000804708
0.000806374
0.000808053
0.000809729
0.000811349
0.000812918
0.000814514
0.000816096
0.000817614
0.000819137
0.000820654
0.000822165
0.000823705
0.000825172
0.000826594
0.000828038
0.000829438
0.000830791
0.000832154
0.000833502
0.00083482
0.000836141