/*--------------------------------*- C++ -*----------------------------------*\
  =========                 |
  \\      /  F ield         | OpenFOAM: The Open Source CFD Toolbox
   \\    /   O peration     | Website:  https://openfoam.org
    \\  /    A nd           | Version:  7
     \\/     M anipulation  |
\*---------------------------------------------------------------------------*/
FoamFile
{
    version     2.0;
    format      ascii;
    class       volScalarField;
    location    "500";
    object      muTotal;
}
// * * * * * * * * * * * * * * * * * * * * * * * * * * * * * * * * * * * * * //

dimensions      [1 -1 -1 0 0 0 0];

internalField   nonuniform List<scalar> 
160000
(
0.000414605
0.000415942
0.000310647
0.000371239
0.000335056
0.000331437
0.000399701
0.000481667
0.000374916
0.000398334
0.000378586
0.000364379
0.000356212
0.000383833
0.000386081
0.000384796
0.000384638
0.000418705
0.000497946
0.000422985
0.000363256
0.000373794
0.00042753
0.000392179
0.000337921
0.00034256
0.000415029
0.00044444
0.000445477
0.000413836
0.000398239
0.000408598
0.000409517
0.000377493
0.000378301
0.000379108
0.000465489
0.000466442
0.000467392
0.00043909
0.000380313
0.000346552
0.000431208
0.000465145
0.000466017
0.000466907
0.000419261
0.000414365
0.000387317
0.000383716
0.000419213
0.000457101
0.000431765
0.000399295
0.000391879
0.000392512
0.000409469
0.000410127
0.000416904
0.00044883
0.000449534
0.00045023
0.000446568
0.000437713
0.00044215
0.000442763
0.000403675
0.000404241
0.000404788
0.000448178
0.000448791
0.000449345
0.000448352
0.000415907
0.000416422
0.000416925
0.000454412
0.000471083
0.00047163
0.000453771
0.00046145
0.000461975
0.000415846
0.000413145
0.000413589
0.000424633
0.00044739
0.000450369
0.000453547
0.000406568
0.000406961
0.000439001
0.000439445
0.000439844
0.000438139
0.000438502
0.000475609
0.000476014
0.000476412
0.000472377
0.000467165
0.000451675
0.00045875
0.000459115
0.000462794
0.000431056
0.000431363
0.000455479
0.000465494
0.000487233
0.000487562
0.000479892
0.000461868
0.000449691
0.00044997
0.000445892
0.000446162
0.000489003
0.000500752
0.000481767
0.000482045
0.000508552
0.000511978
0.000512249
0.000508171
0.000463766
0.000423047
0.000423266
0.00042375
0.000423949
0.000425563
0.000460314
0.000473441
0.00043225
0.000432456
0.000452406
0.000459541
0.000459712
0.000442691
0.000442882
0.000443046
0.000443244
0.000443403
0.00049659
0.000496783
0.000496968
0.000455661
0.0004448
0.000444946
0.000445101
0.000462742
0.000462891
0.000447977
0.000445886
0.000446015
0.000474219
0.000474369
0.00047541
0.000466088
0.000449163
0.000428579
0.000452529
0.000468567
0.00046867
0.000468824
0.00048384
0.000472863
0.000451582
0.000457094
0.000459316
0.000470149
0.000470208
0.00045405
0.000454091
0.000454242
0.000463944
0.000473051
0.000473135
0.000472669
0.000472512
0.000472592
0.000519853
0.000447095
0.000447172
0.000447248
0.00046625
0.000490016
0.000490091
0.000468224
0.000445055
0.000431484
0.000431545
0.000458132
0.000439158
0.000439209
0.000439275
0.000498713
0.000498775
0.000460607
0.000438074
0.000438127
0.000450276
0.000505107
0.000505147
0.000490821
0.000465819
0.00049043
0.000525818
0.000525853
0.000517906
0.000506774
0.000487701
0.00048775
0.000487791
0.000487674
0.000483186
0.000483217
0.000483294
0.000483294
0.000483368
0.000483366
0.000483467
0.000483434
0.000483478
0.000477018
0.000477051
0.00047691
0.000473563
0.000481514
0.00044657
0.000446601
0.000491871
0.000469835
0.000483628
0.000483668
0.000483682
0.000478312
0.00047833
0.000476198
0.000495
0.000495038
0.000494909
0.000460201
0.00046022
0.000460539
0.000438833
0.000438862
0.000463027
0.00047111
0.000460712
0.000467155
0.00046719
0.000424853
0.000441935
0.000494658
0.000494667
0.000455866
0.000455886
0.000474635
0.000474624
0.000460831
0.000460807
0.000472618
0.000472874
0.000479168
0.000495491
0.000495501
0.000461836
0.000450747
0.000440029
0.000440039
0.000469689
0.000469707
0.000476463
0.000476472
0.000476438
0.000488188
0.000488196
0.000447564
0.000493179
0.000493175
0.000499516
0.000499514
0.000476911
0.000463896
0.000489338
0.000489344
0.000489351
0.000450009
0.000433807
0.000433818
0.000433817
0.000498082
0.000498082
0.000498104
0.000498093
0.000479384
0.000476499
0.000476492
0.000455219
0.000455237
0.000484896
0.000491909
0.000491909
0.00047517
0.000451367
0.000456775
0.000454444
0.000486538
0.000486541
0.000486543
0.000484065
0.000484069
0.000482061
0.000452956
0.00045488
0.000454953
0.000444684
0.000444721
0.000444696
0.000444725
0.000468199
0.000468186
0.000466732
0.000466731
0.000482612
0.000482614
0.000447537
0.00044846
0.000448472
0.00044589
0.000445897
0.000438678
0.000428066
0.000428067
0.000446033
0.000430183
0.000429226
0.000429277
0.000429204
0.000429265
0.000429228
0.000429248
0.000490734
0.000547229
0.000547221
0.000547281
0.000547204
0.000531728
0.000461642
0.00044435
0.000478011
0.000481581
0.000465666
0.000485241
0.000485246
0.000456443
0.000456447
0.000464386
0.000469629
0.000488614
0.000488611
0.000481841
0.00046891
0.000468948
0.000468906
0.000494887
0.000494888
0.000494888
0.000494891
0.000494892
0.000494924
0.000494891
0.000494926
0.00048664
0.000474419
0.000474423
0.000477341
0.000477338
0.000491133
0.000483747
0.000468185
0.00045734
0.000465719
0.0004657
0.000465751
0.000465701
0.000465753
0.000458777
0.000474133
0.000474136
0.000473982
0.000447643
0.000445666
0.000463611
0.000463012
0.000452993
0.000452969
0.00040967
0.000376969
0.000359391
0.000329679
0.000460447
0.000322019
0.000323032
0.000345477
0.00034938
0.000355198
0.000392173
0.000393336
0.000349722
0.000406216
0.000407374
0.000407318
0.000421052
0.000412783
0.000369227
0.000370253
0.000393121
0.000362328
0.00036327
0.000404563
0.00042755
0.000428622
0.000398392
0.000429119
0.000420706
0.000392655
0.000393591
0.000396506
0.00039533
0.000396208
0.000409537
0.000404007
0.000378298
0.000427636
0.0004332
0.000434082
0.000467336
0.000376309
0.000341202
0.000341878
0.000342575
0.000433907
0.000466014
0.000457946
0.000415378
0.000420571
0.000383012
0.00038372
0.000384408
0.000457133
0.000478509
0.000479318
0.000413229
0.000478264
0.000451028
0.000413048
0.000421421
0.000422071
0.000430038
0.000434947
0.000414415
0.000437717
0.000438327
0.000411056
0.00044302
0.000446995
0.000447593
0.000448185
0.000421642
0.000415307
0.000415816
0.000439101
0.000439626
0.000438928
0.000432455
0.000434531
0.000445629
0.000438967
0.000439469
0.000450917
0.000460574
0.000461065
0.000461558
0.000447508
0.000447392
0.000463283
0.000463733
0.000464183
0.000459907
0.000434107
0.00042802
0.000428449
0.000436615
0.000445859
0.000433717
0.000416153
0.000416504
0.000429892
0.000444956
0.000445317
0.000490758
0.000491139
0.000491521
0.000486526
0.000486875
0.000453843
0.00045294
0.000453226
0.000453578
0.000453869
0.000476527
0.000475222
0.000453287
0.000447311
0.000459282
0.000488802
0.000504975
0.000505274
0.000458099
0.00045836
0.000458952
0.000459203
0.000461527
0.000473717
0.000465187
0.000486472
0.000486714
0.000473893
0.000441502
0.000477331
0.000506217
0.000506462
0.000495864
0.00050053
0.000459536
0.000459705
0.000482017
0.000482203
0.000482414
0.000482594
0.000477616
0.000479171
0.000437199
0.000441343
0.000497976
0.000479897
0.000469736
0.000470413
0.000442244
0.000442384
0.000470652
0.000470795
0.000470967
0.000471089
0.000471253
0.000475412
0.000428794
0.0004312
0.000420545
0.00042066
0.000420768
0.000443566
0.000473481
0.00048384
0.00048396
0.000451585
0.000455504
0.000455616
0.000470031
0.000451679
0.000494669
0.000494835
0.000494885
0.000495117
0.000478924
0.000473132
0.000495369
0.000496204
0.000535401
0.00053549
0.000483642
0.000483802
0.000483882
0.000469091
0.000424621
0.000424689
0.000521915
0.000522202
0.000522277
0.000492702
0.000516303
0.000516369
0.000486012
0.000486078
0.000478894
0.000498777
0.000496622
0.000492004
0.000448999
0.000449063
0.000495423
0.000505161
0.000482751
0.000454255
0.000454296
0.000454336
0.000454383
0.00045443
0.000454475
0.000487708
0.00048775
0.000487398
0.00050008
0.000490239
0.000441428
0.000441468
0.000441496
0.000454286
0.000481204
0.0004834
0.000482283
0.000482271
0.000487568
0.000469745
0.000469778
0.000469803
0.000494651
0.00049469
0.000494709
0.000494753
0.000467672
0.000428076
0.000428101
0.000490319
0.000490327
0.000490355
0.000476181
0.000476217
0.000476224
0.000496604
0.000496624
0.000493177
0.000465366
0.000487815
0.00048779
0.00048339
0.000475064
0.000449619
0.00044383
0.000439199
0.000410018
0.000410038
0.000480411
0.000467964
0.000453684
0.000492164
0.0004677
0.000457931
0.000457941
0.000473221
0.000473223
0.00044212
0.00042998
0.000429993
0.00043
0.000499883
0.000499892
0.000499905
0.000440023
0.000421571
0.00042158
0.000421589
0.000464868
0.000475208
0.000452062
0.000432934
0.00043295
0.000452273
0.000451244
0.000451248
0.000454424
0.000454451
0.000454433
0.000454469
0.00045447
0.000460225
0.000507685
0.000507689
0.000494043
0.000453705
0.000422774
0.000422791
0.000424209
0.000498109
0.000494684
0.000477263
0.000524938
0.000519061
0.00046082
0.000453356
0.000453369
0.000458374
0.000447588
0.000436669
0.000456777
0.000439623
0.000439628
0.000486541
0.000466695
0.000484066
0.000450401
0.000450413
0.00045042
0.000450424
0.000475135
0.000499175
0.000499184
0.000499194
0.000444856
0.000444871
0.000468291
0.000468293
0.000467024
0.000482612
0.000465057
0.000443002
0.000443008
0.000502865
0.000493262
0.000441998
0.000458148
0.000458158
0.000441967
0.000457997
0.000488816
0.000454289
0.00045145
0.000478585
0.000433887
0.000429269
0.000429247
0.000468015
0.000527081
0.000456954
0.000443967
0.000485872
0.000485537
0.000456973
0.000444351
0.000487964
0.000485749
0.000465677
0.000465667
0.000493262
0.000494049
0.000503551
0.000503555
0.000491066
0.00047008
0.000470082
0.000470081
0.000486366
0.00048634
0.000486408
0.000478437
0.000462776
0.000462779
0.000473155
0.000473162
0.000473171
0.00047773
0.000485947
0.00048886
0.00048885
0.000489982
0.000489988
0.000489995
0.000491131
0.000491134
0.00045261
0.000427695
0.000427697
0.000433688
0.0004252
0.000425202
0.000439971
0.000458802
0.000445055
0.000445118
0.000476937
0.000445665
0.000445664
0.000469155
0.00046916
0.000458369
0.000458389
0.000413309
0.000376918
0.000359375
0.000377633
0.000461942
0.00045019
0.000420056
0.000348644
0.00039731
0.000396569
0.000382254
0.000389298
0.000390794
0.000391941
0.000393558
0.000419813
0.000421026
0.000391542
0.000375718
0.000356259
0.000382177
0.000402703
0.000403756
0.000403223
0.000401121
0.00041321
0.000437093
0.000438143
0.000426031
0.000427054
0.000428083
0.000403473
0.000407158
0.000408065
0.000395075
0.000381625
0.000378315
0.000442316
0.000443255
0.000444164
0.000433688
0.000413273
0.000415038
0.000415881
0.000416699
0.000417492
0.000378764
0.000379494
0.000415374
0.000433493
0.000434265
0.000423334
0.000384417
0.000399881
0.000431534
0.000477008
0.000477794
0.000478565
0.000470327
0.000393596
0.00039402
0.000394622
0.0004056
0.000434933
0.000410457
0.000411053
0.000418697
0.000411059
0.000411639
0.000412195
0.000420243
0.000448183
0.000442654
0.000420023
0.000407403
0.000407892
0.000438587
0.00043604
0.000432459
0.000439201
0.000439716
0.000437415
0.000458172
0.000458687
0.000409686
0.000410132
0.000461563
0.000456426
0.000456579
0.000429435
0.00042985
0.000459864
0.000449507
0.000434114
0.000446735
0.000447144
0.000432905
0.000445863
0.000452018
0.000452402
0.000452783
0.000449492
0.000471801
0.00047219
0.000454388
0.000485924
0.000452892
0.000448452
0.000448776
0.000463443
0.000491519
0.000463819
0.000453561
0.000476215
0.000476524
0.000488819
0.00048913
0.000457238
0.000459274
0.000458528
0.000444897
0.000443597
0.0004473
0.000473478
0.000473742
0.000474002
0.000473929
0.000474188
0.0004713
0.000479858
0.000458849
0.000459064
0.000460814
0.000461088
0.000461278
0.000462761
0.000504731
0.000504266
0.000497854
0.000466715
0.000431328
0.000453653
0.000469601
0.000433981
0.000434137
0.000482412
0.000429508
0.000429674
0.000508665
0.000508834
0.000499514
0.00047668
0.000453258
0.000442386
0.000470417
0.000437972
0.000438134
0.00043824
0.000494325
0.000450237
0.000417385
0.000417508
0.000450209
0.000502829
0.00050296
0.000498741
0.000475132
0.000450632
0.000440732
0.000440837
0.000472831
0.000471214
0.000459851
0.000435305
0.000435394
0.000435488
0.000479732
0.000495148
0.000495217
0.000495344
0.000476749
0.000456391
0.000447167
0.000489857
0.00049143
0.000473183
0.00047326
0.000496446
0.000496524
0.0004966
0.000479446
0.000446435
0.000446518
0.000461056
0.000488767
0.000494665
0.000494731
0.000453818
0.000453887
0.000498776
0.000483693
0.000456182
0.000461878
0.000461916
0.000444748
0.000444792
0.000455175
0.000473772
0.000473817
0.000473865
0.000468455
0.000457389
0.000479055
0.00044337
0.000443413
0.000480252
0.000500082
0.000492783
0.000441433
0.000441462
0.000478526
0.000487899
0.000487934
0.000478355
0.000481511
0.000501076
0.000501467
0.00052273
0.000522742
0.000480919
0.000455791
0.000455826
0.000482679
0.000493796
0.000428595
0.000428079
0.000435578
0.000435605
0.000435631
0.000492178
0.000493539
0.000493571
0.000493606
0.000493635
0.00045482
0.000423318
0.000423332
0.000423352
0.000463429
0.000463446
0.000463484
0.000481541
0.000444068
0.000416551
0.000410024
0.000439307
0.000464585
0.000442372
0.000442387
0.000492169
0.000492179
0.000492195
0.000467266
0.000443855
0.000443875
0.000487529
0.000489401
0.000489414
0.000439884
0.000439917
0.000439939
0.000475003
0.000498577
0.000498648
0.000498597
0.000498669
0.000454336
0.000454408
0.000467253
0.000432943
0.000479562
0.000479568
0.000479602
0.000465395
0.000454445
0.000482416
0.000497255
0.000497266
0.000497276
0.00048389
0.000483898
0.000504704
0.000443727
0.000443744
0.000445033
0.000476701
0.00049348
0.000493454
0.000493535
0.000524933
0.000524928
0.000457013
0.000444104
0.000444108
0.000490885
0.000490865
0.000464567
0.000427976
0.000427975
0.000427982
0.000446959
0.00043633
0.000436329
0.000464738
0.000470584
0.000470575
0.000483573
0.000496573
0.000496584
0.000496593
0.000478463
0.000501045
0.000501047
0.00050105
0.000456348
0.000423333
0.000423338
0.000434092
0.000434094
0.000470219
0.000485074
0.000502866
0.000502867
0.000441986
0.000406249
0.000401001
0.000401005
0.00048022
0.000501603
0.000501368
0.000501367
0.00050134
0.000461044
0.000497146
0.000497151
0.000468005
0.000487117
0.000475369
0.000443966
0.000443968
0.000448849
0.000491984
0.000491988
0.000491986
0.000468242
0.000465666
0.000476428
0.00048725
0.000430866
0.000430867
0.000430867
0.000463934
0.000477188
0.000477186
0.000477189
0.000459493
0.000459501
0.000463599
0.000529209
0.000481703
0.000470787
0.000493512
0.000493526
0.000492645
0.000438677
0.000429228
0.000429228
0.000432834
0.000434812
0.000441544
0.000481169
0.000470612
0.000446097
0.000485579
0.000485576
0.000485573
0.000433981
0.000473375
0.000480521
0.000478025
0.00043603
0.000436035
0.000473125
0.000491637
0.000491638
0.000486391
0.000432097
0.000428244
0.000428244
0.000430106
0.000376918
0.000376877
0.000375567
0.000361462
0.000371497
0.000380995
0.000382281
0.000411429
0.000412683
0.000370904
0.000367923
0.000375177
0.000376283
0.000377972
0.000368367
0.000376077
0.000401896
0.000361145
0.000347176
0.000348139
0.000381255
0.000383895
0.000401128
0.000390499
0.000391463
0.00041402
0.000415052
0.00040612
0.000422428
0.000400895
0.000370451
0.0003821
0.000394989
0.000393841
0.00041839
0.000413942
0.0004317
0.000432597
0.00040766
0.000408485
0.000433674
0.000423288
0.000386208
0.000386989
0.000388361
0.000399847
0.000402654
0.000390956
0.000391673
0.000392377
0.000396037
0.000421429
0.000422177
0.000411009
0.000407303
0.000424502
0.000380428
0.000381044
0.000381648
0.000420522
0.000430674
0.000431337
0.000428651
0.000380617
0.000381191
0.000425494
0.000439935
0.000440823
0.000441451
0.000482146
0.000482795
0.000384321
0.000384823
0.000411831
0.000447545
0.000448094
0.00044292
0.000394495
0.000394969
0.00039543
0.000395898
0.000437431
0.000457454
0.000397011
0.000397451
0.000445764
0.000470147
0.000460103
0.000450591
0.000431576
0.000430969
0.000432202
0.000405672
0.000446682
0.000445199
0.000427162
0.000423145
0.000412368
0.000405368
0.000444635
0.000424019
0.000421631
0.00042198
0.000472364
0.000437424
0.000437756
0.000465836
0.000451023
0.000439781
0.00046793
0.00049153
0.000490524
0.000479677
0.00046119
0.000421408
0.000421683
0.000474317
0.000473146
0.000443723
0.000457841
0.000442196
0.000441124
0.000447301
0.000418398
0.000398036
0.000398252
0.000473933
0.000445278
0.000443666
0.000443883
0.000467469
0.000456381
0.000444618
0.00046469
0.000464915
0.00051235
0.00051258
0.000512807
0.000458367
0.00043115
0.000431332
0.000438308
0.000433811
0.000433958
0.000494346
0.000494538
0.000494741
0.000494928
0.000451008
0.00045701
0.000482956
0.000442582
0.000442738
0.000459267
0.000442372
0.000497773
0.000500993
0.000501189
0.000501291
0.000481219
0.000457692
0.000469929
0.000458634
0.000500032
0.000502962
0.000468557
0.000430647
0.000454305
0.00045651
0.000522061
0.000478118
0.000431811
0.000431903
0.000444653
0.000480334
0.000480428
0.000462448
0.000462515
0.000462622
0.000465316
0.000476466
0.000474089
0.000445558
0.00043886
0.000491449
0.000491539
0.000491628
0.000491713
0.000487679
0.00048557
0.000433938
0.000432189
0.000496671
0.000496742
0.000496811
0.000446887
0.000446961
0.000447022
0.000466179
0.000453362
0.000450461
0.000454302
0.000448606
0.000493358
0.000487211
0.000469181
0.000461094
0.000458242
0.000445488
0.000445547
0.000445598
0.000492755
0.000492786
0.000492828
0.000475172
0.000476135
0.000474527
0.000474577
0.000491549
0.000469758
0.000426184
0.000422109
0.000410411
0.000410445
0.00043247
0.000462119
0.000502941
0.000503437
0.000466582
0.000485274
0.000468021
0.000474486
0.000442945
0.000441864
0.000478248
0.000469512
0.000516347
0.000516364
0.000516398
0.000445998
0.000423892
0.000423912
0.00042393
0.000473319
0.000473317
0.000466974
0.000516048
0.00052382
0.000523844
0.000467496
0.000467089
0.00048154
0.000500537
0.000500547
0.000431355
0.00044643
0.000446401
0.00046692
0.000466939
0.000466958
0.000482345
0.000479255
0.000503778
0.000503794
0.000476202
0.000458876
0.000466436
0.000460473
0.000485306
0.000514963
0.00051492
0.000459871
0.000459864
0.000459889
0.000459895
0.000477857
0.00048819
0.0004882
0.000481236
0.000465834
0.000446452
0.000446459
0.000478727
0.000476985
0.000457589
0.000432778
0.000432783
0.00045712
0.00050371
0.000503703
0.000486396
0.000486392
0.000507483
0.000519454
0.0004549
0.000443603
0.000443598
0.000443592
0.000496875
0.000496893
0.000426793
0.00043423
0.000465697
0.000525741
0.000525743
0.000476905
0.000472519
0.000472526
0.00046888
0.000450061
0.000474797
0.000474768
0.000478779
0.000483791
0.000456099
0.000439836
0.000439893
0.000439845
0.000439898
0.000485677
0.000448692
0.000448698
0.000451458
0.000451452
0.000468604
0.000468603
0.000474696
0.000476883
0.00048326
0.00049019
0.000490183
0.000471233
0.000502868
0.000502533
0.000493361
0.000508521
0.00050854
0.000480198
0.000503259
0.000470299
0.000448963
0.000448972
0.000448976
0.000448978
0.000518828
0.000518825
0.00051883
0.000450945
0.000443967
0.000455592
0.000448852
0.000456978
0.000456971
0.000490013
0.000506348
0.000506348
0.000499702
0.000456218
0.000432183
0.000470281
0.000470276
0.000468119
0.000440213
0.000443813
0.000423047
0.000459657
0.000459629
0.000437917
0.000529255
0.000543031
0.000482258
0.00044325
0.000443189
0.000461277
0.000461273
0.000429216
0.000429228
0.00042923
0.000429232
0.00047069
0.000453187
0.000434911
0.000434915
0.000455653
0.000485579
0.000485576
0.000459055
0.00045906
0.000480532
0.000461943
0.000452325
0.000439972
0.000439976
0.000445119
0.000477453
0.000475323
0.000432106
0.000431891
0.000454853
0.000489574
0.000447076
0.000376813
0.000386035
0.000456222
0.000383208
0.000407317
0.000399099
0.000381806
0.000369159
0.000370284
0.000364004
0.000361694
0.000379981
0.000381153
0.000368333
0.000360865
0.000361915
0.00039956
0.000400667
0.000401755
0.000402858
0.000372229
0.000373235
0.000390149
0.00039146
0.000381431
0.000382367
0.000406111
0.00042241
0.00034267
0.000343486
0.000373147
0.000374014
0.000374849
0.000424527
0.000369533
0.00042095
0.000427977
0.000419718
0.000424741
0.000415427
0.000416299
0.000428108
0.000426932
0.000388367
0.00040975
0.000440481
0.000441308
0.000418991
0.000414659
0.000391694
0.000392408
0.000412026
0.000406399
0.000402404
0.000403069
0.000437361
0.00043808
0.000425469
0.000422105
0.000422773
0.00042342
0.000426978
0.000419898
0.000423748
0.000405326
0.0004059
0.000415547
0.000407067
0.000451825
0.000484371
0.000485047
0.00040815
0.000448077
0.000447871
0.000413877
0.000437075
0.000394507
0.000394977
0.000411216
0.000408634
0.000409114
0.000409581
0.000491459
0.000491973
0.000486851
0.000470132
0.000437758
0.000438214
0.000439203
0.000418397
0.000406212
0.000405674
0.000446682
0.000458403
0.000453409
0.00044956
0.000449609
0.000405361
0.000405701
0.000406034
0.000422925
0.00042325
0.000472398
0.000507088
0.000507449
0.000505324
0.0004599
0.000413124
0.000413422
0.000432003
0.000433352
0.000445781
0.000467357
0.000467666
0.000443215
0.000430911
0.000431169
0.000443714
0.000420443
0.000420702
0.000441141
0.000439612
0.000438108
0.000472902
0.000473157
0.000426787
0.000427026
0.000451601
0.000488299
0.000488532
0.000473603
0.000413664
0.000413907
0.000414108
0.000414305
0.000508748
0.000480953
0.000458354
0.000459292
0.000459494
0.000459691
0.000440111
0.000433979
0.000434127
0.000434316
0.000444845
0.000435582
0.000435739
0.000467808
0.000450315
0.00043802
0.000468101
0.000468999
0.000442372
0.000433171
0.000433368
0.000433436
0.000433626
0.000433727
0.000462792
0.000471178
0.0004345
0.000398319
0.000398379
0.000398518
0.000398582
0.00040448
0.000404591
0.000522105
0.000534617
0.000502482
0.000431875
0.000426508
0.000426595
0.000480435
0.000480521
0.000467062
0.0004671
0.000450107
0.000450184
0.000468757
0.000468831
0.000431653
0.000416458
0.000416526
0.000456986
0.000491706
0.000487926
0.000480816
0.000419642
0.000409744
0.000409798
0.000469265
0.000472073
0.000432558
0.000466062
0.000466118
0.000466212
0.000466239
0.000447036
0.000439975
0.000445139
0.000493393
0.000493413
0.000456478
0.00041802
0.000418068
0.000433548
0.000487612
0.000496417
0.000496451
0.000448296
0.000448336
0.000455633
0.000455658
0.00047422
0.000491509
0.000491547
0.000490083
0.000490105
0.000474625
0.000477097
0.000488266
0.000446091
0.000446132
0.000454573
0.000469435
0.000466587
0.000501138
0.000515915
0.000515952
0.000441804
0.000441855
0.000478249
0.000458164
0.000516338
0.000516373
0.000495061
0.000452851
0.000466262
0.000466283
0.000466301
0.000463004
0.000463024
0.000472749
0.000471985
0.000451301
0.000433358
0.000429453
0.000472408
0.00047241
0.000472457
0.00049025
0.0004454
0.000445398
0.000457282
0.00045727
0.000466934
0.000443946
0.000404214
0.000404231
0.000436725
0.000488269
0.000488268
0.000440271
0.000410397
0.000411228
0.000401734
0.000486139
0.00053508
0.000535075
0.000518339
0.000503216
0.000503215
0.000497105
0.000459568
0.000504612
0.0005046
0.000497419
0.000448327
0.000446459
0.000483025
0.00046502
0.000457592
0.000459834
0.000459824
0.000424187
0.000424116
0.000424125
0.000486552
0.000502656
0.000519448
0.00051946
0.000507611
0.000462406
0.000455337
0.000427636
0.000427657
0.000430833
0.000424007
0.000424029
0.00042407
0.000525737
0.000525746
0.000525748
0.000495915
0.000454998
0.000468871
0.000468861
0.000468256
0.000473537
0.000483788
0.00048379
0.000470611
0.000475238
0.000485811
0.000492699
0.000441776
0.00044181
0.000467323
0.000467324
0.000467327
0.000465371
0.000439556
0.000439558
0.000476869
0.000476877
0.000447883
0.000447895
0.000447901
0.000447906
0.000453365
0.000413248
0.000413231
0.000413232
0.000518046
0.000524432
0.000504041
0.000453995
0.000453999
0.000486542
0.000486536
0.000477052
0.000455244
0.000455271
0.000455248
0.000474785
0.000474763
0.000464337
0.000466109
0.000466104
0.000466176
0.000466111
0.000506348
0.000506348
0.000496131
0.000493053
0.000434928
0.000451289
0.000449702
0.000430824
0.000430823
0.000453541
0.000421065
0.000408153
0.000408176
0.000408194
0.000408212
0.000550238
0.000550273
0.000494918
0.000506084
0.00044721
0.00042617
0.000426173
0.000441546
0.000479406
0.00047941
0.000479418
0.000484599
0.000484539
0.000484581
0.000465056
0.000460214
0.000456516
0.00045652
0.000489962
0.000483347
0.000433461
0.00043347
0.000458484
0.000498462
0.000489387
0.000446457
0.000446461
0.00046709
0.000508449
0.000508442
0.00048956
0.000415917
0.000376762
0.0003578
0.000424206
0.00039479
0.000351253
0.000352366
0.000381814
0.000369746
0.000370313
0.000420981
0.000404758
0.000383899
0.000381863
0.000416907
0.000418143
0.000407208
0.000375518
0.000376533
0.000380146
0.00037418
0.000374914
0.000405017
0.000348826
0.000349711
0.000361009
0.000402967
0.00039208
0.000386259
0.000381812
0.000412687
0.000418439
0.000379921
0.000377058
0.000382257
0.000360294
0.000439115
0.000446422
0.000447362
0.000448268
0.000449226
0.000450146
0.000451072
0.000424373
0.000401881
0.000439646
0.000440478
0.000441308
0.000391136
0.000391849
0.000424907
0.000400556
0.000390737
0.000397263
0.000417926
0.000405545
0.000406207
0.000444988
0.000445705
0.000438318
0.000440951
0.000441626
0.00042421
0.000442669
0.000432342
0.000405318
0.000405891
0.000406486
0.000407078
0.000472517
0.000484408
0.00048501
0.000485672
0.000466806
0.000395625
0.000384842
0.000453807
0.000454365
0.000446309
0.000411223
0.00040051
0.000430398
0.000430879
0.000427713
0.000428175
0.000448645
0.000470495
0.000470991
0.000471476
0.0004562
0.000391929
0.000392321
0.000406131
0.000457968
0.000458399
0.000425186
0.00041088
0.000405012
0.000405357
0.000413106
0.000413439
0.000359485
0.000359776
0.000497679
0.00050707
0.000436579
0.000436846
0.000438823
0.000458559
0.000478501
0.000478848
0.000477035
0.000445789
0.000446094
0.000451317
0.000453531
0.000430906
0.000431172
0.00043143
0.00050706
0.000507368
0.000485411
0.000485679
0.000461748
0.000435158
0.000435387
0.000417309
0.000460048
0.000460288
0.000455126
0.000460164
0.000472027
0.00045129
0.000413911
0.000414121
0.000437734
0.00050871
0.000508907
0.000462845
0.000455399
0.000451958
0.000480233
0.00048043
0.000492324
0.000492511
0.000434763
0.000434939
0.000474344
0.000474521
0.000474683
0.000453825
0.000434918
0.000466483
0.000470454
0.000470612
0.000447261
0.000472504
0.000466874
0.000486633
0.000486783
0.000481247
0.00048262
0.00046504
0.000481278
0.000481409
0.000433924
0.000398616
0.000407923
0.000404592
0.000513806
0.000534651
0.000506959
0.000439603
0.000439706
0.000433085
0.000433169
0.000443928
0.000498747
0.000498965
0.000499062
0.000499154
0.000466509
0.000418768
0.000418842
0.000423381
0.000438047
0.000471712
0.000471788
0.000482854
0.000474355
0.000497527
0.000507809
0.000409803
0.00042986
0.000471261
0.000432545
0.000431771
0.000429102
0.000415647
0.000415663
0.000415752
0.000415804
0.000415855
0.00050789
0.000454087
0.000417976
0.000418024
0.000448762
0.000448809
0.000448852
0.000448899
0.000478664
0.000478697
0.000461658
0.000466124
0.000466159
0.000453742
0.000422706
0.000420166
0.000420193
0.000437395
0.000458508
0.000459933
0.000505297
0.000513551
0.000470463
0.000459872
0.000500059
0.000505214
0.000505241
0.000485518
0.00044272
0.000427451
0.000455718
0.000459467
0.000381028
0.000486009
0.00051369
0.000463149
0.000433593
0.000424619
0.000424639
0.000452276
0.000528475
0.000528491
0.000488991
0.000473175
0.000465867
0.000400141
0.000400161
0.000469079
0.000519426
0.000519444
0.000519461
0.000481037
0.000445421
0.000445419
0.000450063
0.000450074
0.00045312
0.000470631
0.000470648
0.000470665
0.000471156
0.00048302
0.000474224
0.000458283
0.000430822
0.000399658
0.000535068
0.00053508
0.000525308
0.000460064
0.000439917
0.000422722
0.000421974
0.000421974
0.000464904
0.000464906
0.000518469
0.000518527
0.00051854
0.000491242
0.000465665
0.000466361
0.000439591
0.000452431
0.000455742
0.000456465
0.000443832
0.000440727
0.000440734
0.000429388
0.000424297
0.000403595
0.000403603
0.000421182
0.00042118
0.000469871
0.000469858
0.000420682
0.000464574
0.000464574
0.000523329
0.000457589
0.000457581
0.000465807
0.000454999
0.000455004
0.000468851
0.000442216
0.000436962
0.000436947
0.000436984
0.000436967
0.000437003
0.000474596
0.000492696
0.000492701
0.000459975
0.000457255
0.000466627
0.000453003
0.00048331
0.000483315
0.000439547
0.000439447
0.000439449
0.000439451
0.000484944
0.000484936
0.000482084
0.000482095
0.000477062
0.000418979
0.000413213
0.00052443
0.000524494
0.000524433
0.000487087
0.000463929
0.000440838
0.00042162
0.000421623
0.000481838
0.000455246
0.000455272
0.000455264
0.000474792
0.00047477
0.000433079
0.000428196
0.000473185
0.000473191
0.000473189
0.000440161
0.000450131
0.000450133
0.000492826
0.00043821
0.000436386
0.000436403
0.000471001
0.000470992
0.000463585
0.000438047
0.000408192
0.000408212
0.00040823
0.000550267
0.000550239
0.000550274
0.000544619
0.000502005
0.000501947
0.000463873
0.000463921
0.00044208
0.000441912
0.000441916
0.000484539
0.000484601
0.000440137
0.000433593
0.000433594
0.000494446
0.000494472
0.000489962
0.000505369
0.000505405
0.000505373
0.00050546
0.000505372
0.000489548
0.000459033
0.000446457
0.000508449
0.000508442
0.000420657
0.000376797
0.000376762
0.000376721
0.000399999
0.000349108
0.000322615
0.000347215
0.000371619
0.000374701
0.000380642
0.000405693
0.000409705
0.000395078
0.000393661
0.000380894
0.000351829
0.000352865
0.000398086
0.000406176
0.000392877
0.000392265
0.000416018
0.000426954
0.000428118
0.000408147
0.000422263
0.00042329
0.000417764
0.000385489
0.000386407
0.000397365
0.0003983
0.00041844
0.00040803
0.000358722
0.000359508
0.000360293
0.000439079
0.000429115
0.000399132
0.000399979
0.000400785
0.000443773
0.000459599
0.000460532
0.000413657
0.000416531
0.000398775
0.000399526
0.000405413
0.000408111
0.000427612
0.000428384
0.000390731
0.000391401
0.000417928
0.000418641
0.000419332
0.000444985
0.0004457
0.00042024
0.000403581
0.000404204
0.000418615
0.000442658
0.000423742