/*--------------------------------*- C++ -*----------------------------------*\
  =========                 |
  \\      /  F ield         | OpenFOAM: The Open Source CFD Toolbox
   \\    /   O peration     | Website:  https://openfoam.org
    \\  /    A nd           | Version:  7
     \\/     M anipulation  |
\*---------------------------------------------------------------------------*/
FoamFile
{
    version     2.0;
    format      ascii;
    class       volScalarField;
    location    "500";
    object      nuTotal;
}
// * * * * * * * * * * * * * * * * * * * * * * * * * * * * * * * * * * * * * //

dimensions      [0 2 -1 0 0 0 0];

internalField   nonuniform List<scalar> 
160000
(
7.45382e-07
7.4775e-07
7.61959e-07
7.56825e-07
7.63566e-07
7.66543e-07
7.61517e-07
7.57783e-07
7.68579e-07
7.68699e-07
7.73025e-07
7.76866e-07
7.80122e-07
7.79518e-07
7.81564e-07
7.83903e-07
7.86131e-07
7.852e-07
7.8182e-07
7.89222e-07
7.97188e-07
7.98134e-07
7.95151e-07
8.0034e-07
8.08585e-07
8.1002e-07
8.04351e-07
8.03951e-07
8.05821e-07
8.10326e-07
8.13633e-07
8.14527e-07
8.1636e-07
8.21439e-07
8.23173e-07
8.24905e-07
8.1922e-07
8.20906e-07
8.2252e-07
8.26307e-07
8.33491e-07
8.39247e-07
8.3215e-07
8.31176e-07
8.32713e-07
8.34282e-07
8.39657e-07
8.41639e-07
8.45834e-07
8.47799e-07
8.45864e-07
8.44302e-07
8.47806e-07
8.52226e-07
8.54451e-07
8.55814e-07
8.55573e-07
8.56925e-07
8.57625e-07
8.56241e-07
8.57563e-07
8.58878e-07
8.60453e-07
8.62429e-07
8.63281e-07
8.64482e-07
8.69248e-07
8.70454e-07
8.71612e-07
8.68893e-07
8.70002e-07
8.71131e-07
8.72336e-07
8.76251e-07
8.77307e-07
8.78368e-07
8.76269e-07
8.7607e-07
8.77071e-07
8.79448e-07
8.79881e-07
8.80879e-07
8.85778e-07
8.87012e-07
8.87941e-07
8.87882e-07
8.86868e-07
8.8752e-07
8.88142e-07
8.93199e-07
8.94038e-07
8.91963e-07
8.92815e-07
8.93654e-07
8.94629e-07
8.95386e-07
8.93262e-07
8.94014e-07
8.94755e-07
8.95792e-07
8.9692e-07
8.98847e-07
8.99007e-07
8.99713e-07
9.00122e-07
9.03427e-07
9.04078e-07
9.0272e-07
9.02618e-07
9.01703e-07
9.02329e-07
9.03477e-07
9.05418e-07
9.06996e-07
9.07556e-07
9.08481e-07
9.09036e-07
9.06357e-07
9.06136e-07
9.07995e-07
9.08521e-07
9.07258e-07
9.07548e-07
9.0804e-07
9.08796e-07
9.12416e-07
9.16381e-07
9.16836e-07
9.17254e-07
9.17702e-07
9.18003e-07
9.15478e-07
9.14914e-07
9.18725e-07
9.19149e-07
9.17859e-07
9.17691e-07
9.18073e-07
9.19852e-07
9.20203e-07
9.20567e-07
9.20946e-07
9.21298e-07
9.17621e-07
9.17973e-07
9.18311e-07
9.21686e-07
9.22918e-07
9.23233e-07
9.23535e-07
9.22407e-07
9.22699e-07
9.24199e-07
9.24673e-07
9.24953e-07
9.22999e-07
9.23266e-07
9.23466e-07
9.24443e-07
9.26067e-07
9.28131e-07
9.26307e-07
9.25284e-07
9.25518e-07
9.2574e-07
9.2486e-07
9.25901e-07
9.278e-07
9.2757e-07
9.27604e-07
9.2697e-07
9.27178e-07
9.28648e-07
9.28846e-07
9.29037e-07
9.28449e-07
9.27935e-07
9.28108e-07
9.28325e-07
9.2852e-07
9.28679e-07
9.25622e-07
9.31037e-07
9.31186e-07
9.31334e-07
9.29951e-07
9.28353e-07
9.28492e-07
9.30232e-07
9.32247e-07
9.33584e-07
9.33714e-07
9.31571e-07
9.33295e-07
9.33424e-07
9.33541e-07
9.29088e-07
9.29205e-07
9.32116e-07
9.3412e-07
9.34231e-07
9.33299e-07
9.29348e-07
9.29449e-07
9.30521e-07
9.32462e-07
9.30744e-07
9.28536e-07
9.28626e-07
9.29203e-07
9.30001e-07
9.31384e-07
9.31464e-07
9.31541e-07
9.31629e-07
9.32028e-07
9.321e-07
9.32169e-07
9.32245e-07
9.32311e-07
9.32382e-07
9.32444e-07
9.32512e-07
9.32573e-07
9.33109e-07
9.33169e-07
9.3324e-07
9.33548e-07
9.33017e-07
9.35819e-07
9.35869e-07
9.32441e-07
9.34101e-07
9.33129e-07
9.33175e-07
9.33223e-07
9.33661e-07
9.33704e-07
9.33906e-07
9.32606e-07
9.32646e-07
9.32696e-07
9.35307e-07
9.35345e-07
9.35358e-07
9.37217e-07
9.37252e-07
9.35273e-07
9.34682e-07
9.35526e-07
9.35053e-07
9.35084e-07
9.38734e-07
9.37217e-07
9.3317e-07
9.33199e-07
9.36131e-07
9.36156e-07
9.34718e-07
9.34745e-07
9.35838e-07
9.35865e-07
9.34973e-07
9.34977e-07
9.34531e-07
9.33395e-07
9.33416e-07
9.3592e-07
9.36843e-07
9.37781e-07
9.378e-07
9.35388e-07
9.35405e-07
9.34912e-07
9.34929e-07
9.34949e-07
9.34114e-07
9.3413e-07
9.37289e-07
9.33812e-07
9.33827e-07
9.33408e-07
9.33422e-07
9.35035e-07
9.36042e-07
9.34163e-07
9.34175e-07
9.34186e-07
9.37218e-07
9.3864e-07
9.38651e-07
9.38662e-07
9.3364e-07
9.3365e-07
9.33659e-07
9.3367e-07
9.35e-07
9.35222e-07
9.35231e-07
9.36899e-07
9.36906e-07
9.34643e-07
9.34155e-07
9.34163e-07
9.35378e-07
9.37263e-07
9.36826e-07
9.37023e-07
9.34576e-07
9.34582e-07
9.34589e-07
9.34772e-07
9.34778e-07
9.34929e-07
9.37188e-07
9.37035e-07
9.37034e-07
9.379e-07
9.37902e-07
9.37909e-07
9.37911e-07
9.36006e-07
9.36011e-07
9.36128e-07
9.36132e-07
9.34945e-07
9.34949e-07
9.377e-07
9.37626e-07
9.37628e-07
9.37851e-07
9.37854e-07
9.38483e-07
9.39448e-07
9.39451e-07
9.37854e-07
9.39261e-07
9.39352e-07
9.3935e-07
9.39359e-07
9.39356e-07
9.39362e-07
9.39362e-07
9.3442e-07
9.30891e-07
9.30893e-07
9.30892e-07
9.30898e-07
9.3179e-07
9.36601e-07
9.38032e-07
9.3535e-07
9.3509e-07
9.36291e-07
9.34829e-07
9.3483e-07
9.3703e-07
9.37031e-07
9.36398e-07
9.35993e-07
9.34597e-07
9.34598e-07
9.35085e-07
9.36052e-07
9.36051e-07
9.36055e-07
9.34166e-07
9.34167e-07
9.34168e-07
9.34169e-07
9.3417e-07
9.34168e-07
9.34171e-07
9.3417e-07
9.3475e-07
9.35644e-07
9.35644e-07
9.35427e-07
9.35428e-07
9.34436e-07
9.34961e-07
9.36122e-07
9.36979e-07
9.36314e-07
9.36316e-07
9.36312e-07
9.36316e-07
9.36313e-07
9.36865e-07
9.35672e-07
9.35672e-07
9.35683e-07
9.37786e-07
9.37954e-07
9.36482e-07
9.36529e-07
9.37338e-07
9.37341e-07
9.41313e-07
9.44948e-07
7.50703e-07
7.56833e-07
7.46963e-07
7.62813e-07
7.65176e-07
7.64707e-07
7.66693e-07
7.6844e-07
7.66929e-07
7.69175e-07
7.76234e-07
7.7276e-07
7.74931e-07
7.77233e-07
7.7837e-07
7.81297e-07
7.87689e-07
7.89826e-07
7.89751e-07
7.95181e-07
7.97223e-07
7.951e-07
7.95185e-07
7.97154e-07
8.01801e-07
8.01064e-07
8.03782e-07
8.08393e-07
8.10277e-07
8.11927e-07
8.13951e-07
8.15737e-07
8.16373e-07
8.18769e-07
8.23166e-07
8.20293e-07
8.2168e-07
8.2332e-07
8.22456e-07
8.32173e-07
8.38239e-07
8.3987e-07
8.41501e-07
8.33557e-07
8.32708e-07
8.3494e-07
8.40017e-07
8.41077e-07
8.46264e-07
8.47806e-07
8.49308e-07
8.4433e-07
8.44268e-07
8.45684e-07
8.52363e-07
8.48596e-07
8.52001e-07
8.56619e-07
8.57219e-07
8.58511e-07
8.59159e-07
8.6009e-07
8.63211e-07
8.62422e-07
8.63611e-07
8.67296e-07
8.65731e-07
8.66627e-07
8.67785e-07
8.68903e-07
8.72327e-07
8.74077e-07
8.75156e-07
8.74207e-07
8.75263e-07
8.76427e-07
8.78066e-07
8.78944e-07
8.79062e-07
8.8065e-07
8.81649e-07
8.81735e-07
8.81982e-07
8.8291e-07
8.83841e-07
8.85928e-07
8.86869e-07
8.86521e-07
8.87372e-07
8.8822e-07
8.89429e-07
8.924e-07
8.93808e-07
8.94643e-07
8.94744e-07
8.94755e-07
8.9657e-07
8.98951e-07
8.99699e-07
8.99218e-07
8.98666e-07
8.99379e-07
8.96684e-07
8.97374e-07
8.98069e-07
8.99088e-07
8.99733e-07
9.02861e-07
9.036e-07
9.04234e-07
9.04856e-07
9.05449e-07
9.04327e-07
9.05018e-07
9.07282e-07
9.08358e-07
9.07973e-07
9.06376e-07
9.0586e-07
9.06398e-07
9.10311e-07
9.10816e-07
9.1128e-07
9.11771e-07
9.12092e-07
9.11671e-07
9.12811e-07
9.11729e-07
9.12179e-07
9.13561e-07
9.16585e-07
9.1419e-07
9.12652e-07
9.13096e-07
9.14228e-07
9.14318e-07
9.17685e-07
9.18079e-07
9.16779e-07
9.17135e-07
9.17497e-07
9.17869e-07
9.186e-07
9.18844e-07
9.22556e-07
9.22545e-07
9.1858e-07
9.2017e-07
9.21244e-07
9.21503e-07
9.24085e-07
9.24383e-07
9.22399e-07
9.22684e-07
9.22963e-07
9.23239e-07
9.23504e-07
9.23469e-07
9.27577e-07
9.27624e-07
9.28879e-07
9.29126e-07
9.29366e-07
9.27546e-07
9.25387e-07
9.2486e-07
9.25087e-07
9.27799e-07
9.27698e-07
9.27906e-07
9.26985e-07
9.28646e-07
9.25616e-07
9.25804e-07
9.25999e-07
9.2617e-07
9.27502e-07
9.28112e-07
9.26701e-07
9.26822e-07
9.24528e-07
9.24685e-07
9.28192e-07
9.28335e-07
9.28484e-07
9.29733e-07
9.33653e-07
9.33791e-07
9.26551e-07
9.26674e-07
9.2681e-07
9.28868e-07
9.27444e-07
9.2757e-07
9.29725e-07
9.29844e-07
9.30484e-07
9.29207e-07
9.29471e-07
9.29902e-07
9.33295e-07
9.334e-07
9.29995e-07
9.29446e-07
9.31093e-07
9.33385e-07
9.33477e-07
9.33566e-07
9.33654e-07
9.3374e-07
9.33824e-07
9.31382e-07
9.31464e-07
9.3157e-07
9.30774e-07
9.31526e-07
9.3541e-07
9.35481e-07
9.35554e-07
9.34546e-07
9.32538e-07
9.32447e-07
9.32594e-07
9.3266e-07
9.32345e-07
9.33718e-07
9.33777e-07
9.33833e-07
9.32089e-07
9.32143e-07
9.32194e-07
9.32242e-07
9.34266e-07
9.37671e-07
9.37718e-07
9.32752e-07
9.32798e-07
9.32841e-07
9.33908e-07
9.33948e-07
9.3399e-07
9.32579e-07
9.32619e-07
9.32897e-07
9.34978e-07
9.33348e-07
9.33388e-07
9.33738e-07
9.34384e-07
9.36433e-07
9.36958e-07
9.37394e-07
9.40186e-07
9.40215e-07
9.3418e-07
9.35144e-07
9.3631e-07
9.33427e-07
9.35246e-07
9.36044e-07
9.36069e-07
9.34902e-07
9.34926e-07
9.37467e-07
9.38576e-07
9.38598e-07
9.38619e-07
9.3314e-07
9.33161e-07
9.3318e-07
9.378e-07
9.39512e-07
9.3953e-07
9.39546e-07
9.35814e-07
9.3504e-07
9.3688e-07
9.38556e-07
9.3857e-07
9.3691e-07
9.3701e-07
9.37024e-07
9.36776e-07
9.36787e-07
9.36802e-07
9.36812e-07
9.36824e-07
9.3637e-07
9.32956e-07
9.32968e-07
9.33895e-07
9.36946e-07
9.39697e-07
9.39706e-07
9.39581e-07
9.33669e-07
9.33912e-07
9.35165e-07
9.31973e-07
9.32343e-07
9.36455e-07
9.37068e-07
9.37075e-07
9.36675e-07
9.37574e-07
9.3853e-07
9.36826e-07
9.38282e-07
9.38288e-07
9.34582e-07
9.36064e-07
9.34772e-07
9.37389e-07
9.37394e-07
9.37399e-07
9.37404e-07
9.35455e-07
9.33751e-07
9.33755e-07
9.33759e-07
9.379e-07
9.37903e-07
9.36003e-07
9.36007e-07
9.36109e-07
9.34945e-07
9.3627e-07
9.38089e-07
9.38092e-07
9.33554e-07
9.34209e-07
9.38189e-07
9.3684e-07
9.36842e-07
9.38201e-07
9.36861e-07
9.34538e-07
9.37168e-07
9.37406e-07
9.35283e-07
9.38934e-07
9.39358e-07
9.39363e-07
9.3609e-07
9.32061e-07
9.3697e-07
9.38057e-07
9.34772e-07
9.34798e-07
9.36976e-07
9.38032e-07
9.3463e-07
9.34789e-07
9.3629e-07
9.36292e-07
9.34266e-07
9.34213e-07
9.33571e-07
9.33572e-07
9.34424e-07
9.35959e-07
9.3596e-07
9.35961e-07
9.3476e-07
9.34763e-07
9.34759e-07
9.35338e-07
9.36535e-07
9.36535e-07
9.35735e-07
9.35735e-07
9.35735e-07
9.35395e-07
9.34799e-07
9.34593e-07
9.34594e-07
9.34515e-07
9.34515e-07
9.34515e-07
9.34436e-07
9.34436e-07
9.37366e-07
9.39554e-07
9.39554e-07
9.39005e-07
9.39789e-07
9.39789e-07
9.38446e-07
9.36863e-07
9.38005e-07
9.38e-07
9.35463e-07
9.37954e-07
9.37954e-07
9.36051e-07
9.3605e-07
9.369e-07
9.36898e-07
9.40946e-07
9.44954e-07
7.5067e-07
7.51238e-07
7.4687e-07
7.50117e-07
7.54851e-07
7.64354e-07
7.61664e-07
7.64173e-07
7.67913e-07
7.69561e-07
7.7183e-07
7.74073e-07
7.76177e-07
7.76113e-07
7.78326e-07
7.83201e-07
7.87025e-07
7.91493e-07
7.9086e-07
7.91052e-07
7.93103e-07
7.95257e-07
7.97532e-07
7.98459e-07
7.98478e-07
8.0037e-07
8.03326e-07
8.05239e-07
8.07167e-07
8.11282e-07
8.12816e-07
8.14607e-07
8.17725e-07
8.20999e-07
8.23198e-07
8.19123e-07
8.20844e-07
8.22502e-07
8.25012e-07
8.28494e-07
8.30099e-07
8.31754e-07
8.33369e-07
8.34925e-07
8.40407e-07
8.41998e-07
8.40004e-07
8.39963e-07
8.41439e-07
8.43975e-07
8.49325e-07
8.49257e-07
8.47833e-07
8.45827e-07
8.47213e-07
8.48567e-07
8.50543e-07
8.58488e-07
8.59856e-07
8.61162e-07
8.61385e-07
8.60065e-07
8.63576e-07
8.64797e-07
8.65314e-07
8.67303e-07
8.6851e-07
8.69667e-07
8.70104e-07
8.68913e-07
8.70513e-07
8.73604e-07
8.75959e-07
8.77021e-07
8.75346e-07
8.76668e-07
8.78059e-07
8.78548e-07
8.79575e-07
8.80802e-07
8.80144e-07
8.81123e-07
8.86358e-07
8.87285e-07
8.83835e-07
8.85189e-07
8.86111e-07
8.89297e-07
8.90163e-07
8.88563e-07
8.90259e-07
8.92426e-07
8.92212e-07
8.93028e-07
8.95055e-07
8.94743e-07
8.9503e-07
8.9578e-07
8.96526e-07
8.97555e-07
8.96573e-07
8.9728e-07
8.99358e-07
8.97725e-07
9.00899e-07
9.01959e-07
9.02614e-07
9.02118e-07
9.00749e-07
9.03402e-07
9.04848e-07
9.03744e-07
9.04335e-07
9.04056e-07
9.0462e-07
9.07553e-07
9.07968e-07
9.08604e-07
9.1028e-07
9.10946e-07
9.11178e-07
9.09658e-07
9.10159e-07
9.10651e-07
9.11159e-07
9.11641e-07
9.12344e-07
9.12195e-07
9.14247e-07
9.14686e-07
9.14993e-07
9.15422e-07
9.1586e-07
9.16187e-07
9.13636e-07
9.14072e-07
9.14896e-07
9.17524e-07
9.20846e-07
9.19311e-07
9.18436e-07
9.21743e-07
9.22104e-07
9.1861e-07
9.23241e-07
9.23581e-07
9.17883e-07
9.18198e-07
9.19126e-07
9.21035e-07
9.23162e-07
9.24379e-07
9.22415e-07
9.25351e-07
9.25639e-07
9.25911e-07
9.21853e-07
9.25442e-07
9.28655e-07
9.28911e-07
9.26239e-07
9.22605e-07
9.22846e-07
9.23366e-07
9.25264e-07
9.27415e-07
9.28487e-07
9.28705e-07
9.26345e-07
9.26685e-07
9.27777e-07
9.30051e-07
9.30247e-07
9.30437e-07
9.27064e-07
9.26164e-07
9.2635e-07
9.26526e-07
9.28022e-07
9.29771e-07
9.30704e-07
9.27589e-07
9.27638e-07
9.29113e-07
9.29263e-07
9.27761e-07
9.27905e-07
9.28044e-07
9.29394e-07
9.32134e-07
9.32267e-07
9.3121e-07
9.29273e-07
9.28993e-07
9.29114e-07
9.32306e-07
9.32424e-07
9.29208e-07
9.30376e-07
9.32589e-07
9.32244e-07
9.32351e-07
9.33871e-07
9.33972e-07
9.33207e-07
9.31853e-07
9.31945e-07
9.32035e-07
9.32539e-07
9.33499e-07
9.31918e-07
9.34842e-07
9.34924e-07
9.32084e-07
9.30774e-07
9.3135e-07
9.3541e-07
9.35483e-07
9.32591e-07
9.31986e-07
9.32055e-07
9.32814e-07
9.3265e-07
9.31352e-07
9.31389e-07
9.30092e-07
9.30151e-07
9.33002e-07
9.34996e-07
9.35049e-07
9.33042e-07
9.32309e-07
9.3757e-07
9.37669e-07
9.37036e-07
9.37083e-07
9.37127e-07
9.32714e-07
9.32663e-07
9.32704e-07
9.32745e-07
9.32783e-07
9.35742e-07
9.38561e-07
9.38599e-07
9.38635e-07
9.35206e-07
9.35241e-07
9.35272e-07
9.3394e-07
9.36937e-07
9.395e-07
9.40185e-07
9.37447e-07
9.35377e-07
9.37237e-07
9.37264e-07
9.33427e-07
9.33453e-07
9.33478e-07
9.35331e-07
9.37269e-07
9.37291e-07
9.33904e-07
9.33795e-07
9.33817e-07
9.37731e-07
9.3775e-07
9.37769e-07
9.34947e-07
9.33289e-07
9.33303e-07
9.33325e-07
9.33337e-07
9.36658e-07
9.3667e-07
9.35663e-07
9.38556e-07
9.34767e-07
9.34782e-07
9.34794e-07
9.35884e-07
9.36774e-07
9.34631e-07
9.33602e-07
9.33614e-07
9.33626e-07
9.34575e-07
9.34586e-07
9.33164e-07
9.37775e-07
9.37785e-07
9.37685e-07
9.35168e-07
9.33976e-07
9.33987e-07
9.33992e-07
9.31964e-07
9.31973e-07
9.36753e-07
9.3784e-07
9.37848e-07
9.34227e-07
9.34236e-07
9.3619e-07
9.39321e-07
9.39328e-07
9.39334e-07
9.37654e-07
9.38587e-07
9.38593e-07
9.36223e-07
9.35777e-07
9.35784e-07
9.34825e-07
9.33918e-07
9.33922e-07
9.33926e-07
9.35218e-07
9.33635e-07
9.33639e-07
9.33644e-07
9.36949e-07
9.39858e-07
9.39861e-07
9.38869e-07
9.38872e-07
9.35875e-07
9.34779e-07
9.33554e-07
9.33557e-07
9.38191e-07
9.41587e-07
9.42141e-07
9.42144e-07
9.35152e-07
9.33659e-07
9.33678e-07
9.33681e-07
9.33685e-07
9.3663e-07
9.33973e-07
9.33975e-07
9.36091e-07
9.34677e-07
9.35536e-07
9.38058e-07
9.38059e-07
9.37645e-07
9.34345e-07
9.34346e-07
9.34348e-07
9.36089e-07
9.36291e-07
9.35472e-07
9.34687e-07
9.39239e-07
9.3924e-07
9.39241e-07
9.36435e-07
9.35424e-07
9.35425e-07
9.35426e-07
9.36792e-07
9.36792e-07
9.36468e-07
9.31965e-07
9.351e-07
9.35914e-07
9.34264e-07
9.34264e-07
9.34326e-07
9.38552e-07
9.39407e-07
9.39407e-07
9.39078e-07
9.38899e-07
9.38304e-07
9.35146e-07
9.35934e-07
9.37913e-07
9.3483e-07
9.3483e-07
9.34831e-07
9.38978e-07
9.35727e-07
9.35197e-07
9.35381e-07
9.38795e-07
9.38795e-07
9.35748e-07
9.34405e-07
9.34405e-07
9.34775e-07
9.39152e-07
9.39506e-07
9.39506e-07
9.39334e-07
9.44954e-07
9.44959e-07
7.48942e-07
7.52924e-07
7.54356e-07
7.55896e-07
7.58265e-07
7.58076e-07
7.60354e-07
7.66711e-07
7.69443e-07
7.71053e-07
7.73292e-07
7.75392e-07
7.78695e-07
7.80173e-07
7.79967e-07
7.86387e-07
7.90298e-07
7.92461e-07
7.90947e-07
7.92882e-07
7.93338e-07
7.96475e-07
7.98464e-07
7.98362e-07
8.00328e-07
8.03114e-07
8.03616e-07
8.07551e-07
8.12703e-07
8.13372e-07
8.13948e-07
8.15945e-07
8.15553e-07
8.17837e-07
8.18192e-07
8.19908e-07
8.23855e-07
8.25498e-07
8.24988e-07
8.27612e-07
8.32903e-07
8.34561e-07
8.36099e-07
8.36584e-07
8.37957e-07
8.40748e-07
8.4226e-07
8.43746e-07
8.44951e-07
8.44136e-07
8.45635e-07
8.4821e-07
8.50008e-07
8.49876e-07
8.55657e-07
8.57018e-07
8.58353e-07
8.55906e-07
8.56401e-07
8.57703e-07
8.59261e-07
8.65294e-07
8.66573e-07
8.63471e-07
8.63485e-07
8.64679e-07
8.65889e-07
8.64062e-07
8.65193e-07
8.74891e-07
8.76e-07
8.74367e-07
8.72384e-07
8.73456e-07
8.75e-07
8.80609e-07
8.81633e-07
8.82649e-07
8.8368e-07
8.80799e-07
8.80194e-07
8.86621e-07
8.87575e-07
8.841e-07
8.83175e-07
8.84894e-07
8.86576e-07
8.89103e-07
8.9006e-07
8.90848e-07
8.94203e-07
8.91363e-07
8.92344e-07
8.9473e-07
8.95905e-07
8.97732e-07
8.99222e-07
8.96402e-07
8.98959e-07
8.99963e-07
9.00691e-07
8.97269e-07
9.00762e-07
9.01442e-07
8.99885e-07
9.01746e-07
9.0337e-07
9.01786e-07
9.00758e-07
9.01479e-07
9.02861e-07
9.04855e-07
9.08864e-07
9.09438e-07
9.05675e-07
9.06337e-07
9.09224e-07
9.08656e-07
9.10514e-07
9.11156e-07
9.11173e-07
9.1427e-07
9.16844e-07
9.17331e-07
9.11156e-07
9.13918e-07
9.14547e-07
9.15006e-07
9.13577e-07
9.14898e-07
9.16312e-07
9.1515e-07
9.15583e-07
9.12721e-07
9.13134e-07
9.13523e-07
9.17765e-07
9.20471e-07
9.20844e-07
9.20606e-07
9.21386e-07
9.21745e-07
9.17412e-07
9.17764e-07
9.18108e-07
9.18451e-07
9.22072e-07
9.21909e-07
9.20262e-07
9.2374e-07
9.24044e-07
9.22987e-07
9.24681e-07
9.20767e-07
9.20844e-07
9.21114e-07
9.21386e-07
9.23051e-07
9.25103e-07
9.24414e-07
9.25556e-07
9.22791e-07
9.22845e-07
9.25527e-07
9.28919e-07
9.27113e-07
9.27167e-07
9.22794e-07
9.25951e-07
9.29944e-07
9.30152e-07
9.29236e-07
9.26631e-07
9.26823e-07
9.28373e-07
9.28556e-07
9.28737e-07
9.28709e-07
9.2804e-07
9.28393e-07
9.30841e-07
9.31582e-07
9.27635e-07
9.27787e-07
9.27938e-07
9.28087e-07
9.28518e-07
9.28812e-07
9.33085e-07
9.33384e-07
9.28462e-07
9.28592e-07
9.2872e-07
9.32632e-07
9.32751e-07
9.3287e-07
9.31442e-07
9.32588e-07
9.32946e-07
9.32744e-07
9.33327e-07
9.30029e-07
9.30566e-07
9.31999e-07
9.3273e-07
9.33058e-07
9.34209e-07
9.34299e-07
9.34388e-07
9.30854e-07
9.30939e-07
9.31026e-07
9.32378e-07
9.32387e-07
9.32586e-07
9.32661e-07
9.31512e-07
9.33176e-07
9.36933e-07
9.3739e-07
9.38612e-07
9.38677e-07
9.36633e-07
9.34186e-07
9.31291e-07
9.3132e-07
9.34022e-07
9.32688e-07
9.34026e-07
9.33591e-07
9.36183e-07
9.3633e-07
9.33469e-07
9.34176e-07
9.30977e-07
9.31023e-07
9.31068e-07
9.36267e-07
9.38297e-07
9.38339e-07
9.3838e-07
9.34248e-07
9.34289e-07
9.34815e-07
9.31426e-07
9.30982e-07
9.31018e-07
9.34926e-07
9.34991e-07
9.33941e-07
9.32647e-07
9.32679e-07
9.38128e-07
9.36829e-07
9.36862e-07
9.35224e-07
9.35251e-07
9.35277e-07
9.34151e-07
9.34403e-07
9.32718e-07
9.32741e-07
9.34703e-07
9.36067e-07
9.35492e-07
9.35985e-07
9.34131e-07
9.32157e-07
9.3218e-07
9.36118e-07
9.36138e-07
9.36155e-07
9.36173e-07
9.34809e-07
9.34079e-07
9.34096e-07
9.34613e-07
9.35789e-07
9.37384e-07
9.37398e-07
9.34858e-07
9.35001e-07
9.36518e-07
9.38658e-07
9.38671e-07
9.36596e-07
9.33194e-07
9.33206e-07
9.34408e-07
9.3442e-07
9.32993e-07
9.32241e-07
9.36858e-07
9.37818e-07
9.37829e-07
9.37839e-07
9.33762e-07
9.3377e-07
9.39376e-07
9.38702e-07
9.36071e-07
9.31949e-07
9.31957e-07
9.35241e-07
9.35578e-07
9.35584e-07
9.35869e-07
9.37386e-07
9.35434e-07
9.35442e-07
9.35151e-07
9.34792e-07
9.36919e-07
9.38301e-07
9.38301e-07
9.38311e-07
9.38311e-07
9.34689e-07
9.37564e-07
9.37569e-07
9.37342e-07
9.37347e-07
9.35979e-07
9.35983e-07
9.35524e-07
9.35365e-07
9.34902e-07
9.34413e-07
9.34417e-07
9.35804e-07
9.33557e-07
9.33583e-07
9.34208e-07
9.33195e-07
9.33197e-07
9.35154e-07
9.33549e-07
9.359e-07
9.37614e-07
9.37616e-07
9.37618e-07
9.3762e-07
9.32562e-07
9.32565e-07
9.32567e-07
9.37464e-07
9.38057e-07
9.37084e-07
9.37645e-07
9.36975e-07
9.36978e-07
9.34486e-07
9.33379e-07
9.33381e-07
9.33824e-07
9.37047e-07
9.39118e-07
9.3594e-07
9.35942e-07
9.36109e-07
9.38406e-07
9.38094e-07
9.39977e-07
9.36779e-07
9.36782e-07
9.38613e-07
9.31962e-07
9.3116e-07
9.3506e-07
9.3815e-07
9.38156e-07
9.36657e-07
9.36658e-07
9.39408e-07
9.39407e-07
9.39408e-07
9.39408e-07
9.35927e-07
9.37317e-07
9.38892e-07
9.38892e-07
9.37116e-07
9.3483e-07
9.34831e-07
9.36842e-07
9.36842e-07
9.35196e-07
9.36612e-07
9.37392e-07
9.38446e-07
9.38446e-07
9.38e-07
9.35424e-07
9.35583e-07
9.39151e-07
9.39171e-07
9.37185e-07
9.3455e-07
9.37834e-07
9.44967e-07
7.47911e-07
7.44741e-07
7.53169e-07
7.53506e-07
7.56699e-07
7.60802e-07
7.64509e-07
7.66799e-07
7.69907e-07
7.72516e-07
7.72903e-07
7.75012e-07
7.78611e-07
7.81882e-07
7.84108e-07
7.82461e-07
7.84568e-07
7.86699e-07
7.88796e-07
7.94089e-07
7.9617e-07
7.96538e-07
7.98459e-07
8.01475e-07
8.03423e-07
8.0309e-07
8.03592e-07
8.13994e-07
8.15906e-07
8.14311e-07
8.16166e-07
8.17948e-07
8.15025e-07
8.22295e-07
8.19125e-07
8.20289e-07
8.22714e-07
8.24017e-07
8.26585e-07
8.28292e-07
8.28991e-07
8.30807e-07
8.36116e-07
8.35656e-07
8.34629e-07
8.36176e-07
8.39623e-07
8.41565e-07
8.45396e-07
8.46921e-07
8.46564e-07
8.48621e-07
8.50488e-07
8.51873e-07
8.50247e-07
8.51621e-07
8.54081e-07
8.55762e-07
8.57098e-07
8.58387e-07
8.594e-07
8.61353e-07
8.62331e-07
8.65321e-07
8.66507e-07
8.66873e-07
8.68955e-07
8.66296e-07
8.65111e-07
8.66232e-07
8.73594e-07
8.71212e-07
8.72366e-07
8.76443e-07
8.75491e-07
8.80614e-07
8.81653e-07
8.81084e-07
8.8238e-07
8.83386e-07
8.84366e-07
8.78785e-07
8.79737e-07
8.81038e-07
8.83166e-07
8.86684e-07
8.87591e-07
8.88433e-07
8.91197e-07
8.93272e-07
8.94206e-07
8.9136e-07
8.91281e-07
8.92513e-07
8.93628e-07
8.94429e-07
8.99218e-07
8.99958e-07
9.00683e-07
8.9983e-07
9.00578e-07
8.97289e-07
8.95626e-07
8.96305e-07
8.97143e-07
9.0103e-07
9.05789e-07
9.0643e-07
9.05369e-07
9.05907e-07
9.05473e-07
9.04374e-07
9.04965e-07
9.07531e-07
9.09203e-07
9.09746e-07
9.09213e-07
9.11873e-07
9.12431e-07
9.11147e-07
9.1182e-07
9.12483e-07
9.10218e-07
9.10708e-07
9.15039e-07
9.1553e-07
9.13891e-07
9.11605e-07
9.12052e-07
9.13577e-07
9.19124e-07
9.19556e-07
9.19993e-07
9.20413e-07
9.13376e-07
9.15665e-07
9.1777e-07
9.18087e-07
9.18468e-07
9.18837e-07
9.20832e-07
9.2174e-07
9.22098e-07
9.22443e-07
9.21883e-07
9.23043e-07
9.2337e-07
9.21061e-07
9.22772e-07
9.24137e-07
9.21991e-07
9.22228e-07
9.24679e-07
9.25784e-07
9.26058e-07
9.26337e-07
9.26602e-07
9.26867e-07
9.24697e-07
9.24317e-07
9.2759e-07
9.31383e-07
9.31628e-07
9.31857e-07
9.32083e-07
9.31691e-07
9.31918e-07
9.22798e-07
9.22266e-07
9.24475e-07
9.30148e-07
9.30848e-07
9.31047e-07
9.26821e-07
9.27007e-07
9.28203e-07
9.28385e-07
9.29927e-07
9.30099e-07
9.28793e-07
9.2896e-07
9.32225e-07
9.33818e-07
9.33969e-07
9.30528e-07
9.28086e-07
9.28502e-07
9.29156e-07
9.34417e-07
9.35537e-07
9.35671e-07
9.30572e-07
9.30492e-07
9.33887e-07
9.31201e-07
9.3132e-07
9.31439e-07
9.31559e-07
9.33234e-07
9.33956e-07
9.3362e-07
9.30028e-07
9.30132e-07
9.32998e-07
9.36517e-07
9.3661e-07
9.35256e-07
9.31033e-07
9.30514e-07
9.306e-07
9.34336e-07
9.34421e-07
9.339e-07
9.3398e-07
9.32609e-07
9.31438e-07
9.31514e-07
9.3169e-07
9.31761e-07
9.32953e-07
9.32838e-07
9.32099e-07
9.35435e-07
9.35497e-07
9.34856e-07
9.3374e-07
9.34021e-07
9.31591e-07
9.3069e-07
9.30742e-07
9.36281e-07
9.36331e-07
9.3347e-07
9.35068e-07
9.30978e-07
9.31023e-07
9.32469e-07
9.35691e-07
9.34661e-07
9.34704e-07
9.34746e-07
9.35045e-07
9.35084e-07
9.34373e-07
9.3447e-07
9.3615e-07
9.37745e-07
9.38138e-07
9.34584e-07
9.34618e-07
9.34648e-07
9.33384e-07
9.36886e-07
9.36917e-07
9.35958e-07
9.35989e-07
9.35251e-07
9.37157e-07
9.40956e-07
9.40981e-07
9.37868e-07
9.33803e-07
9.33828e-07
9.37628e-07
9.40467e-07
9.40406e-07
9.41412e-07
9.34094e-07
9.30954e-07
9.30974e-07
9.32005e-07
9.32996e-07
9.33015e-07
9.33444e-07
9.36234e-07
9.32975e-07
9.32993e-07
9.3349e-07
9.37225e-07
9.37398e-07
9.34544e-07
9.35913e-07
9.36518e-07
9.36351e-07
9.36365e-07
9.39481e-07
9.39501e-07
9.39512e-07
9.34397e-07
9.333e-07
9.32231e-07
9.32241e-07
9.33006e-07
9.36264e-07
9.36843e-07
9.3927e-07
9.39277e-07
9.38993e-07
9.39638e-07
9.39645e-07
9.3965e-07
9.31949e-07
9.31957e-07
9.31964e-07
9.33894e-07
9.36964e-07
9.3587e-07
9.35877e-07
9.35931e-07
9.35535e-07
9.34786e-07
9.34792e-07
9.35775e-07
9.35431e-07
9.34664e-07
9.34184e-07
9.38147e-07
9.38149e-07
9.36059e-07
9.36064e-07
9.36069e-07
9.36225e-07
9.38369e-07
9.38373e-07
9.35362e-07
9.35366e-07
9.37667e-07
9.3767e-07
9.37673e-07
9.37676e-07
9.37223e-07
9.40871e-07
9.40876e-07
9.40879e-07
9.32591e-07
9.32199e-07
9.33497e-07
9.37193e-07
9.37195e-07
9.34707e-07
9.3471e-07
9.35402e-07
9.37102e-07
9.37103e-07
9.37107e-07
9.35579e-07
9.35583e-07
9.36384e-07
9.36248e-07
9.3625e-07
9.36246e-07
9.36253e-07
9.33379e-07
9.33381e-07
9.34067e-07
9.3428e-07
9.3887e-07
9.37455e-07
9.37589e-07
9.39246e-07
9.39248e-07
9.37274e-07
9.40167e-07
9.41451e-07
9.4145e-07
9.41449e-07
9.41448e-07
9.30757e-07
9.30756e-07
9.34167e-07
9.33418e-07
9.37813e-07
9.39691e-07
9.39691e-07
9.38302e-07
9.35274e-07
9.35274e-07
9.35274e-07
9.34898e-07
9.34903e-07
9.34901e-07
9.36365e-07
9.36748e-07
9.37047e-07
9.37047e-07
9.34521e-07
9.34992e-07
9.39026e-07
9.39026e-07
9.36889e-07
9.33936e-07
9.34563e-07
9.37886e-07
9.37886e-07
9.3621e-07
9.33274e-07
9.33274e-07
9.34551e-07
9.40687e-07
9.44973e-07
7.50814e-07
7.47024e-07
7.52007e-07
7.59105e-07
7.61481e-07
7.60816e-07
7.64511e-07
7.66865e-07
7.64507e-07
7.68169e-07
7.7247e-07
7.74957e-07
7.74041e-07
7.76304e-07
7.79534e-07
7.84878e-07
7.87002e-07
7.88792e-07
7.91594e-07
7.93729e-07
7.92967e-07
8.01093e-07
8.03092e-07
8.03734e-07
8.01384e-07
8.04451e-07
8.06989e-07
8.09424e-07
8.08416e-07
8.09872e-07
8.15527e-07
8.17713e-07
8.19032e-07
8.23369e-07
8.17606e-07
8.18815e-07
8.2047e-07
8.2214e-07
8.23827e-07
8.25523e-07
8.27175e-07
8.3103e-07
8.34756e-07
8.33069e-07
8.34625e-07
8.36176e-07
8.42282e-07
8.43783e-07
8.42244e-07
8.46079e-07
8.48667e-07
8.49504e-07
8.49011e-07
8.51647e-07
8.53024e-07
8.51053e-07
8.52407e-07
8.54395e-07
8.55539e-07
8.56834e-07
8.59645e-07
8.59385e-07
8.61557e-07
8.65318e-07
8.66511e-07
8.67741e-07
8.68977e-07
8.64765e-07
8.65106e-07
8.66236e-07
8.67333e-07
8.69787e-07
8.77144e-07
8.79429e-07
8.74153e-07
8.75227e-07
8.76959e-07
8.81099e-07
8.83199e-07
8.81409e-07
8.82388e-07
8.8368e-07
8.84621e-07
8.83856e-07
8.83146e-07
8.84068e-07
8.84965e-07
8.87045e-07
8.93848e-07
8.94714e-07
8.94153e-07
8.90446e-07
8.91282e-07
8.94908e-07
8.97061e-07
8.98454e-07
8.99212e-07
8.99223e-07
8.99972e-07
9.06758e-07
9.07484e-07
8.95525e-07
8.95626e-07
9.01554e-07
9.02233e-07
9.02754e-07
9.01819e-07
9.0099e-07
9.01639e-07
9.02432e-07
9.0548e-07
9.06061e-07
9.06238e-07
9.06676e-07
9.09197e-07
9.09745e-07
9.10288e-07
9.0515e-07
9.05701e-07
9.0773e-07
9.08245e-07
9.10543e-07
9.13257e-07
9.13753e-07
9.15939e-07
9.12727e-07
9.13195e-07
9.14082e-07
9.14148e-07
9.13698e-07
9.15762e-07
9.19565e-07
9.19995e-07
9.18245e-07
9.13372e-07
9.13778e-07
9.17423e-07
9.18405e-07
9.19076e-07
9.17289e-07
9.17652e-07
9.17181e-07
9.17534e-07
9.22404e-07
9.22745e-07
9.19896e-07
9.20226e-07
9.20546e-07
9.22487e-07
9.24408e-07
9.22114e-07
9.22119e-07
9.22412e-07
9.24568e-07
9.22858e-07
9.23566e-07
9.22385e-07
9.22648e-07
9.2331e-07
9.23478e-07
9.25055e-07
9.24097e-07
9.24331e-07
9.28389e-07
9.32084e-07
9.31346e-07
9.31922e-07
9.23315e-07
9.22265e-07
9.24178e-07
9.29459e-07
9.29654e-07
9.30448e-07
9.30644e-07
9.29893e-07
9.25921e-07
9.26091e-07
9.26266e-07
9.26436e-07
9.28965e-07
9.33266e-07
9.33425e-07
9.33151e-07
9.31972e-07
9.29382e-07
9.2953e-07
9.28864e-07
9.29635e-07
9.28127e-07
9.27585e-07
9.35671e-07
9.33871e-07
9.30552e-07
9.33888e-07
9.34081e-07
9.34447e-07
9.35855e-07
9.35977e-07
9.36088e-07
9.36199e-07
9.36305e-07
9.29057e-07
9.33087e-07
9.36418e-07
9.36514e-07
9.33834e-07
9.33928e-07
9.34018e-07
9.34107e-07
9.3186e-07
9.31946e-07
9.33332e-07
9.33065e-07
9.33144e-07
9.34214e-07
9.37036e-07
9.37359e-07
9.37434e-07
9.35916e-07
9.34203e-07
9.34158e-07
9.30939e-07
9.30472e-07
9.33537e-07
9.34427e-07
9.31544e-07
9.31262e-07
9.31318e-07
9.32727e-07
9.36147e-07
9.37571e-07
9.35162e-07
9.34913e-07
9.42603e-07
9.33009e-07
9.31192e-07
9.34815e-07
9.37355e-07
9.38229e-07
9.38271e-07
9.35871e-07
9.30544e-07
9.30583e-07
9.33189e-07
9.3438e-07
9.34978e-07
9.41012e-07
9.41047e-07
9.34838e-07
9.31394e-07
9.31426e-07
9.31457e-07
9.34073e-07
9.36915e-07
9.36945e-07
9.36582e-07
9.36609e-07
9.36384e-07
9.35021e-07
9.35047e-07
9.35072e-07
9.35059e-07
9.34203e-07
9.34874e-07
9.36137e-07
9.38521e-07
9.41634e-07
9.30934e-07
9.30954e-07
9.31556e-07
9.36122e-07
9.37828e-07
9.39419e-07
9.39509e-07
9.39527e-07
9.35829e-07
9.35846e-07
9.32119e-07
9.32131e-07
9.32145e-07
9.33961e-07
9.35862e-07
9.35822e-07
9.38049e-07
9.36967e-07
9.36708e-07
9.36662e-07
9.37731e-07
9.38013e-07
9.38024e-07
9.39055e-07
9.39542e-07
9.41617e-07
9.41627e-07
9.3987e-07
9.3988e-07
9.35713e-07
9.35723e-07
9.39956e-07
9.3615e-07
9.36159e-07
9.32096e-07
9.36731e-07
9.36739e-07
9.36093e-07
9.36964e-07
9.3697e-07
9.35878e-07
9.38062e-07
9.3853e-07
9.38538e-07
9.38541e-07
9.38549e-07
9.38551e-07
9.35485e-07
9.34185e-07
9.34189e-07
9.36633e-07
9.36857e-07
9.36118e-07
9.37214e-07
9.34878e-07
9.34882e-07
9.38374e-07
9.38387e-07
9.38391e-07
9.38395e-07
9.34784e-07
9.34789e-07
9.34998e-07
9.35e-07
9.35373e-07
9.40309e-07
9.40881e-07
9.32196e-07
9.32195e-07
9.32202e-07
9.34663e-07
9.36396e-07
9.38313e-07
9.40076e-07
9.40078e-07
9.35052e-07
9.37104e-07
9.37105e-07
9.37107e-07
9.35581e-07
9.35584e-07
9.39024e-07
9.39474e-07
9.35709e-07
9.3571e-07
9.35712e-07
9.384e-07
9.37548e-07
9.37549e-07
9.34297e-07
9.38578e-07
9.38742e-07
9.38741e-07
9.35889e-07
9.35891e-07
9.36466e-07
9.386e-07
9.41448e-07
9.41447e-07
9.41446e-07
9.30755e-07
9.30758e-07
9.30757e-07
9.31073e-07
9.33689e-07
9.33693e-07
9.36453e-07
9.3645e-07
9.38256e-07
9.38271e-07
9.38271e-07
9.34903e-07
9.34899e-07
9.38428e-07
9.39012e-07
9.39012e-07
9.34208e-07
9.34207e-07
9.34521e-07
9.33473e-07
9.33471e-07
9.33474e-07
9.33468e-07
9.33474e-07
9.34551e-07
9.36846e-07
9.37886e-07
9.33274e-07
9.33274e-07
9.40224e-07
9.44969e-07
9.44973e-07
9.44978e-07
7.46599e-07
7.54261e-07
7.60173e-07
7.59528e-07
7.59297e-07
7.61507e-07
7.63411e-07
7.6348e-07
7.65481e-07
7.69104e-07
7.71532e-07
7.75051e-07
7.80604e-07
7.82872e-07
7.80407e-07
7.81903e-07
7.85336e-07
7.876e-07
7.8761e-07
7.88844e-07
7.90976e-07
7.9483e-07
7.95653e-07
7.97561e-07
8.00039e-07
8.0511e-07
8.07008e-07
8.07905e-07
8.09766e-07
8.09882e-07
8.12758e-07
8.19825e-07
8.21598e-07
8.23366e-07
8.17567e-07
8.20143e-07
8.24615e-07
8.26309e-07
8.27982e-07
8.25987e-07
8.26529e-07
8.28187e-07
8.33647e-07
8.3501e-07
8.3832e-07
8.39883e-07
8.40886e-07
8.42205e-07
8.42028e-07
8.4352e-07
8.4864e-07
8.50089e-07
8.49006e-07
8.50433e-07
8.51816e-07
8.5105e-07
8.52397e-07
8.55929e-07
8.58847e-07
8.60151e-07
8.60127e-07
8.5937e-07
8.62295e-07
8.65347e-07