/*--------------------------------*- C++ -*----------------------------------*\
  =========                 |
  \\      /  F ield         | OpenFOAM: The Open Source CFD Toolbox
   \\    /   O peration     | Website:  https://openfoam.org
    \\  /    A nd           | Version:  7
     \\/     M anipulation  |
\*---------------------------------------------------------------------------*/
FoamFile
{
    version     2.0;
    format      ascii;
    class       volScalarField;
    location    "500";
    object      p;
}
// * * * * * * * * * * * * * * * * * * * * * * * * * * * * * * * * * * * * * //

dimensions      [1 -1 -2 0 0 0 0];

internalField   nonuniform List<scalar> 
160000
(
126570
126569
126566
126563
126558
126553
126546
126536
126525
126516
126506
126494
126481
126470
126456
126440
126421
126404
126388
126371
126351
126327
126300
126274
126247
126220
126198
126176
126150
126120
126084
126048
126022
125995
125958
125922
125892
125860
125820
125779
125746
125712
125677
125637
125595
125562
125525
125474
125428
125390
125348
125310
125271
125229
125190
125146
125105
125065
125002
124941
124906
124873
124820
124756
124685
124638
124595
124552
124505
124429
124382
124336
124280
124223
124165
124113
124059
124001
123946
123894
123846
123805
123760
123704
123651
123604
123550
123479
123408
123352
123294
123240
123199
123157
123102
123026
122953
122887
122821
122747
122678
122609
122548
122498
122438
122373
122307
122244
122190
122136
122081
122009
121941
121879
121803
121736
121670
121603
121551
121504
121449
121374
121298
121233
121174
121130
121086
121023
120952
120888
120817
120739
120686
120649
120606
120544
120481
120419
120336
120242
120182
120140
120087
120022
119975
119923
119859
119799
119735
119663
119588
119518
119440
119379
119316
119245
119181
119127
119074
119019
118963
118899
118828
118760
118687
118619
118570
118514
118447
118374
118309
118254
118186
118142
118102
118035
117965
117897
117847
117801
117730
117661
117599
117514
117434
117365
117294
117219
117138
117074
117020
116956
116887
116834
116788
116730
116659
116607
116558
116509
116463
116410
116352
116298
116249
116200
116132
116060
116000
115939
115879
115824
115764
115692
115631
115573
115498
115440
115393
115339
115290
115243
115182
115121
115063
115006
114950
114884
114818
114754
114661
114583
114526
114469
114405
114342
114272
114197
114120
114049
113984
113914
113857
113799
113732
113676
113622
113556
113497
113443
113389
113340
113284
113206
113119
113053
112986
112904
112829
112779
112734
112683
112625
112558
112495
112438
112377
112317
112265
112217
112154
112069
111996
111920
111852
111792
111739
111688
111616
111536
111466
111398
111336
111273
111204
111121
111050
110980
110926
110886
110841
110777
110700
110632
110568
110516
110467
110395
110320
110253
110171
110092
110028
109969
109905
109830
109755
109683
109599
109535
109477
109403
109334
109270
109189
109095
109014
108935
108862
108795
108718
108634
108562
108503
108434
108353
108292
108235
108160
108073
107990
107899
107800
107718
107641
107559
107491
107434
107385
107327
107222
107125
107045
106956
106876
106792
106664
106548
106440
106349
106266
106180
106109
106040
105950
105856
105777
105698
105601
105489
105380
105287
105206
105119
105037
104953
104857
104795
104735
104632
104499
104371
104262
104189
104110
104015
103925
103812
103690
103563
103453
103337
103231
103133
103026
102929
102841
102750
102649
102538
102421
102298
102191
102080
101933
101824
101720
101556
101447
101367
126570
126568
126566
126562
126557
126551
126544
126536
126526
126515
126506
126494
126480
126466
126453
126438
126419
126404
126390
126373
126352
126328
126302
126277
126248
126217
126194
126173
126148
126120
126087
126052
126022
125993
125956
125921
125892
125857
125811
125778
125748
125712
125676
125634
125595
125563
125525
125471
125425
125392
125357
125314
125268
125228
125189
125140
125099
125056
125004
124953
124907
124865
124817
124755
124691
124643
124593
124543
124491
124436
124388
124340
124284
124223
124164
124112
124060
124002
123947
123897
123850
123804
123753
123694
123644
123602
123550
123484
123414
123354
123300
123246
123200
123156
123095
123018
122947
122881
122817
122746
122678
122615
122545
122493
122442
122376
122309
122249
122192
122138
122083
122014
121942
121870
121797
121732
121667
121606
121550
121501
121449
121382
121308
121243
121182
121131
121081
121016
120951
120885
120810
120734
120688
120651
120603
120530
120476
120425
120336
120244
120181
120136
120087
120028
119980
119925
119860
119796
119726
119647
119587
119527
119440
119377
119319
119253
119189
119131
119072
119015
118957
118898
118834
118761
118683
118616
118566
118512
118449
118386
118320
118259
118187
118142
118095
118028
117969
117907
117849
117796
117727
117655
117584
117498
117428
117365
117295
117218
117138
117078
117024
116961
116891
116834
116783
116726
116667
116613
116563
116510
116461
116408
116348
116292
116247
116202
116136
116064
116003
115942
115881
115822
115764
115698
115630
115570
115506
115447
115394
115339
115286
115230
115172
115115
115059
115005
114949
114884
114818
114751
114661
114580
114525
114475
114413
114345
114271
114197
114119
114048
113981
113908
113856
113805
113737
113679
113627
113565
113499
113441
113384
113331
113279
113212
113125
113056
112985
112910
112844
112785
112729
112673
112614
112551
112496
112444
112381
112318
112268
112216
112142
112069
112000
111920
111850
111789
111740
111691
111614
111534
111463
111398
111335
111274
111208
111134
111060
110986
110926
110878
110827
110767
110702
110640
110575
110516
110462
110391
110319
110255
110180
110103
110034
109968
109901
109829
109754
109680
109601
109536
109473
109399
109334
109271
109198
109108
109015
108930
108858
108790
108715
108634
108563
108505
108439
108353
108289
108233
108162
108065
107986
107906
107802
107723
107650
107564
107495
107438
107380
107306
107211
107123
107045
106962
106873
106784
106682
106568
106452
106351
106263
106174
106102
106037
105953
105855
105775
105698
105602
105486
105377
105288
105209
105125
105046
104958
104866
104796
104721
104614
104504
104389
104281
104192
104105
104009
103905
103798
103679
103559
103455
103335
103241
103157
103039
102931
102839
102741
102639
102539
102424
102298
102194
102081
101942
101832
101719
101570
101454
101366
126568
126566
126563
126560
126556
126550
126543
126535
126525
126515
126505
126494
126478
126463
126451
126436
126420
126406
126390
126372
126352
126330
126306
126277
126249
126219
126192
126168
126147
126121
126086
126051
126020
125992
125959
125922
125890
125852
125807
125775
125745
125712
125674
125631
125597
125566
125521
125466
125423
125392
125361
125321
125271
125226
125183
125134
125091
125048
125006
124961
124906
124858
124814
124758
124692
124646
124602
124546
124490
124439
124385
124332
124280
124221
124164
124114
124058
124003
123954
123901
123849
123803
123752
123693
123638
123592
123540
123487
123427
123362
123308
123255
123200
123148
123084
123009
122940
122871
122807
122743
122677
122614
122550
122490
122438
122382
122319
122253
122190
122136
122076
122009
121944
121867
121795
121729
121664
121609
121557
121503
121444
121378
121312
121249
121189
121135
121077
121014
120948
120876
120803
120744
120695
120650
120597
120528
120468
120411
120333
120246
120180
120135
120088
120029
119979
119929
119862
119792
119717
119645
119586
119520
119436
119378
119326
119261
119196
119138
119075
119014
118954
118894
118832
118760
118683
118615
118561
118503
118443
118389
118330
118269
118208
118147
118081
118019
117968
117912
117850
117792
117728
117647
117564
117490
117425
117361
117292
117218
117145
117085
117029
116965
116900
116836
116777
116724
116673
116619
116568
116513
116458
116404
116350
116297
116246
116192
116124
116064
116011
115939
115876
115824
115769
115699
115631
115572
115513
115452
115391
115332
115280
115225
115168
115113
115058
115002
114942
114876
114818
114754
114668
114588
114525
114468
114410
114349
114276
114195
114112
114045
113981
113909
113856
113807
113746
113685
113633
113577
113505
113441
113380
113325
113268
113201
113129
113057
112987
112920
112855
112788
112723
112666
112608
112547
112491
112440
112386
112330
112272
112209
112140
112067
111993
111916
111851
111790
111740
111691
111612
111535
111463
111400
111342
111274
111204
111136
111067
110991
110928
110870
110818
110764
110701
110639
110577
110519
110460
110387
110323
110263
110189
110109
110033
109963
109897
109829
109757
109677
109601
109538
109471
109401
109340
109274
109195
109104
109017
108933
108858
108787
108715
108643
108575
108511
108436
108359
108291
108226
108150
108052
107976
107905
107811
107729
107656
107569
107499
107441
107375
107296
107208
107114
107036
106964
106874
106780
106692
106592
106468
106351
106261
106171
106100
106035
105942
105845
105769
105698
105614
105496
105379
105287
105213
105141
105067
104972
104871
104788
104691
104593
104501
104402
104299
104201
104107
104010
103901
103780
103659
103560
103462
103339
103247
103169
103062
102934
102829
102736
102642
102545
102427
102304
102194
102075
101951
101837
101706
101572
101464
101369
126566
126564
126562
126558
126554
126549
126542
126534
126526
126515
126504
126490
126474
126461
126449
126435
126419
126404
126387
126370
126350
126330
126307
126274
126250
126223
126190
126167
126145
126117
126083
126048
126015
125987
125958
125923
125886
125845
125802
125773
125745
125714
125676
125633
125595
125558
125513
125465
125426
125391
125359
125324
125275
125226
125184
125137
125090
125044
125000
124953
124901
124856
124812
124754
124691
124645
124601
124547
124492
124445
124392
124325
124269
124214
124167
124123
124067
124010
123958
123899
123850
123803
123748
123683
123630
123584
123534
123484
123427
123369
123314
123256
123200
123139
123068
123005
122944
122864
122793
122739
122683
122617
122551
122490
122434
122381
122324
122258
122194
122135
122066
122000
121940
121871
121800
121727
121659
121608
121561
121503
121439
121374
121312
121248
121194
121142
121083
121017
120945
120875
120805
120750
120700
120648
120593
120525
120462
120400
120330
120255
120190
120134
120079
120024
119974
119925
119865
119788
119708
119645
119587
119519
119447
119380
119321
119256
119197
119140
119072
119011
118955
118894
118832
118764
118684
118612
118556
118498
118440
118391
118337
118271
118210
118150
118085
118021
117966
117908
117842
117785
117726
117648
117556
117484
117421
117360
117295
117223
117153
117090
117027
116967
116909
116844
116776
116720
116671
116623
116573
116518
116458
116402
116350
116299
116243
116184
116117
116060
116006
115930
115876
115828
115771
115702
115635
115574
115516
115453
115388
115331
115278
115223
115169
115114
115055
114998
114939
114873
114812
114744
114675
114606
114528
114466
114406
114339
114270
114199
114121
114053
113987
113910
113856
113805
113747
113691
113639
113584
113511
113443
113378
113316
113252
113192
113131
113055
112987
112927
112865
112794
112724
112663
112605
112546
112486
112433
112384
112333
112270
112208
112151
112077
111990
111916
111851
111791
111740
111685
111616
111541
111464
111398
111334
111271
111207
111139
111070
110993
110935
110877
110811
110756
110699
110640
110582
110522
110456
110387
110326
110262
110190
110111
110039
109969
109894
109823
109750
109672
109601
109536
109464
109403
109346
109277
109196
109111
109024
108929
108860
108796
108724
108654
108584
108511
108430
108359
108288
108220
108150
108050
107964
107893
107813
107731
107658
107576
107503
107445
107374
107289
107206
107117
107030
106959
106881
106782
106687
106591
106481
106363
106273
106182
106099
106024
105929
105841
105763
105689
105610
105511
105399
105297
105215
105144
105079
104996
104885
104784
104676
104588
104505
104410
104312
104209
104102
104002
103895
103756
103641
103557
103468
103343
103253
103179
103079
102941
102824
102736
102646
102549
102445
102320
102197
102075
101947
101826
101700
101575
101461
101367
126564
126563
126560
126557
126553
126547
126541
126533
126525
126514
126501
126484
126471
126461
126450
126434
126417
126400
126383
126368
126351
126330
126305
126274
126247
126217
126187
126164
126140
126112
126085
126049
126014
125986
125958
125921
125878
125837
125804
125775
125744
125712
125677
125632
125590
125550
125504
125459
125426
125395
125360
125322
125275
125228
125182
125136
125088
125042
124997
124948
124897
124848
124800
124745
124685
124642
124601
124551
124495
124443
124387
124323
124271
124218
124168
124126
124075
124013
123954
123903
123856
123800
123741
123678
123625
123579
123530
123480
123428
123372
123312
123248
123194
123135
123063
123001
122940
122865
122792
122735
122684
122622
122550
122491
122432
122376
122320
122256
122195
122137
122065
121989
121927
121873
121813
121731
121651
121602
121557
121498
121435
121374
121311
121250
121201
121149
121083
121015
120944
120875
120806
120753
120704
120648
120590
120527
120459
120391
120327
120261
120196
120132
120076
120023
119969
119918
119858
119784
119712
119646
119579
119513
119449
119386
119323
119260
119198
119135
119064
119007
118954
118896
118834
118768
118687
118613
118560
118506
118442
118388
118330
118267
118210
118149
118085
118021
117959
117898
117834
117777
117720
117651
117570
117489
117417
117358
117297
117230
117158
117096
117036
116971
116913
116849
116772
116714
116668
116623
116574
116520
116460
116403
116349
116298
116242
116178
116113
116054
115994
115928
115880
115832
115768
115701
115631
115572
115521
115461
115397
115337
115277
115218
115165
115111
115050
114990
114931
114869
114806
114733
114672
114612
114534
114472
114410
114336
114265
114195
114120
114058
113998
113925
113861
113802
113746
113693
113645
113592
113515
113446
113379
113312
113248
113186
113125
113056
112985
112925
112866
112800
112734
112664
112602
112543
112480
112427
112384
112340
112279
112209
112144
112057
111977
111919
111859
111797
111743
111684
111616
111540
111465
111400
111334
111266
111199
111138
111078
111012
110943
110877
110812
110755
110698
110639
110579
110523
110462
110386
110316
110254
110192
110122
110049
109972
109895
109820
109734
109664
109600
109530
109458
109406
109354
109280
109194
109109
109028
108939
108864
108802
108733
108661
108587
108504
108425
108360
108290
108221
108155
108058
107957
107882
107819
107749
107663
107580
107506
107438
107359
107278
107203
107119
107033
106960
106879
106772
106673
106580
106479
106372
106284
106202
106111
106023
105926
105842
105762
105683
105602
105511
105409
105305
105216
105143
105082
105008
104905
104791
104681
104588
104502
104414
104324
104223
104092
103978
103882
103760
103639
103553
103467
103360
103264
103185
103080
102932
102817
102738
102655
102552
102447
102327
102210
102085
101929
101806
101702
101593
101469
101366
126562
126560
126558
126554
126550
126544
126539
126531
126521
126509
126497
126482
126470
126460
126447
126433
126418
126398
126379
126362
126346
126328
126305
126273
126243
126216
126188
126162
126132
126108
126084
126050
126014
125983
125953
125916
125874
125836
125804
125773
125741
125709
125673
125627
125586
125547
125503
125459
125422
125391
125360
125318
125271
125228
125181
125132
125086
125040
124990
124941
124890
124835
124790
124742
124685
124642
124603
124553
124494
124439
124381
124326
124280
124227
124171
124126
124078
124019
123958
123900
123848
123795
123734
123675
123624
123575
123522
123475
123429
123373
123304
123239
123189
123134
123063
122996
122932
122866
122801
122736
122678
122617
122553
122496
122435
122374
122310
122244
122192
122141
122071
121989
121923
121868
121810
121730
121650
121594
121547
121495
121431
121372
121309
121254
121207
121144
121079
121017
120949
120879
120811
120757
120705
120641
120582
120528
120467
120398
120329
120261
120194
120127
120072
120021
119966
119907
119848
119783
119713
119641
119576
119513
119453
119394
119330
119260
119186
119122
119059
119006
118958
118901
118831
118766
118699
118626
118566
118509
118443
118383
118324
118259
118205
118152
118088
118014
117950
117888
117826
117774
117719
117647
117568
117495
117428
117362
117300
117235
117157
117097
117040
116972
116913
116853
116775
116714
116669
116625
116576
116523
116461
116401
116346
116294
116234
116175
116115
116053
115994
115935
115881
115825
115761
115699
115627
115569
115522
115471
115409
115339
115275
115213
115157
115104
115047
114988
114924
114863
114803
114735
114662
114596
114538
114479
114412
114334
114264
114196
114129
114066
114002
113931
113866
113805
113749
113691
113646
113599
113517
113444
113379
113313
113248
113183
113120
113055
112985
112922
112856
112800
112743
112668
112600
112539
112481
112433
112389
112340
112274
112204
112130
112047
111972
111920
111866
111800
111743
111680
111615
111540
111466
111401
111336
111271
111203
111137
111072
111012
110949
110881
110818
110764
110708
110644
110580
110521
110458
110382
110308
110253
110194
110121
110048
109971
109890
109813
109724
109665
109607
109533
109462
109408
109355
109280
109192
109108
109026
108944
108871
108804
108737
108663
108578
108496
108426
108364
108297
108224
108154
108065
107958
107885
107822
107751
107668
107591
107514
107427
107342
107275
107207
107115
107026
106956
106877
106766
106657
106564
106480
106392
106292
106204
106122
106030
105934
105850
105764
105679
105595
105506
105409
105315
105220
105146
105086
105014
104914
104793
104685
104591
104502
104409
104321
104227
104096
103970
103876
103775
103650
103553
103465
103371
103268
103178
103078
102932
102822
102742
102654
102554
102450
102334
102213
102074
101905
101798
101706
101604
101480
101368
126558
126557
126554
126551
126546
126541
126536
126528
126519
126507
126494
126480
126469
126459
126446
126430
126413
126395
126375
126357
126342
126325
126297
126265
126238
126214
126188
126162
126132
126106
126080
126049
126014
125980
125945
125909
125874
125838
125802
125768
125736
125704
125667
125622
125585
125547
125503
125461
125423
125389
125355
125313
125267
125226
125180
125127
125080
125033
124981
124932
124882
124827
124785
124745
124693
124641
124600
124557
124500
124435
124375
124328
124284
124230
124175
124127
124074
124017
123958
123898
123844
123788
123724
123675
123628
123574
123519
123472
123423
123366
123298
123232
123182
123127
123058
122983
122922
122869
122812
122738
122678
122618
122557
122498
122430
122370
122307
122235
122187
122139
122063
121985
121920
121864
121802
121723
121647
121594
121545
121495
121439
121374
121306
121256
121209
121138
121071
121014
120955
120889
120815
120752
120694
120636
120583
120529
120472
120410
120331
120259
120192
120127
120066
120015
119963
119905
119843
119775
119702
119628
119576
119521
119458
119404
119337
119258
119176
119113
119054
119004
118961
118906
118828
118765
118703
118630
118563
118505
118445
118382
118324
118265
118206
118150
118086
118010
117945
117883
117820
117767
117711
117639
117567
117505
117444
117370
117300
117238
117166
117099
117032
116963
116909
116855
116786
116722
116672
116627
116579
116523
116458
116396
116339
116286
116228
116177
116122
116054
115998
115944
115880
115815
115756
115696
115626
115566
115518
115470
115412
115338
115274
115213
115152
115096
115044
114988
114924
114861
114797
114731
114654
114593
114539
114477
114407
114332
114265
114201
114136
114070
114004
113935
113872
113816
113760
113703
113643
113582
113510
113443
113380
113313
113244
113176
113116
113053
112986
112924
112862
112804
112742
112663
112598
112544
112489
112439
112389
112332
112269
112200
112126
112046
111972
111918
111863
111796
111740
111682
111619
111546
111467
111400
111336
111273
111205
111141
111075
111010
110947
110878
110821
110775
110724
110652
110579
110513
110448
110377
110309
110257
110200
110117
110041
109964
109887
109812
109732
109673
109618
109542
109464
109402
109341
109269
109190
109110
109027
108945
108874
108803
108738
108670
108581
108496
108426
108362
108297
108228
108149
108063
107976
107896
107825
107750
107671
107598
107522
107420
107334
107273
107211
107119
107025
106949
106866
106759
106647
106555
106479
106402
106312
106210
106120
106028
105939
105859
105773
105677
105586
105499
105413
105327
105232
105150
105085
105009
104914
104811
104704
104595
104499
104408
104322
104231
104113
103972
103861
103764
103664
103561
103458
103357
103257
103167
103068
102941
102836
102755
102666
102562
102452
102338
102216
102068
101922
101810
101703
101589
101463
101364
126554
126553
126550
126547
126543
126538
126532
126525
126516
126504
126491
126478
126467
126456
126442
126424
126408
126394
126375
126354
126336
126315
126290
126263
126235
126208
126187
126164
126132
126105
126078
126044
126008
125977
125946
125908
125870
125829
125794
125764
125732
125697
125659
125617
125582
125545
125503
125462
125425
125390
125350
125306
125264
125222
125173
125121
125072
125021
124968
124925
124880
124828
124785
124744
124695
124644
124600
124557
124503
124435
124376
124332
124289
124231
124175
124124
124072
124011
123947
123890
123838
123782
123728
123678
123626
123568
123514
123470
123423
123362
123292
123227
123171
123112
123048
122986
122920
122862
122808
122748
122685
122621
122560
122495
122425
122364
122297
122232
122182
122125
122052
121988
121919
121856
121789
121715
121653
121601
121547
121494
121438
121370
121304
121258
121213
121140
121062
121003
120951
120893
120815
120744
120690
120642
120590
120529
120473
120412
120325
120254
120196
120133
120063
120011
119962
119899
119827
119764
119700
119632
119574
119508
119454
119406
119342
119262
119182
119114
119052
119002
118957
118898
118826
118768
118709
118630
118553
118500
118450
118390
118322
118267
118215
118154
118080
118006
117942
117880
117812
117751
117694
117634
117575
117517
117456
117380
117300
117237
117171
117102
117033
116961
116907
116855
116793
116731
116675
116626
116579
116521
116454
116392
116334
116279
116225
116178
116129
116064
116003
115944
115875
115814
115754
115691
115623
115565
115515
115464
115407
115338
115269
115207
115150
115097
115043
114978
114919
114861
114796
114730
114660
114596
114539
114475
114404
114333
114267
114204
114138
114069
114006
113940
113875
113819
113765
113707
113640
113576
113512
113442
113374
113311
113242
113175
113117
113050
112984
112931
112872
112810
112742
112663
112597
112547
112495
112440
112385
112326
112266
112196
112124
112050
111979
111920
111859
111795
111736
111677
111619
111549
111467
111397
111334
111271
111200
111143
111084
111016
110950
110877
110822
110779
110732
110662
110580
110507
110443
110375
110314
110261
110197
110118
110035
109956
109884
109815
109747
109684
109622
109547
109462
109396
109334
109271
109199
109107
109023
108944
108875
108807
108739
108671
108585
108498
108430
108364
108299
108231
108143
108048
107977
107908
107826
107752
107676
107601
107523
107418
107336
107271
107202
107118
107021
106943
106860
106752
106642
106560
106486
106402
106316
106224
106117
106023
105944
105868
105781
105686
105589
105491
105411
105337
105253
105166
105085
104997
104901
104809
104712
104602
104504
104413
104325
104232
104118
103985
103861
103763
103669
103558
103442
103345
103256
103156
103052
102959
102864
102770
102673
102562
102451
102336
102209
102054
101936
101839
101720
101577
101448
101361
126550
126549
126547
126544
126539
126535
126529
126521
126512
126500
126488
126477
126465
126453
126438
126420
126405
126390
126369
126347
126327
126307
126285
126260
126234
126208
126185
126158
126129
126102
126072
126039
126005
125974
125942
125902
125862
125818
125787
125762
125733
125695
125654
125615
125579
125541
125502
125462
125425
125390
125346
125295
125256
125218
125167
125115
125065
125012
124962
124921
124877
124827
124782
124739
124696
124651
124602
124555
124504
124438
124377
124330
124283
124227
124175
124128
124072
124003
123936
123884
123836
123781
123728
123677
123622
123561
123509
123465
123417
123358
123290
123225
123164
123101
123039
122981
122917
122858
122806
122748
122684
122623
122562
122491
122426
122364
122296
122233
122172
122095
122037
121982
121917
121857
121788
121717
121659
121605
121545
121493
121438
121371
121310
121258
121205
121142
121069
121002
120941
120873
120809
120749
120695
120645
120590
120532
120471
120398
120319
120254
120199
120141
120068
120007
119949
119883
119821
119760
119690
119630
119574
119505
119450
119397
119336
119271
119192
119121
119053
119000
118948
118891
118835
118777
118709
118630
118553
118494
118441
118390
118332
118271
118216
118151
118074
118007
117943
117872
117791
117741
117692
117636
117583
117524
117460
117383
117304
117239
117168
117099
117035
116967
116911
116856
116797
116738
116679
116626
116577
116520
116452
116388
116332
116276
116223
116176
116127
116067
116005
115942
115877
115819
115758
115689
115620
115565
115513
115460
115401
115330
115262
115208
115153
115092
115033
114971
114914
114858
114795
114730
114666
114604
114538
114469
114401
114334
114267
114206
114145
114073
114007
113939
113872
113818
113763
113708
113645
113575
113508
113441
113374
113314
113250
113175
113116
113046
112981
112931
112879
112819
112750
112673
112606
112546
112482
112436
112390
112327
112259
112179
112117
112056
111989
111928
111860
111795
111735
111676
111618
111547
111468
111395
111335
111274
111209
111146
111082
111015
110948
110886
110827
110775
110724
110657
110580
110511
110449
110383
110314
110253
110190
110122
110044
109960
109881
109811
109751
109692
109625
109552
109468
109397
109331
109268
109200
109110
109030
108952
108876
108810
108742
108671
108593
108508
108434
108363
108292
108223
108143
108048
107976
107910
107832
107760
107690
107607
107512
107414
107330
107254
107183
107110
107017
106940
106861
106756
106649
106563
106484
106401
106323
106242
106141
106026
105943
105867
105777
105691
105596
105488
105407
105335
105261
105183
105091
104998
104904
104806
104703
104606
104518
104430
104334
104221
104098
103988
103876
103765
103662
103553
103451
103354
103260
103154
103042
102962
102884
102783
102679
102566
102447
102330
102207
102066
101948
101846
101728
101586
101462
101366
126546
126545
126544
126540
126536
126532
126525
126517
126507
126495
126484
126473
126461
126448
126433
126417
126399
126383
126361
126339
126319
126303
126285
126258
126232
126207
126179
126151
126124
126095
126065
126036
126005
125970
125931
125893
125859
125820
125782
125756
125728
125688
125647
125610
125573
125535
125500
125462
125426
125391
125343
125288
125250
125212
125161
125112
125061
125005
124958
124917
124870
124823
124780
124736
124697
124657
124606
124553
124498
124432
124371
124321
124274
124224
124175
124126
124069
124003
123941
123885
123829
123772
123723
123676
123620
123559
123505
123458
123409
123348
123285
123225
123162
123096
123026
122968
122910
122856
122806
122748
122682
122624
122564
122486
122424
122365
122299
122235
122166
122090
122029
121965
121913
121863
121794
121719
121658
121605
121548
121491
121430
121367
121312
121259
121202
121141
121072
121001
120934
120868
120809
120750
120695
120643
120586
120529
120463
120384
120325
120270
120204
120131
120055
119997
119940
119880
119821
119753
119679
119628
119578
119504
119444
119384
119331
119277
119197
119122
119056
119004
118952
118891
118834
118778
118709
118627
118555
118493
118434
118385
118333
118270
118214
118153
118075
118007
117940
117868
117798
117740
117685
117636
117586
117523
117453
117380
117311
117248
117170
117097
117034
116970
116916
116864
116802
116740
116681
116628
116576
116516
116452
116388
116331
116277
116222
116173
116126
116066
116001
115936
115872
115817
115760
115692
115625
115570
115515
115460
115401
115327
115261
115205
115146
115081
115028
114972
114910
114850
114794
114737
114668
114605
114535
114465
114401
114337
114269
114205
114141
114071
114008
113944
113877
113816
113759
113705
113645
113572
113504
113444
113385
113317
113247
113177
113114
113042
112979
112925
112875
112826
112766
112686
112613
112548
112484
112435
112384
112317
112249
112172
112117
112061
111993
111931
111862
111797
111732
111673
111615
111544
111473
111404
111343
111281
111213
111139
111075
111014
110955
110897
110833
110772
110717
110654
110580
110511
110449
110382
110314
110253
110184
110113
110045
109970
109892
109821
109755
109694
109624
109547
109476
109407
109337
109267
109194
109113
109039
108962
108876
108813
108746
108664
108592
108521
108443
108362
108287
108219
108142
108047
107975
107914
107838
107765
107696
107608
107502
107412
107322
107230
107173
107114
107025
106942
106857
106755
106658
106575
106491
106410
106329
106243
106148
106019
105937
105859
105774
105697
105600
105487
105407
105337
105265
105191
105105
105009
104912
104807
104712
104621
104526
104429
104320
104201
104092
103994
103886
103767
103661
103560
103466
103371
103270
103151
103035
102959
102884
102793
102693
102571
102443
102324
102197
102074
101961
101840
101710
101586
101479
101377
126542
126541
126540
126536
126532
126527
126520
126511
126500
126490
126479
126468
126457
126443
126428
126409
126393
126377
126355
126333
126316
126301
126282
126253
126227
126199
126172
126146
126117
126089
126063
126036
126003
125963
125922
125888
125857
125821
125782
125748
125715
125677
125639
125601
125566
125533
125500
125465
125428
125390
125341
125287
125245
125202
125156
125109
125056
124999
124956
124914
124863
124819
124779
124734
124697
124659
124603
124546
124489
124422
124364
124314
124264
124217
124171
124122
124065
124009
123953
123892
123826
123767
123722
123674
123611
123553
123503
123455
123404
123346
123284
123215
123149
123087
123017
122959
122909
122857
122805
122747
122680
122619
122558
122482
122419
122358
122295
122236
122171
122100
122031
121961
121907
121856
121793
121716
121653
121603
121550
121490
121425
121358
121311
121265
121202
121136
121068
121001
120936
120870
120807
120746
120689
120639
120587
120528
120450
120378
120325
120271
120200
120123
120052
119989
119933
119881
119828
119761
119687
119623
119563
119502
119440
119376
119324
119269
119195
119125
119061
119011
118960
118888
118828
118776
118715
118630
118554
118484
118428
118385
118335
118261
118213
118162
118079
118006
117936
117862
117804
117754
117693
117633
117575
117513
117445
117375
117310