/*--------------------------------*- C++ -*----------------------------------*\
  =========                 |
  \\      /  F ield         | OpenFOAM: The Open Source CFD Toolbox
   \\    /   O peration     | Website:  https://openfoam.org
    \\  /    A nd           | Version:  7
     \\/     M anipulation  |
\*---------------------------------------------------------------------------*/
FoamFile
{
    version     2.0;
    format      ascii;
    class       surfaceScalarField;
    location    "500";
    object      phi;
}
// * * * * * * * * * * * * * * * * * * * * * * * * * * * * * * * * * * * * * //

dimensions      [0 3 -1 0 0 0 0];

internalField   nonuniform List<scalar> 
319200
(
1.16223e-16
1.01831e-16
2.88703e-16
6.03733e-17
4.75038e-16
9.17737e-17
6.60021e-16
7.9666e-17
8.18366e-16
1.44106e-16
9.3116e-16
1.48321e-16
1.00075e-15
1.86428e-16
1.12195e-15
5.52917e-17
1.42358e-15
-5.61584e-17
1.64992e-15
4.03236e-17
1.83717e-15
7.47088e-17
2.08799e-15
-2.73467e-18
2.12381e-15
2.48306e-16
1.79634e-15
5.90175e-16
1.56798e-15
4.36329e-16
1.58603e-15
2.09317e-16
1.54014e-15
2.56421e-16
1.77731e-15
-4.05844e-17
2.25795e-15
-2.93596e-16
2.75048e-15
-2.71213e-16
3.12777e-15
-1.34091e-16
3.46809e-15
-1.12378e-16
4.07336e-15
-3.94167e-16
4.76898e-15
-4.52051e-16
5.13385e-15
-1.05905e-16
4.81154e-15
5.93372e-16
4.09987e-15
9.44808e-16
3.726e-15
5.71071e-16
3.67302e-15
2.56426e-16
3.9021e-15
-3.62838e-17
4.5234e-15
-4.24127e-16
5.31209e-15
-5.77202e-16
5.66924e-15
-1.1522e-16
5.65529e-15
2.38742e-16
5.66002e-15
2.11578e-16
5.6556e-15
2.30483e-16
5.8624e-15
-1.67049e-17
5.59339e-15
4.70595e-16
4.69304e-15
1.05546e-15
4.56611e-15
3.10447e-16
5.01144e-15
-2.39538e-16
5.27535e-15
-4.63294e-17
5.24639e-15
2.22847e-16
5.14708e-15
2.56979e-16
5.28064e-15
4.37647e-17
5.68477e-15
-2.29991e-16
5.90957e-15
-3.91974e-17
5.7411e-15
3.3392e-16
5.36542e-15
5.73667e-16
5.78991e-15
-2.47434e-16
7.17841e-15
-1.21054e-15
8.11072e-15
-7.43503e-16
7.80485e-15
4.87399e-16
7.79696e-15
1.88895e-16
7.79182e-15
2.10466e-16
7.16371e-15
7.92468e-16
6.04501e-15
1.31255e-15
5.23185e-15
9.62447e-16
5.60893e-15
-2.35809e-16
6.98327e-15
-1.2307e-15
7.25581e-15
-8.54151e-17
6.38781e-15
1.01419e-15
6.15948e-15
3.73621e-16
6.22658e-15
7.20525e-17
6.94129e-15
-5.86647e-16
7.94056e-15
-8.32633e-16
7.8126e-15
2.92056e-16
6.274e-15
1.70855e-15
4.68776e-15
1.71308e-15
5.6622e-15
-8.77109e-16
7.00273e-15
-1.18445e-15
7.60142e-15
-4.77635e-16
8.22298e-15
-4.72846e-16
8.29563e-15
6.25328e-17
8.24133e-15
2.03537e-16
8.34773e-15
3.37976e-17
8.51792e-15
-3.26263e-17
8.73962e-15
-1.01337e-16
9.13583e-15
-2.59569e-16
9.68761e-15
-4.25957e-16
1.0487e-14
-6.61301e-16
1.03931e-14
2.36653e-16
9.42988e-15
1.10026e-15
8.06838e-15
1.49171e-15
6.75941e-15
1.43672e-15
6.43013e-15
4.48846e-16
6.5591e-15
-1.59153e-17
7.05155e-15
-3.91503e-16
7.88061e-15
-7.19693e-16
8.29018e-15
-2.78892e-16
9.21618e-15
-8.20947e-16
1.04267e-14
-1.08362e-15
1.07297e-14
-1.74948e-16
1.04343e-14
4.17093e-16
9.59378e-15
9.53353e-16
8.60721e-15
1.08259e-15
7.9324e-15
7.75523e-16
7.21716e-15
8.08322e-16
6.85419e-15
4.55958e-16
6.80756e-15
1.30913e-16
6.84958e-15
5.43441e-17
7.44078e-15
-5.11737e-16
7.16726e-15
3.78236e-16
6.37032e-15
8.87384e-16
6.89119e-15
-4.42121e-16
7.31508e-15
-3.23679e-16
7.62027e-15
-2.24837e-16
8.49418e-15
-7.81608e-16
8.97259e-15
-3.86231e-16
9.34053e-15
-2.82024e-16
9.58752e-15
-1.57371e-16
1.00611e-14
-4.02932e-16
1.02498e-14
-9.29392e-17
9.34192e-15
9.89891e-16
8.7381e-15
6.83714e-16
8.27803e-15
5.45312e-16
8.05576e-15
2.97121e-16
8.49283e-15
-3.63274e-16
8.41454e-15
1.58343e-16
7.7792e-15
7.10426e-16
7.78828e-15
6.07743e-17
8.67134e-15
-8.22889e-16
1.00426e-14
-1.30219e-15
1.14505e-14
-1.3387e-15
1.28265e-14
-1.30365e-15
1.32371e-14
-3.24277e-16
1.22032e-14
1.1179e-15
1.13976e-14
8.75226e-16
1.12209e-14
2.53166e-16
1.0838e-14
4.56982e-16
1.01256e-14
7.8084e-16
9.76209e-15
4.27035e-16
1.05166e-14
-6.86085e-16
1.09689e-14
-3.73239e-16
1.02552e-14
7.80837e-16
8.49228e-15
1.82652e-15
7.45778e-15
1.09011e-15
8.12423e-15
-6.08458e-16
8.14785e-15
3.08035e-17
8.36289e-15
-1.64507e-16
8.21077e-15
2.15324e-16
7.43713e-15
8.37181e-16
7.40883e-15
7.16336e-17
8.43716e-15
-9.76381e-16
9.23678e-15
-7.43224e-16
9.49968e-15
-2.14608e-16
9.63023e-15
-7.62674e-17
9.26602e-15
4.17832e-16
8.18762e-15
1.12989e-15
6.73247e-15
1.50124e-15
6.59433e-15
1.79096e-16
7.46387e-15
-8.23674e-16
7.56447e-15
-5.84911e-17
7.41663e-15
1.98225e-16
7.70002e-15
-2.45078e-16
8.80403e-15
-1.06025e-15
1.00273e-14
-1.18056e-15
1.09367e-14
-8.61633e-16
1.07551e-14
2.25673e-16
9.93151e-15
8.70585e-16
9.03396e-15
9.39381e-16
8.79565e-15
2.79191e-16
9.48365e-15
-6.52435e-16
9.6275e-15
-1.01809e-16
9.29563e-15
3.63833e-16
8.78261e-15
5.52343e-16
8.0065e-15
8.14075e-16
7.73215e-15
3.08409e-16
7.91229e-15
-1.44626e-16
9.08883e-15
-1.14547e-15
1.06876e-14
-1.56156e-15
1.1397e-14
-6.71987e-16
1.15753e-14
-1.46304e-16
1.15817e-14
3.51657e-17
1.04838e-14
1.13223e-15
9.47611e-15
1.03738e-15
1.00877e-14
-5.80974e-16
1.14722e-14
-1.35425e-15
1.19768e-14
-4.69408e-16
1.11172e-14
8.92039e-16
1.08716e-14
2.69639e-16
1.00526e-14
8.48134e-16
8.43639e-15
1.643e-15
7.18469e-15
1.27691e-15
6.49295e-15
7.16682e-16
6.50698e-15
9.57442e-18
6.61956e-15
-8.97583e-17
6.59914e-15
4.24748e-17
6.72152e-15
-1.01153e-16
7.38703e-15
-6.40609e-16
8.13135e-15
-7.19021e-16
8.86525e-15
-7.11152e-16
9.4932e-15
-6.04106e-16
9.62938e-15
-1.11059e-16
8.54397e-15
1.11156e-15
8.06229e-15
4.98892e-16
9.42016e-15
-1.33739e-15
1.06636e-14
-1.22137e-15
1.15803e-14
-8.94776e-16
1.18903e-14
-2.86032e-16
1.13835e-14
5.298e-16
1.09763e-14
4.27503e-16
1.02765e-14
7.18834e-16
9.04704e-15
1.24748e-15
8.38557e-15
6.79284e-16
8.56673e-15
-1.62942e-16
8.87017e-15
-2.88895e-16
9.48181e-15
-5.9585e-16
9.96173e-15
-4.64042e-16
1.03826e-14
-4.06064e-16
1.0662e-14
-2.63246e-16
1.02453e-14
4.33391e-16
1.02758e-14
-1.65231e-17
1.09981e-14
-7.07822e-16
1.08168e-14
1.97384e-16
1.03625e-14
4.68375e-16
1.13789e-14
-1.00369e-15
1.27474e-14
-1.35284e-15
1.30205e-14
-2.57959e-16
1.30644e-14
-3.00804e-17
1.21508e-14
9.28916e-16
1.03357e-14
1.82836e-15
8.82586e-15
1.52167e-15
8.02263e-15
8.15231e-16
7.43793e-15
5.96245e-16
7.21486e-15
2.34115e-16
6.9074e-15
3.18924e-16
6.81393e-15
1.02556e-16
6.81856e-15
6.35498e-18
6.48183e-15
3.46748e-16
6.52456e-15
-3.48423e-17
6.20456e-15
3.29882e-16
6.09216e-15
1.21275e-16
6.84106e-15
-7.39787e-16
7.62245e-15
-7.72533e-16
7.98098e-15
-3.48998e-16
7.9555e-15
3.3319e-17
7.93658e-15
2.78821e-17
7.87295e-15
7.11686e-17
7.7909e-15
9.05474e-17
7.53268e-15
2.65959e-16
6.93671e-15
6.03465e-16
6.75843e-15
1.86475e-16
7.41664e-15
-6.51199e-16
8.02604e-15
-6.01405e-16
8.53681e-15
-5.02769e-16
9.39942e-15
-8.54651e-16
1.04985e-14
-1.09214e-15
1.07376e-14
-2.31054e-16
1.03676e-14
3.76885e-16
9.43269e-15
9.42423e-16
7.53706e-15
1.90249e-15
6.60953e-15
9.33535e-16
7.13986e-15
-5.24787e-16
7.84498e-15
-6.99805e-16
8.23181e-15
-3.80855e-16
8.06896e-15
1.68421e-16
8.93595e-15
-8.61859e-16
1.12151e-14
-2.27365e-15
1.26864e-14
-1.46487e-15
1.17603e-14
9.32466e-16
9.97777e-15
1.78799e-15
8.48523e-15
1.49768e-15
7.55418e-15
9.35477e-16
7.63968e-15
-8.07983e-17
8.3636e-15
-7.19493e-16
8.7821e-15
-4.13928e-16
9.01811e-15
-2.3149e-16
9.59783e-15
-5.75018e-16
9.27428e-15
3.28584e-16
8.16056e-15
1.11742e-15
8.06373e-15
1.00634e-16
8.52134e-15
-4.53823e-16
8.54676e-15
-2.17336e-17
8.34115e-15
2.09357e-16
8.01552e-15
3.29198e-16
8.27261e-15
-2.53506e-16
8.67664e-15
-4.00451e-16
8.47548e-15
2.04182e-16
8.27026e-15
2.08434e-16
7.99863e-15
2.74535e-16
7.98113e-15
2.0464e-17
7.97919e-15
4.81983e-18
7.9984e-15
-1.63281e-17
8.46306e-15
-4.6191e-16
9.91748e-15
-1.45195e-15
1.14171e-14
-1.49667e-15
1.2385e-14
-9.65407e-16
1.25431e-14
-1.54719e-16
1.0677e-14
1.86921e-15
8.29102e-15
2.38884e-15
7.14073e-15
1.15235e-15
7.47646e-15
-3.33554e-16
8.52199e-15
-1.04342e-15
9.36441e-15
-8.40138e-16
9.28992e-15
7.68343e-17
8.44423e-15
8.47922e-16
8.05617e-15
3.89675e-16
7.92942e-15
1.28875e-16
8.14697e-15
-2.15821e-16
9.0927e-15
-9.43873e-16
1.06851e-14
-1.59065e-15
1.17801e-14
-1.09314e-15
1.16092e-14
1.72772e-16
1.10216e-14
5.89414e-16
1.08096e-14
2.13665e-16
1.0619e-14
1.92351e-16
1.02768e-14
3.43812e-16
1.06223e-14
-3.44097e-16
1.08835e-14
-2.59534e-16
1.03519e-14
5.33016e-16
9.87519e-15
4.78074e-16
9.84146e-15
3.51242e-17
9.87985e-15
-3.70131e-17
1.08107e-14
-9.29699e-16
1.22853e-14
-1.47331e-15
1.24647e-14
-1.78074e-16
1.19764e-14
4.89596e-16
1.14195e-14
5.58232e-16
1.061e-14
8.1074e-16
1.0257e-14
3.54048e-16
1.03422e-14
-8.4045e-17
1.04994e-14
-1.56178e-16
1.11947e-14
-6.94154e-16
1.19242e-14
-7.28546e-16
1.20705e-14
-1.45308e-16
1.14229e-14
6.48622e-16
1.0987e-14
4.36874e-16
1.11609e-14
-1.72942e-16
1.00726e-14
1.08918e-15
9.57485e-15
4.98495e-16
1.03497e-14
-7.74052e-16
1.05426e-14
-1.92137e-16
1.13247e-14
-7.81328e-16
1.25166e-14
-1.19109e-15
1.3206e-14
-6.88573e-16
1.40526e-14
-8.45836e-16
1.51198e-14
-1.06635e-15
1.38787e-14
1.242e-15
1.11148e-14
2.76456e-15
9.96566e-15
1.14964e-15
9.6233e-15
3.42987e-16
9.59804e-15
2.58746e-17
1.02659e-14
-6.67368e-16
9.83216e-15
4.34271e-16
9.0549e-15
7.77652e-16
1.05375e-14
-1.48223e-15
1.26054e-14
-2.06742e-15
1.39322e-14
-1.32633e-15
1.44011e-14
-4.68294e-16
1.40561e-14
3.45494e-16
1.32939e-14
7.62711e-16
1.2023e-14
1.27142e-15
1.15314e-14
4.92006e-16
1.18751e-14
-3.43213e-16
1.17239e-14
1.51647e-16
1.1426e-14
2.9834e-16
1.14158e-14
1.0617e-17
1.15727e-14
-1.56491e-16
1.13712e-14
2.01858e-16
1.1129e-14
2.4253e-16
1.12553e-14
-1.25896e-16
1.173e-14
-4.74389e-16
1.26064e-14
-8.76035e-16
1.44148e-14
-1.808e-15
1.52243e-14
-8.09161e-16
1.69404e-14
-1.71583e-15
1.73529e-14
-4.12093e-16
1.51442e-14
2.20894e-15
1.32343e-14
1.91012e-15
1.36524e-14
-4.17769e-16
1.55381e-14
-1.88544e-15
1.81134e-14
-2.57492e-15
1.88295e-14
-7.15718e-16
1.8211e-14
6.18748e-16
1.70473e-14
1.16391e-15
1.43299e-14
2.71764e-15
1.23345e-14
1.99562e-15
1.13239e-14
1.0108e-15
1.09852e-14
3.38958e-16
1.13587e-14
-3.73291e-16
1.12184e-14
1.40489e-16
1.30575e-14
-1.83887e-15
1.64619e-14
-3.40418e-15
1.82002e-14
-1.73804e-15
1.86768e-14
-4.76308e-16
1.84128e-14
2.64268e-16
1.70796e-14
1.33338e-15
1.55799e-14
1.49999e-15
1.57102e-14
-1.30087e-16
1.60977e-14
-3.87281e-16
1.60893e-14
8.59676e-18
1.65689e-14
-4.79356e-16
1.67755e-14
-2.06353e-16
1.77489e-14
-9.73211e-16
1.92785e-14
-1.5293e-15
1.91542e-14
1.24632e-16
2.05268e-14
-1.37238e-15
2.2032e-14
-1.50488e-15
1.73109e-16
1.75829e-16
2.44898e-16
2.9182e-16
1.95796e-16
3.61237e-16
2.30035e-16
4.95207e-16
2.11175e-16
6.64459e-16
2.3004e-16
9.27284e-16
1.44329e-16
1.17294e-15
2.24265e-16
1.3082e-15
1.81314e-16
1.44554e-15
4.94672e-17
1.60758e-15
1.26117e-16
1.75848e-15
2.0302e-16
1.81518e-15
1.61997e-16
1.97953e-15
3.12769e-16
2.19076e-15
6.14913e-16
2.20275e-15
6.71279e-16
2.2723e-15
3.46521e-16
2.86776e-15
-1.09357e-16
3.46741e-15
-3.50392e-16
3.42281e-15
1.76406e-17
3.21552e-15
1.96731e-16
3.21841e-15
9.40185e-17
3.58465e-15
-2.58849e-16
3.80865e-15
-3.92559e-16
3.54814e-15
3.03053e-17
3.64252e-15
-7.56972e-18
4.58398e-15
-1.44918e-16
5.2702e-15
5.08208e-16
5.16825e-15
9.26727e-16
5.2146e-15
4.2969e-16
5.41258e-15
3.04369e-18
4.91924e-15
2.91672e-16
4.25778e-15
2.86733e-16
3.95083e-15
3.98654e-16
4.1198e-15
2.6583e-16
4.75178e-15
-2.2953e-16
5.29891e-15
-1.07464e-16
5.11531e-15
3.85322e-16
5.23836e-15
4.79015e-16
5.96122e-15
5.1689e-16
5.86494e-15
6.48883e-16
5.39078e-15
4.57855e-16
5.46338e-15
8.34777e-17
5.58479e-15
3.32655e-16
5.52539e-15
4.74488e-16
6.08369e-15
-3.37091e-16
6.37217e-15
-3.24315e-16
5.96328e-15
5.53007e-16
5.94431e-15
5.1079e-16
6.36389e-15
3.51347e-16
6.37172e-15
-4.10788e-17
5.95613e-15
-6.14942e-16
6.19941e-15
-8.21514e-16
7.11298e-15
-2.8073e-16
7.01677e-15
4.67422e-16
6.45053e-15
9.17163e-16
6.4527e-15
9.43402e-16
6.33475e-15
1.59708e-15
6.12157e-15
1.32846e-15
6.2132e-15
-1.69028e-16
6.12385e-15
-9.83495e-16
6.06689e-15
1.27787e-16
6.19385e-15
1.04863e-15
6.30642e-15
4.07445e-16
6.70771e-15
-1.92592e-16
6.3494e-15
-7.60321e-17
6.13164e-15
-4.62086e-16
7.29209e-15
-7.416e-16
9.41708e-15
-2.5689e-16
1.11301e-14
1.53803e-16
1.09874e-14
-5.69826e-16
9.4378e-15
5.31829e-16
7.79157e-15
1.32226e-15
6.95574e-15
4.88034e-16
6.92789e-15
2.26121e-16
7.25492e-15
6.72985e-18
7.60823e-15
-1.77195e-16
7.47288e-15
2.31249e-16
7.66704e-15
-1.66625e-16
8.72145e-15
-1.19232e-15
9.03326e-15
-5.94681e-16
8.39088e-15
1.15755e-16
8.45303e-15
2.98287e-16
9.42076e-15
2.5469e-16
1.08583e-14
1.74856e-16
1.10346e-14
1.40056e-15
9.50258e-15
2.12099e-15
7.9894e-15
1.60419e-15
8.15241e-15
-4.45881e-16
8.84513e-15
-1.30256e-15
9.81885e-15
-1.13483e-15
1.03948e-14
-1.27459e-15
1.0696e-14
-1.26756e-15
1.07137e-14
-5.64791e-17
9.94524e-15
1.30861e-15
9.95165e-15
1.04828e-15
1.01564e-14
9.90839e-16
1.01752e-14
8.63429e-16
9.72985e-15
1.36939e-15
8.87906e-15
1.41754e-15
8.80991e-15
2.94274e-16
8.80594e-15
1.65972e-16
8.33438e-15
5.80142e-17
9.32567e-15
-5.34586e-16
9.66357e-15
6.55618e-16
8.58617e-15
7.24328e-16
9.07006e-15
-7.28891e-16
1.02622e-14
-1.32473e-15
1.01559e-14
-5.74573e-16
9.53152e-15
3.2981e-16
8.92454e-15
4.18879e-16
8.00367e-15
8.52336e-16
7.15925e-15
5.15101e-16
7.31362e-15
-1.7041e-16
8.1118e-15
2.659e-16
8.65233e-15
2.24545e-16
8.91233e-15
3.68545e-16
8.89285e-15
3.9668e-16
9.05348e-15
-4.47051e-16
1.02942e-14
-1.00831e-15
1.14034e-14
-3.16916e-16
1.07776e-14
7.72189e-16
9.4736e-15
5.5326e-16
8.71076e-15
-4.66226e-16
8.07687e-15
-6.333e-16
7.62818e-15
-7.85874e-16
7.78834e-15
-4.13931e-16
8.5055e-15
4.70039e-16
9.09631e-15
3.44649e-16
8.99553e-15
4.21463e-16
8.5789e-15
9.34769e-16
8.63578e-15
7.88653e-16
1.06124e-14
-1.5022e-15
1.18957e-14
-1.89649e-15
1.13124e-14
2.77519e-16
1.11864e-14
9.68747e-16
1.27402e-14
3.22439e-16
1.18124e-14
2.09414e-15
9.28465e-15
1.97249e-15
9.05035e-15
3.14036e-16
9.29525e-15
-3.56366e-16
9.54077e-15
2.69268e-17
9.9944e-15
4.42625e-16
1.02861e-14
-1.64407e-16
9.47873e-15
-1.12885e-16
8.60837e-15
1.86389e-16
8.62999e-15
-1.88955e-16
8.79196e-15
-1.88043e-16
8.62294e-15
6.33568e-16
8.81556e-15
9.84408e-16
1.01743e-14
1.84965e-16
1.00603e-14
3.5223e-16
8.5134e-15
7.63958e-16
8.08253e-15
4.14615e-16
8.48281e-15
-1.56921e-16
9.42298e-15
-1.14219e-15
9.4323e-15
-1.02262e-15
9.15943e-15
-8.67812e-16
9.29347e-15
-9.50323e-16
9.88903e-15
-3.29809e-16
1.06938e-14
1.14212e-16
1.12158e-14
4.62958e-16
1.08389e-14
7.03932e-16
9.86321e-15
3.65143e-16
9.6847e-15
1.15403e-16
1.02095e-14
-1.25754e-16
1.08364e-14
-3.58055e-17
1.0611e-14
1.08077e-15
9.63383e-15
1.32185e-15
8.60834e-15
9.18568e-16
7.80804e-15
-3.11695e-16
7.39133e-15
-1.11344e-15
7.98347e-15
-1.2319e-15
9.92682e-15
-2.06465e-15
1.10555e-14
-1.05509e-15
1.09019e-14
1.31437e-15
1.05625e-14
1.40947e-15
9.74981e-15
2.62789e-16
9.06615e-15
-6.42514e-16
8.62145e-15
5.02791e-18
8.86373e-15
6.76819e-16
9.23716e-15
-7.9832e-17
9.31942e-15
7.91728e-16
8.97878e-15
2.00896e-15
9.39904e-15
8.78809e-16
9.72666e-15
4.17449e-16
9.26742e-15
4.94598e-16
8.77103e-15
4.34142e-16
8.79929e-15
3.72941e-17
9.70023e-15
-9.80357e-16
1.05985e-14
-1.5145e-15
1.06146e-14
-7.11601e-16
1.04425e-14
-5.16122e-16
1.11199e-14
-1.26128e-15
1.14943e-14
-4.61384e-16
1.16213e-14
1.00614e-15
1.17689e-14
3.74639e-16
1.14452e-14
-9.91644e-16
1.13796e-14
-1.13378e-15
1.12782e-14
-7.72321e-16
1.13144e-14
-3.01863e-16
1.11754e-14
6.91454e-16
1.09347e-14
6.87346e-16
1.21079e-14
-4.3607e-16
1.44144e-14
-1.03984e-15
1.4599e-14
5.17111e-16
1.24153e-14
2.0412e-15
1.08498e-14
1.29367e-15
1.02819e-14
-1.02437e-17
1.0633e-14
-7.98478e-16
9.87788e-15
3.67415e-16
9.02102e-15
6.08218e-16
9.69706e-15
-2.28103e-16
1.01465e-14
-4.50024e-16
9.53552e-15
-8.27279e-17
9.91948e-15
-1.73922e-16
1.06748e-14
-2.72086e-16
1.04824e-14
-7.96635e-16
9.87642e-15
-7.31848e-16
9.11402e-15
5.19305e-16
8.17087e-15
9.25273e-16
8.28125e-15
8.30972e-16
9.60923e-15
5.10592e-16
1.06699e-14
4.74443e-16
1.13218e-14
1.74999e-16
1.15853e-14
3.4597e-16
1.12761e-14
5.55611e-16
1.04517e-14
1.15628e-15
9.42998e-15
1.13446e-15
9.30443e-15
1.43006e-16
9.78773e-15
-1.26822e-16
1.03941e-14
-6.31293e-16
1.18025e-14
-1.06889e-15
1.18861e-14
4.98148e-17
9.83677e-15
1.32122e-15
8.49438e-15
5.78618e-16
8.65567e-15
-5.01537e-16
9.0584e-15
-3.60705e-16
8.85316e-15
2.42005e-16
8.26391e-15
6.68079e-16
8.05121e-15
3.11722e-16
8.51813e-15
-1.93697e-16
9.44638e-15
-3.17324e-16
9.88017e-15
-2.38503e-16
9.63336e-15
-3.96403e-16
1.02974e-14
-1.25913e-15
1.10243e-14
-1.22121e-15
1.13658e-14
-1.18837e-15
1.17657e-14
-1.48488e-15
1.23733e-14
-8.31022e-16
1.26849e-14
7.32941e-17
1.30125e-14
6.22229e-16
1.35678e-14
1.35519e-15
1.23141e-14
2.19563e-15
1.04185e-14
1.37695e-15
1.02276e-14
-5.02976e-16
1.00333e-14
-1.80048e-16
1.04664e-14
-2.5943e-16
1.10213e-14
-1.41074e-15
1.02467e-14
-1.49325e-15
9.20531e-15
-4.17517e-16
9.42961e-15
7.12622e-16
1.02484e-14
9.74744e-16
1.09714e-14
7.79882e-16
1.14763e-14
4.3588e-16
1.06306e-14
7.70875e-16
9.15246e-15
7.63904e-16
9.38093e-15
-6.38797e-16
1.09069e-14
-1.75286e-15
1.09765e-14
-6.39786e-16
1.03477e-14
9.61626e-16
1.1131e-14
3.38156e-16
1.10465e-14
1.90006e-16
9.76898e-15
8.27883e-16
9.34302e-15
4.07763e-16
9.77382e-15
-2.17577e-16
1.02886e-14
-1.81848e-16
1.00508e-14
-1.14883e-17
9.36837e-15
2.85656e-16
9.2555e-15
3.20242e-16
9.74965e-15
-2.82459e-16
1.00677e-14
-4.00658e-17
1.06317e-14
-5.40358e-16
1.1614e-14
-9.74097e-16
1.17158e-14
-1.14693e-16
1.07357e-14
5.21329e-16
9.55175e-15
-2.65151e-16
8.86233e-15
-8.04566e-16
8.62668e-15
-7.27222e-16
9.06238e-15
-5.87949e-16
9.86634e-15
1.06789e-15
1.03304e-14
1.92712e-15
1.10272e-14
4.58154e-16
1.05834e-14
1.13021e-16
9.31387e-15
2.28811e-16
8.83665e-15
-3.61081e-16
9.59383e-15
-6.78148e-16
1.01523e-14
2.91625e-16
9.96543e-15
5.78568e-16
1.08895e-14
-7.93393e-16
1.17925e-14
-1.11676e-15
1.19124e-14
-1.06204e-15
1.10757e-14
-7.51895e-16
9.76528e-15
2.19129e-16
9.30378e-15
6.36027e-16
9.1367e-15
7.58208e-16
9.33169e-15
2.02744e-17
9.89723e-15
-3.7158e-16
9.90361e-15
3.39143e-16
9.56419e-15
-3.29012e-18
9.62311e-15
-3.16904e-16
9.98443e-15
1.73061e-16
1.08129e-14
-3.48962e-16
1.18647e-14
-1.01513e-15
1.22466e-14
-4.17418e-16
1.08807e-14
4.37661e-16
9.00653e-15
4.01977e-16
9.10554e-15
-2.76092e-16
9.95366e-15
-3.57408e-16
1.06274e-14
-1.14362e-16
1.11284e-14
3.10852e-16
1.1497e-14
-1.33235e-17
1.29051e-14
-1.49116e-15
1.53575e-14
-2.60738e-15
1.59926e-14
-1.32796e-15
1.49132e-14
3.51925e-16
1.57064e-14
-9.37567e-16
1.68453e-14
-4.89108e-16
1.56721e-14
1.61124e-15
1.40806e-14
1.41946e-15
1.35422e-14
1.62838e-15
1.20618e-14
1.97978e-15
1.10555e-14
2.33047e-16
1.1727e-14
-8.62959e-16
1.2024e-14
-1.07745e-15
1.16075e-14
-7.73825e-16
1.16002e-14
-6.80559e-16
1.15857e-14
-8.30607e-16
1.10454e-14
-5.25332e-16
1.14767e-14
8.11426e-16
1.28939e-14
1.348e-15
1.36822e-14
3.61985e-16
1.28355e-14
1.19036e-15
1.1323e-14
1.53902e-15
1.09075e-14
-2.51286e-16
1.14591e-14
-1.16877e-16
1.17588e-14
4.78498e-16
1.15077e-14
-1.23058e-15
1.17764e-14
-2.33562e-15
1.17987e-14
-1.34824e-15
1.13569e-14
-2.58813e-17
1.14803e-14
2.2251e-16
1.18256e-14
4.17856e-16
1.2657e-14
4.40508e-16
1.28209e-14
3.28576e-16
1.13456e-14
1.13253e-15
1.02064e-14
1.29126e-15
9.66755e-15
8.376e-16
9.79636e-15
-1.17812e-16
1.06972e-14
-1.057e-15
1.17136e-14
-8.14151e-16
1.22033e-14
-2.46813e-16
1.20509e-14
2.69614e-17
1.23398e-14
-7.62956e-16
1.39515e-14
-2.48735e-15
1.58794e-14
-3.73554e-15
1.66841e-14
-1.61356e-15
1.58645e-14
-8.95859e-16
1.40495e-14
1.40324e-15
1.27969e-14
3.46184e-15
1.16977e-14
3.00955e-15
1.10361e-14
2.4414e-16
1.08483e-14
-1.69742e-15
1.08564e-14
-2.58267e-15
1.15987e-14
-1.45782e-15
1.25412e-14
-3.23389e-16
1.40149e-14
-3.09648e-16
1.63296e-14
4.03165e-16
1.60362e-14
2.28931e-15
1.47519e-14
2.29531e-15
1.52406e-14
-1.49531e-16
1.58653e-14
-9.9774e-16
1.64752e-14
-4.69158e-16
1.58529e-14
-1.21624e-15
1.41516e-14
-1.70271e-15
1.48625e-14
-2.44875e-15
1.4871e-14
-4.84535e-16
1.36542e-14
1.48132e-15
1.43394e-14
6.48414e-16
1.64626e-14
-6.2301e-16
1.73387e-14
-1.0059e-15
1.74226e-14
-4.70987e-16
1.83552e-14
-9.2376e-16
1.80207e-14
-1.44624e-16
1.70062e-14
8.08337e-16
1.72907e-14
-1.25745e-15
1.66979e-14
-9.36231e-16
1.57276e-14
1.09517e-15
1.46788e-14
-3.23298e-16
1.4651e-14
-1.47689e-15
-5.93885e-16
1.43326e-16
3.26396e-16
2.66614e-16
2.78178e-16
4.01257e-16
3.15931e-16
5.5751e-16
2.38787e-16
7.58522e-16
2.87294e-16
9.26895e-16
2.02811e-16
1.21762e-15
1.73936e-16
1.46938e-15
1.95238e-16
1.7288e-15
1.4719e-17
2.18025e-15
-5.81002e-17
2.4717e-15
2.00616e-16
2.36857e-15
5.21695e-16
2.40491e-15
5.06775e-16
2.93308e-15
3.34462e-16
3.51642e-15
3.56798e-16
3.84616e-15
2.64958e-16
3.76308e-15
2.6624e-16
3.28663e-15
4.04218e-16
3.06249e-15
4.66819e-16
3.10598e-15
3.99666e-16
3.12047e-15
3.00523e-16
3.04694e-15
4.25996e-17
2.85022e-15
1.09073e-17
2.6813e-15
3.87397e-16
2.92797e-15
-7.196e-17
3.28546e-15
-3.07697e-16
3.75993e-15
2.39671e-16
4.65066e-15
2.43061e-16
5.02338e-15
3.00824e-16
4.71339e-15
5.26895e-16
4.84683e-15
3.61557e-16
4.89379e-15
4.57666e-16
4.72388e-15
7.88286e-16
4.40429e-15
8.15205e-16
4.16463e-15
1.96195e-16
4.24467e-15
-8.27007e-18
4.20542e-15
6.11716e-16
4.20504e-15
6.51702e-16
4.26415e-15
6.31547e-16
4.61819e-15
4.81916e-16
5.12032e-15
1.5099e-16
5.59855e-15
-2.02853e-16
6.3179e-15
-1.96631e-16
7.16282e-15
-1.88193e-16
6.5891e-15
4.78057e-16
5.32967e-15
1.11629e-15
5.12394e-15
9.2067e-16
5.61952e-15
1.72357e-16
6.52846e-15
-3.75804e-16
6.46253e-15
2.33331e-16
5.55673e-15
4.78499e-16
5.13113e-15
-2.32774e-16
5.24789e-15
-2.42218e-16
5.88698e-15
-2.35121e-17
7.0056e-15
-4.54038e-17
8.45427e-15
-3.5023e-16
9.89861e-15
3.28985e-16
1.05826e-14
8.37075e-16
9.31701e-15
1.30423e-15
7.18636e-15
1.30511e-15
6.68955e-15
7.82616e-16
7.27651e-15
6.12837e-16
7.43026e-15
4.3092e-16
6.9212e-15
4.54866e-16
6.72736e-15
2.61298e-16
6.08865e-15
3.48693e-16
5.26106e-15
2.21789e-16
5.17797e-15
-3.89753e-17
5.62016e-15
-1.71916e-16
5.89554e-15
-7.06317e-16
6.96749e-15
-4.29028e-16
7.58007e-15
8.67319e-16
6.71848e-15
1.49871e-15
6.00646e-15
1.05541e-15
6.55341e-15
-4.16611e-16
7.95824e-15
-1.44591e-15
9.29663e-15
-9.71895e-16
1.0503e-14
-1.23201e-15
1.00476e-14
-5.85327e-16
9.2592e-15
3.22349e-16
9.59526e-15
-8.69432e-17
1.00001e-14
2.65919e-17
9.60412e-15
7.95486e-16
8.6359e-15
1.2607e-15
8.39527e-15
1.76542e-15
9.18656e-15
1.43956e-15
9.74646e-15
1.17042e-15
8.78849e-15
6.40962e-16
7.5578e-15
3.59434e-17
7.7202e-15
-1.20089e-15
7.36869e-15
-8.03068e-16
6.23751e-15
-3.26199e-17
6.17402e-15
9.83706e-17
6.4812e-15
1.11042e-15
6.21831e-15
1.40054e-15
6.70085e-15
5.93685e-16
7.93656e-15
-2.7333e-16
8.58378e-15
8.22173e-16
8.1467e-15
1.95594e-15
7.7311e-15
8.02951e-16
8.67805e-15
-6.93723e-16
9.13471e-15
-2.97443e-16
8.83939e-15
-1.508e-16
9.58865e-15
-1.45756e-18
9.57626e-15
8.4074e-16
8.57628e-15
3.63289e-16
7.98913e-15
-6.47439e-16
7.98499e-15
-4.93108e-16
8.78503e-15
-3.86763e-16
9.13771e-15
1.60317e-16
8.79187e-15
1.28103e-15
7.78361e-15
1.60706e-15
7.15545e-15
5.33093e-16
7.80373e-15
-3.15678e-16
8.60231e-15
-4.94179e-16
8.74093e-15
3.05097e-16
8.39927e-15
8.17846e-16
7.81753e-15
2.1481e-16
7.35827e-15
-4.71586e-16
7.05405e-15
6.25769e-17
7.22993e-15
6.64699e-16
7.40619e-15
4.43677e-16
6.92441e-15
8.43719e-17
6.2082e-15
1.47463e-16
6.05109e-15
-5.66642e-16
6.48342e-15
-7.83354e-16
7.54464e-15
-5.32062e-16
8.24853e-15
-2.93523e-16
8.39772e-15
3.37956e-16
9.16678e-15
2.23935e-16
1.02551e-14
-2.3405e-16
1.00029e-14
-1.17774e-15
8.98565e-15
-8.10843e-16
9.01844e-15
3.06459e-16
9.40126e-15
6.44811e-16
9.40048e-15
3.77169e-16
1.03265e-14
1.22608e-15
1.07317e-14
1.62906e-15
1.07357e-14
3.67667e-16
1.16389e-14
-1.20379e-15
1.36938e-14
-1.96804e-15
1.3921e-14
2.89944e-16
1.21998e-14
1.61483e-15
1.12656e-14
8.76614e-16
1.00666e-14
1.44965e-15
9.14814e-15
7.82142e-16
9.18225e-15
-1.76403e-16
9.30674e-15
5.55307e-16
9.24767e-15
1.08942e-15
9.55214e-15
-7.53393e-17
1.01444e-14
-1.8681e-16
1.09049e-14
4.88591e-17
1.26832e-14
-1.3176e-15
1.31823e-14
-5.97944e-16
1.13188e-14
7.74416e-16
9.71713e-15
6.18662e-16
9.12671e-15
-2.33744e-16
8.55001e-15
-3.31497e-16
7.92443e-15
3.39427e-16
7.71443e-15
3.66561e-16
8.31912e-15
-1.0606e-16
8.99912e-15
6.29955e-17
9.33584e-15
6.35295e-17
9.84167e-15
-3.54701e-16
9.89171e-15
-1.39205e-16
9.59321e-15
3.01352e-16
1.00212e-14
6.92253e-16
1.0657e-14
7.22752e-16
1.09549e-14
6.5762e-16
1.10279e-14
-3.4741e-16
1.08225e-14
-8.72712e-16
9.73952e-15
-1.10334e-16
7.8276e-15
-1.18316e-16
7.05392e-15
-2.52128e-16
8.6948e-15
-3.02638e-16
1.04436e-14
-3.07809e-16
1.04054e-14
3.33355e-16
9.1742e-15
6.18824e-16
8.31986e-15
8.86252e-16
8.03551e-15
9.91203e-16
7.76022e-15
2.2177e-16
8.69899e-15
-1.24108e-16
1.0153e-14
5.80866e-16
1.03306e-14
7.29163e-16
1.02737e-14
4.99782e-16
1.06614e-14
1.32522e-16
1.14924e-14
-3.72505e-16
1.23702e-14
-8.1527e-16
1.26661e-14
-1.25089e-15
1.19689e-14
-7.88353e-16
1.09958e-14
2.86309e-16
1.07879e-14
-2.85121e-16
1.10442e-14
-1.49502e-15
1.16238e-14
-1.01888e-15
1.24973e-14
1.54697e-16
1.20038e-14
8.94149e-16
1.06614e-14
3.71655e-16
1.00336e-14
-4.85389e-16
9.82524e-15
-5.42921e-16
9.90892e-15
-3.66966e-16
1.05186e-14
1.02461e-16
1.08329e-14
3.93679e-16
1.02797e-14
1.37313e-16
9.43607e-15
-1.76606e-16
9.5011e-15
4.68823e-16
1.01579e-14
1.40267e-15
1.0753e-14
7.12245e-16
9.98905e-15
7.72827e-16
8.71615e-15
4.90093e-16
8.28568e-15
8.12015e-16
8.80698e-15
1.01698e-16
9.25277e-15
-6.56657e-16
9.00432e-15
-1.86388e-16
9.11551e-15
-1.81525e-16
9.35228e-15
-3.96631e-16
9.44662e-15
-3.52792e-16
9.0367e-15
-3.71599e-16
8.38188e-15
-6.38929e-17
8.57543e-15
3.37894e-16
9.33893e-15
1.7432e-16
9.8e-15
3.83263e-16
9.98833e-15
3.34832e-16
1.06212e-14
-1.46399e-16
1.09688e-14
-1.60189e-16
1.09136e-14
4.12626e-16
1.05713e-14
9.09469e-16
1.10974e-14
6.39939e-16
1.1608e-14
6.35751e-16
1.0537e-14
1.22663e-15
9.26823e-15
1.15173e-15
9.28955e-15
-6.43628e-16
9.79907e-15
-1.56872e-15
1.01884e-14
-3.2794e-16
1.13123e-14
2.06781e-16
1.13513e-14
5.51302e-16
9.55854e-15
1.30145e-15
8.49745e-15
7.08531e-16
9.09792e-15
-3.50724e-16
1.07576e-14
-9.83582e-16
1.23741e-14
-1.29549e-15
1.30504e-14
-8.61114e-16
1.31959e-14
-4.54457e-16
1.30584e-14
-9.10295e-17
1.23563e-14
3.14541e-16
1.13872e-14
-2.80739e-16
1.09089e-14
-7.35351e-16
1.06721e-14
-9.43049e-16
9.74653e-15
-5.52185e-16
9.41526e-15
-4.93418e-16
9.78991e-15
-2.94539e-16
1.01064e-14
3.12766e-16
1.00597e-14
1.40909e-15
1.01057e-14
2.15684e-15
9.95995e-15
1.52888e-15
9.77549e-15
-3.12477e-16
9.31716e-15
2.84427e-16
9.09945e-15
-3.62463e-17
8.83242e-15
-1.13822e-15
8.41052e-15
-1.06626e-15
8.65103e-15
-6.53355e-16
9.62141e-15
-2.52345e-16
1.02754e-14
3.26527e-16
1.08603e-14
1.99828e-16
1.13372e-14
-3.57823e-17
1.1515e-14
5.9786e-16
1.09362e-14
1.34784e-15
9.82995e-15
4.72566e-16
8.60014e-15
-5.18224e-16
7.44252e-15
5.21796e-16
7.98782e-15
4.19966e-16
9.83736e-15
-1.50783e-15
1.11196e-14
-1.08822e-15
1.16389e-14
3.12348e-16
1.21999e-14
-1.49313e-16
1.21793e-14
-1.92606e-16
1.23701e-14
-3.69081e-16
1.21553e-14
2.07713e-16
1.13694e-14
1.07538e-15
1.20705e-14
-3.77944e-16
1.25577e-14
-7.65939e-16
1.27131e-14
-1.92632e-16
1.17777e-14
3.98798e-16
9.79518e-15
1.01131e-15
9.19636e-15
4.86983e-16
1.00707e-14
-3.50747e-16
1.02486e-14
-4.39976e-16
9.84162e-15
-3.95151e-16
9.60201e-15
-4.84974e-16
1.06015e-14
-1.58492e-15
1.29884e-14
-1.31651e-15
1.37146e-14
1.20413e-15
1.23795e-14
1.79587e-15
1.20262e-14
4.68852e-16
1.25409e-14
-2.83419e-16
1.30862e-14
-9.04039e-16
1.28664e-14
-4.55863e-16
1.24392e-14
7.20955e-16
1.30299e-14
-1.03434e-17
1.2637e-14
-3.98267e-16
1.12785e-14
2.43687e-16
1.0232e-14
-1.3513e-17
9.69889e-15
-2.17125e-16
1.07706e-14
-8.50846e-16
1.22088e-14
-8.00446e-16
1.26048e-14
3.64148e-16
1.16549e-14
9.72092e-16
1.03667e-14
9.18331e-16
1.022e-14
4.87368e-16
1.03428e-14
-1.24487e-16
9.8834e-15
1.44142e-16
9.44095e-15
6.16952e-16
9.35099e-15
-2.57568e-16
9.11561e-15
-7.78379e-16
8.86499e-15
-1.65497e-16
9.30464e-15
-9.70669e-19
1.04659e-14
-7.58173e-16
1.09925e-14
-8.01447e-16
1.03547e-14
2.81567e-16
1.05478e-14
-3.06358e-16
1.21373e-14
-1.27757e-15
1.37502e-14
-1.62501e-15
1.40906e-14
-1.83046e-15
1.29758e-14
-1.49133e-15
1.1607e-14
4.19494e-17
1.13279e-14
6.3205e-16
1.04413e-14
-4.99235e-17
9.7105e-15
2.42663e-16
1.05109e-14
8.11787e-16
1.20807e-14
-1.49506e-16
1.35493e-14
1.60501e-16
1.32786e-14
2.25135e-15
1.174e-14
1.77251e-15
1.11688e-14
-2.91091e-16
1.05736e-14
-4.81332e-16
1.01588e-14
-3.58378e-16
1.04166e-14
-9.37629e-16
1.0733e-14
-1.14639e-15
1.09411e-14
-7.32696e-16
1.15856e-14
1.67473e-16
1.20218e-14
9.12491e-16
1.21304e-14
2.53963e-16
1.36514e-14
-3.30059e-16
1.40555e-14
1.13549e-15
1.29678e-14
8.37022e-16
1.3692e-14
-8.40555e-16
1.44965e-14
-3.25422e-16
1.27623e-14
5.04218e-16
1.03896e-14
3.75455e-17
9.93091e-15
-8.8912e-16
1.10774e-14
-1.17187e-15
1.27778e-14
-1.47742e-15
1.45215e-14
-1.32543e-15
1.48268e-14
1.35821e-16
1.34802e-14
1.67561e-15
1.33859e-14
1.22723e-15
1.39869e-14
6.90778e-16
1.3658e-14
1.16694e-15
1.15572e-14
1.98349e-15
1.00485e-14
4.52057e-16
1.09462e-14
-1.71153e-15
1.28778e-14
-2.17803e-15
1.44641e-14
-1.55893e-15
1.4286e-14
-5.8448e-16
1.24344e-14
-6.35304e-16
1.07479e-14
-2.04868e-15
1.08705e-14
-1.73591e-15
1.18553e-14
-1.88043e-15
1.27991e-14
4.59743e-16
1.45776e-14
1.6836e-15
1.66558e-14
9.31707e-16
1.75858e-14
-6.85572e-16
1.7309e-14
-1.42029e-15
1.68041e-14
-2.07744e-15
1.65736e-14
-1.22699e-15
1.54702e-14
7.80318e-16
1.40743e-14
1.08648e-15
1.39415e-14
5.36253e-16
1.42554e-14
1.97567e-15
1.40448e-14
2.50619e-15
1.35319e-14
3.63606e-16
1.33973e-14
-8.62979e-16
1.34242e-14
-4.95818e-16
1.37982e-14
-1.59e-15
1.41291e-14
-2.03336e-15
1.36188e-14
-1.93819e-15
1.39151e-14
-7.80665e-16
1.48237e-14
5.72964e-16
1.55477e-14
-7.53686e-17
1.55051e-14
-5.80208e-16
1.52029e-14
-7.03407e-16
1.67084e-14
-1.97633e-15
1.79508e-14
-2.16596e-15
1.82706e-14
-4.64199e-16
1.90665e-14
1.27382e-17
1.74302e-14
3.79117e-16
1.51282e-14
1.366e-15
1.5665e-14
5.58637e-16
1.57335e-14
-3.91532e-16
1.38493e-14
4.07597e-16
4.66862e-16
3.18903e-16
3.06012e-16
5.68565e-16
3.30707e-16
7.72977e-16
4.11388e-16
1.00474e-15
3.04622e-16
1.25964e-15
3.30626e-16
1.42172e-15
3.15078e-16
1.64573e-15
2.02333e-16
1.89236e-15
2.48857e-16
1.99227e-15