/*--------------------------------*- C++ -*----------------------------------*\
  =========                 |
  \\      /  F ield         | OpenFOAM: The Open Source CFD Toolbox
   \\    /   O peration     | Website:  https://openfoam.org
    \\  /    A nd           | Version:  7
     \\/     M anipulation  |
\*---------------------------------------------------------------------------*/
FoamFile
{
    version     2.0;
    format      ascii;
    class       volScalarField;
    location    "500";
    object      rho;
}
// * * * * * * * * * * * * * * * * * * * * * * * * * * * * * * * * * * * * * //

dimensions      [1 -3 0 0 0 0 0];

internalField   nonuniform List<scalar> 
160000
(
25.9693
25.9709
14.8595
20.2735
16.7097
16.3112
23.0566
35.483
20.0672
22.4831
20.2124
18.7089
17.8605
20.4127
20.5337
20.2961
20.1756
23.7887
35.6478
24.0317
17.797
18.6582
24.1866
20.2292
15.4464
15.7397
22.2899
25.6128
25.6126
21.8527
20.1856
21.124
21.1237
18.0554
18.0562
18.0571
27.1578
27.1566
27.1602
23.6129
17.8366
15.1591
22.4697
26.2763
26.2772
26.2782
20.939
20.3999
17.9443
17.5924
20.6498
24.5165
21.7303
18.6685
17.9924
17.9929
19.3809
19.3817
19.9313
22.9766
22.9775
22.978
22.533
21.5877
21.9649
21.9646
18.3824
18.3828
18.3835
22.2643
22.2681
22.2652
22.1115
19.097
19.098
19.0979
22.4954
24.1723
24.173
22.2769
22.995
22.995
18.7323
18.4762
18.477
19.3546
21.3386
21.5775
21.8386
17.7616
17.7624
20.3834
20.3853
20.3841
20.1995
20.1989
23.6933
23.6936
23.6939
23.2425
22.6852
21.1823
21.8061
21.8065
22.1226
19.2734
19.2731
21.3451
22.2525
24.4076
24.4066
23.578
21.7916
20.6593
20.6594
20.279
20.2787
24.3313
25.5662
23.5261
23.5259
26.3466
26.7102
26.7094
26.2094
21.6424
18.1943
18.1949
18.2165
18.2159
18.325
21.2051
22.3974
18.8024
18.8029
20.436
21.0433
21.0414
19.5709
19.5726
19.5718
19.5729
19.5721
24.4806
24.4807
24.4809
20.549
19.6208
19.6203
19.621
21.1143
21.1145
19.8237
19.6396
19.6392
22.0898
22.091
22.1749
21.3129
19.846
18.202
20.1066
21.4899
21.4886
21.4922
22.877
21.8375
19.9719
20.4273
20.6088
21.5528
21.5487
20.1368
20.1323
20.137
20.9595
21.7627
21.7623
21.7119
21.6896
21.6895
26.4516
19.4941
19.4945
19.4949
21.0903
23.2816
23.2818
21.2456
19.2914
18.23
18.2301
20.3511
18.8061
18.8053
18.8062
24.0768
24.0767
20.531
18.6962
18.6962
19.6573
24.695
24.6935
23.2496
20.9483
23.202
26.9255
26.9237
26.0255
24.8268
22.9175
22.9181
22.9182
22.9032
22.4754
22.4748
22.4785
22.475
22.4786
22.4751
22.4813
22.4751
22.4762
21.8781
21.8784
21.8628
21.5589
22.2795
19.2767
19.2773
23.2528
21.2169
22.4638
22.4652
22.4642
21.9668
21.9664
21.7711
23.539
23.5406
23.5259
20.3696
20.3696
20.395
18.6448
18.6457
20.6012
21.3001
20.4023
20.9516
20.9532
17.5902
18.8756
23.4783
23.4777
19.9896
19.9902
21.6
21.5979
20.3994
20.3965
21.416
21.4376
22.0027
23.5458
23.5456
20.4778
19.5608
18.7137
18.7139
21.1498
21.1507
21.7495
21.7495
21.7457
22.8308
22.8308
19.299
23.3073
23.3061
23.9295
23.9286
21.7829
20.6412
22.9339
22.9339
22.9339
19.4896
18.229
18.2294
18.229
23.7799
23.7794
23.781
23.7794
22.0005
21.7389
21.7379
19.9088
19.9099
22.507
23.1719
23.1715
21.6171
19.5932
20.0349
19.8429
22.6585
22.6585
22.6584
22.4263
22.4265
22.2402
19.7199
19.8768
19.8826
19.0579
19.0607
19.0585
19.0607
20.9989
20.9976
20.8716
20.8714
22.2885
22.2885
19.2819
19.3553
19.3562
19.1511
19.1514
18.5896
17.7928
17.7928
19.1618
17.9488
17.8779
17.8816
17.8761
17.8806
17.8777
17.8792
23.0501
29.255
29.2539
29.2613
29.2515
27.378
20.4347
19.0281
21.8646
22.1902
20.7767
22.5294
22.5298
20.0006
20.0009
20.6669
21.1193
22.8466
22.8462
22.2135
21.0564
21.0597
21.056
23.45
23.45
23.45
23.4502
23.4502
23.4534
23.4501
23.4535
22.6596
21.5409
21.5413
21.8029
21.8026
23.0862
22.3891
20.9929
20.0739
20.7801
20.7785
20.7829
20.7785
20.783
20.1932
21.5152
21.5154
21.5017
19.2869
19.1303
20.6
20.5491
19.7171
19.7151
16.4863
14.3812
19.4018
16.5103
32.8401
15.6947
15.6959
17.5416
17.8005
18.2404
21.9144
21.9154
17.4598
23.1227
23.1241
22.9823
24.4921
23.3532
18.6878
18.6898
20.8254
17.796
17.7969
21.702
24.1867
24.1878
20.7532
24.0045
22.9198
19.907
19.9086
20.1027
19.9041
19.9049
21.125
20.4864
18.0562
22.7377
23.2459
23.2474
27.1577
17.5664
14.825
14.8258
14.8282
22.6693
26.2772
25.1849
20.5646
20.9948
17.5917
17.5924
17.5931
24.5184
27
27.0003
19.8347
26.6722
23.4294
19.6418
20.3439
20.3451
21.0314
21.4406
19.4885
21.5884
21.5889
19.0483
21.9283
22.2633
22.2632
22.2645
19.7263
19.1322
19.1319
21.1675
21.1669
21.0516
20.4099
20.5524
21.5376
20.867
20.8673
21.8989
22.8022
22.8027
22.8032
21.392
21.3387
22.8342
22.8345
22.8351
22.3681
19.9536
19.3989
19.4012
20.0672
20.8537
19.754
18.2817
18.282
19.341
20.6083
20.6089
25.0583
25.0584
25.0585
24.4805
24.4803
21.1952
21.084
21.0811
21.0846
21.084
23.2073
23.0473
20.9543
20.4022
21.4458
24.3099
26.0396
26.0392
21.2388
21.2394
21.2705
21.2708
21.4597
22.578
21.7505
23.7911
23.7912
22.5035
19.6015
22.7918
25.7637
25.7634
24.5936
25.0671
21.0431
21.0406
23.1041
23.1039
23.1058
23.1042
22.6047
22.7365
19.0423
19.3634
24.5676
22.7395
21.7718
21.8199
19.3761
19.3759
21.8006
21.8003
21.8028
21.8012
21.8037
22.175
18.2364
18.4116
17.6009
17.6011
17.6011
19.35
21.9152
22.8771
22.8772
19.9722
20.2923
20.2931
21.5419
19.9467
23.8651
23.8714
23.8661
23.8797
22.3031
21.7619
23.8765
23.9512
28.2841
28.2838
22.6983
22.7062
22.7064
21.3412
17.7359
17.7362
26.6196
26.6433
26.6431
23.5097
25.9596
25.9592
22.8422
22.8425
22.1626
24.0769
23.8541
23.3916
19.5578
19.5588
23.7119
24.6951
22.4801
19.9679
19.9677
19.9674
19.9677
19.9681
19.9684
22.9182
22.9181
22.8806
24.1216
23.1456
18.9015
18.902
18.9015
19.9256
22.2739
22.4751
22.3678
22.3637
22.859
21.2255
21.2258
21.2256
23.532
23.533
23.5322
23.5339
21.0277
17.8509
17.8511
23.093
23.0915
23.092
21.7696
21.7709
21.7696
23.6928
23.6927
23.3525
20.806
22.8334
22.8292
22.4139
21.6517
19.4887
19.0272
18.6657
16.5414
16.5418
22.1282
21.0154
19.8104
23.2315
20.989
20.1576
20.1575
21.4705
21.4696
18.8806
17.9567
17.9569
17.9567
23.9788
23.9786
23.9789
18.7126
17.3385
17.3386
17.3387
20.7304
21.6352
19.6617
18.1688
18.1695
19.6771
19.5931
19.5929
19.8508
19.8525
19.8505
19.8529
19.8525
20.3292
24.7561
24.7559
23.3841
19.7877
17.4157
17.4166
17.5187
23.781
23.4435
21.8078
26.6148
25.9618
20.3739
19.7558
19.7565
20.1684
19.2904
18.4406
20.0351
18.6663
18.6665
22.6585
20.8712
22.4265
19.5136
19.5143
19.5147
19.5148
21.6108
23.879
23.8797
23.8804
19.0709
19.072
21.0067
21.0067
20.8967
22.2885
20.7274
18.9246
18.925
24.247
23.2953
18.846
20.1438
20.1445
18.8432
20.131
22.8679
19.8252
19.5943
21.9177
18.225
17.8807
17.8791
20.98
26.8439
20.0436
18.9983
22.589
22.5575
20.0448
19.0281
22.7856
22.577
20.7777
20.7767
23.2926
23.3689
24.3133
24.3136
23.0805
21.1585
21.1587
21.1586
22.6343
22.6317
22.6381
21.9024
20.5296
20.5298
21.4289
21.4294
21.4301
21.8381
22.5945
22.8693
22.8683
22.9761
22.9767
22.9772
23.086
23.0862
19.6862
17.7633
17.7635
18.2083
17.5811
17.5812
18.6863
20.1952
19.0822
19.0872
21.7662
19.1303
19.1302
21.077
21.0774
20.1591
20.1608
16.7369
14.3781
19.4017
21.2172
33.1148
30.7835
25.9896
17.8295
22.7773
22.5484
20.8292
21.4684
21.5042
21.505
21.5619
24.4907
24.492
20.9941
19.3002
17.4312
19.7256
21.7232
21.7238
21.5575
21.2306
22.4192
25.0934
25.0945
23.5246
23.5251
23.5253
20.7873
21.0679
21.0686
19.7151
18.4145
18.0565
24.3927
24.3934
24.3945
23.1113
20.9014
20.992
20.9933
20.9941
20.9952
17.4675
17.4684
20.5649
22.2924
22.2932
21.1167
17.5931
18.8313
21.7069
26.7099
26.7099
26.7103
25.6138
17.9817
17.9659
17.9661
18.8313
21.4405
19.1443
19.1455
19.7646
19.0482
19.0488
19.0494
19.6992
22.2638
21.6644
19.5392
18.43
18.4296
21.0696
20.784
20.4105
20.981
20.9811
20.7238
22.663
22.6633
18.233
18.2344
22.804
22.2473
22.2168
19.6915
19.6911
22.4064
21.3745
19.9531
21.0414
21.0414
19.7477
20.8545
21.3831
21.3836
21.3839
21.048
23.1465
23.148
21.3991
24.4946
21.1984
20.7674
20.7672
22.0878
24.9039
22.0618
21.0835
23.207
23.2066
24.4392
24.4397
21.2851
21.4454
21.3516
20.1237
19.9906
20.2858
22.6535
22.6537
22.6539
22.6226
22.6232
22.3234
23.1286
21.1323
21.1318
21.2695
21.2745
21.2718
21.3862
25.547
25.4722
24.7592
21.6729
18.6572
20.48
21.8871
18.826
18.8249
23.0504
18.4373
18.4379
25.7142
25.7136
24.6932
22.4032
20.2911
19.3762
21.7791
19
19.002
19.0002
24.0285
19.9561
17.3862
17.3867
19.9229
24.8368
24.8367
24.384
22.0673
19.9109
19.0972
19.0974
21.8146
21.658
20.646
18.632
18.6318
18.6322
22.3964
23.883
23.88
23.8831
22.0848
20.2817
19.5121
23.3048
23.451
21.7217
21.7217
23.9258
23.9258
23.9259
22.2622
19.402
19.4035
20.6048
23.1192
23.6906
23.6908
19.9751
19.9759
24.0767
22.5991
20.1531
20.6302
20.629
19.2084
19.2081
20.0482
21.6514
21.6513
21.6515
21.1667
20.2143
22.1114
19.0684
19.0687
22.2101
24.1217
23.3926
18.9019
18.9015
22.034
22.9066
22.9066
22.0088
22.2962
24.1884
24.2247
26.4903
26.488
22.2272
20.0277
20.0284
22.3825
23.4401
17.8909
17.8511
18.4117
18.4121
18.4125
23.268
23.3982
23.3991
23.4004
23.4013
19.9218
17.4888
17.4886
17.4888
20.6369
20.6369
20.6387
22.2394
19.046
16.9968
16.5418
18.6719
20.725
18.9076
18.9078
23.232
23.2316
23.2318
20.9492
19.018
19.0187
22.7806
22.9575
22.9576
18.7048
18.7066
18.7075
21.6216
23.8454
23.8515
23.8454
23.8517
19.8483
19.8536
20.9343
18.1695
22.0266
22.0266
22.029
20.771
19.8525
22.2855
23.7028
23.7033
23.7037
22.4198
22.42
24.4485
18.9902
18.9912
19.092
21.7588
23.3273
23.3243
23.3317
26.6148
26.6137
20.0567
19.0163
19.0163
23.0734
23.0711
20.6902
17.7906
17.7903
17.7906
19.2395
18.414
18.4137
20.703
21.2088
21.2078
22.3798
23.6219
23.6227
23.6234
21.9101
24.0655
24.0655
24.0655
19.9962
17.4494
17.4496
18.2419
18.242
21.1738
22.5166
24.2471
24.247
18.845
16.256
15.905
15.9052
22.0672
24.1185
24.0946
24.0944
24.0915
20.3851
23.6736
23.6739
20.9791
22.7063
21.6274
18.9982
18.9983
19.3845
23.1696
23.1698
23.1696
20.999
20.7767
21.7216
22.7179
17.9981
17.9982
17.9981
20.6284
21.7897
21.7895
21.7897
20.2535
20.2542
20.5995
27.0852
22.2006
21.2201
23.316
23.3173
23.232
18.5871
17.8763
17.8763
18.1443
18.293
18.8081
22.1511
21.2045
19.1645
22.5598
22.5595
22.5592
18.2303
21.4479
22.0916
21.8645
18.385
18.3854
21.4257
23.1343
23.1344
22.6358
18.089
17.8035
17.8035
17.9409
14.3781
14.3756
21.1213
19.4987
20.422
21.3238
21.333
24.6649
24.6664
19.7667
19.3582
19.9751
19.9764
20.0404
18.9915
19.6388
22.2358
18.0368
16.7398
16.7407
19.6361
19.7942
21.4441
20.2499
20.2486
22.5099
22.5109
21.4473
23.1146
20.7185
17.8065
18.7574
19.8732
19.6817
22.0416
21.482
23.2829
23.2816
20.5921
20.5929
23.1112
21.9115
18.3356
18.3366
18.3904
19.3362
19.5218
18.4257
18.4268
18.4277
18.6813
20.9321
20.932
19.817
19.4235
20.9505
17.0745
17.0753
17.076
20.3216
21.2173
21.2179
20.9005
16.7749
16.7757
20.4312
21.7456
21.7718
21.7726
26.1044
26.1062
16.7379
16.7389
18.8402
22.0329
22.0326
21.4784
17.291
17.2921
17.2925
17.293
20.7253
22.5913
17.2781
17.279
21.3182
23.6859
22.6104
21.6415
19.8765
19.7876
19.858
17.6617
21.0742
20.901
19.2943
18.931
18.0391
17.4737
20.6771
18.8863
18.6643
18.6649
23.1654
19.8912
19.8913
22.4154
20.9983
19.9806
22.5186
24.9045
24.7587
23.5891
21.7565
18.3313
18.332
22.9284
22.7849
20.0697
21.2892
19.8936
19.7816
20.286
17.9242
16.4196
16.4199
22.623
20.0094
19.8539
19.8534
21.9192
20.8932
19.8616
21.6011
21.6015
26.4263
26.4259
26.4267
20.94
18.657
18.6575
19.1993
18.8258
18.8241
24.2673
24.2675
24.2691
24.2693
20.1513
20.652
23.0198
19.4154
19.4162
20.7959
19.3639
24.428
24.7481
24.753
24.7483
22.7225
20.577
21.6468
20.6365
24.5441
24.8369
21.4784
18.3267
20.2183
20.3958
26.8707
22.3028
18.3771
18.3769
19.3715
22.4711
22.4706
20.8373
20.8353
20.8367
21.0641
22.0589
21.8331
19.3821
18.8442
23.453
23.4538
23.4546
23.4553
23.0549
22.8455
18.4262
18.2881
23.9111
23.9112
23.9113
19.4185
19.4198
19.4201
21.0213
19.9279
19.6851
19.9966
19.5259
23.5133
22.9119
21.2513
20.5461
20.3006
19.2527
19.2539
19.2546
23.4148
23.4134
23.4131
21.7498
21.8333
21.6845
21.6855
23.2686
21.2498
17.7409
17.4415
16.6126
16.6129
18.1994
20.571
24.3747
24.4221
20.9468
22.6332
21.0671
21.6366
18.9881
18.9017
21.9698
21.1864
25.7561
25.7551
25.7561
19.2167
17.537
17.5371
17.537
21.5074
21.5054
20.9464
25.6985
26.5541
26.5545
20.9854
20.9486
22.2393
24.0679
24.0672
18.0696
19.2292
19.2258
20.9249
20.9253
20.9258
22.3013
22.0162
24.381
24.3813
21.7361
20.2326
20.8734
20.3646
22.568
25.5432
25.5374
20.3106
20.3093
20.3106
20.3104
21.8754
22.8326
22.8328
22.1815
20.8113
19.2107
19.2106
21.9492
21.7908
20.1117
18.1542
18.1542
20.0713
24.3489
24.3476
22.6536
22.6527
24.7339
26.0094
19.8851
18.9794
18.9786
18.9778
23.6585
23.6598
17.7056
18.2575
20.7883
26.7039
26.7037
21.7733
21.3814
21.3817
21.0616
19.4874
21.5826
21.5797
21.9407
22.4009
19.9776
18.6814
18.6856
18.6817
18.6856
22.5753
19.3754
19.3757
19.5973
19.5967
21.0339
21.0336
21.57
21.7658
22.3483
23.0002
22.9993
21.2625
24.2471
24.2131
23.3047
24.8268
24.8286
22.0651
24.2859
21.1795
19.3944
19.395
19.3952
19.3953
25.9242
25.9237
25.9242
19.5529
18.9983
19.9311
19.3847
20.0453
20.0446
22.9803
24.5997
24.5997
23.926
19.9821
18.0963
21.1763
21.1758
20.9879
18.7056
18.9854
17.4258
20.2673
20.2648
18.5292
27.0904
28.7298
22.2517
18.9411
18.9363
20.4029
20.4025
17.8754
17.8763
17.8764
17.8765
21.2114
19.7331
18.3004
18.3008
19.9348
22.5598
22.5595
20.2164
20.2168
22.0926
20.4587
19.6629
18.6864
18.6867
19.0873
21.8128
21.6214
18.0896
18.0736
19.8689
22.9368
19.2418
14.3718
22.3164
32.3424
21.7081
24.465
23.2799
21.1493
19.7015
19.7031
18.9735
18.6512
20.3551
20.368
18.992
18.1919
18.1937
21.8531
21.8559
21.8555
21.8584
18.6875
18.69
20.2138
20.2486
19.1926
19.1933
21.4476
23.1139
15.6257
15.6265
17.9674
17.9687
17.9702
22.7008
17.3834
22.1145
22.7734
21.8066
22.2423
21.197
21.1981
22.3222
22.1102
18.3903
20.2491
23.2908
23.2916
20.9155
20.4297
18.3103
18.3108
19.9761
19.4032
18.9921
18.9929
22.1499
22.1509
20.8466
20.4684
20.4691
20.4699
20.7431
20.0331
20.327
18.6595
18.661
19.4359
18.6625
22.7498
26.2934
26.2986
18.5758
22.1404
22.0645
18.9257
20.9279
17.2917
17.292
18.5415
18.2938
18.2948
18.2958
26.2249
26.2225
25.5687
23.6849
20.5001
20.5006
20.5499
18.7327
17.7328
17.6618
21.0743
22.1381
21.6227
21.2278
21.1964
17.4733
17.4738
17.4742
18.7692
18.7672
23.1676
26.9234
26.9205
26.6241
21.8165
17.8219
17.8222
19.2749
19.3615
20.3933
22.3405
22.3407
20.0961
19.0459
19.0459
20.0694
18.1556
18.1557
19.7833
19.6341
19.4888
22.5727
22.5727
18.5197
18.5204
20.5323
23.9777
23.9769
22.476
17.4259
17.4293
17.4296
17.4302
25.9927
23.059
20.9388
21.005
21.006
21.007
19.3312
18.8259
18.8244
18.8263
19.6639
18.9011
18.9013
21.6107
20.0673
19.0477
21.5949
21.6629
19.3639
18.6219
18.627
18.6224
18.6272
18.6256
21.0209
21.7606
18.658
16.0266
16.0237
16.0264
16.0243
16.4198
16.4206
26.8752
28.3471
24.6984
18.3749
17.9616
17.9613
22.4714
22.4704
21.2338
21.2293
19.7723
19.7718
21.3532
21.3523
18.2881
17.1622
17.1623
20.2997
23.4546
23.0787
22.3963
17.3632
16.6575
16.6572
21.3198
21.5644
18.298
21.0216
21.0213
21.0242
21.0214
19.4077
18.844
19.2475
23.5167
23.5134
20.1608
17.1868
17.1872
18.3239
22.9263
23.7806
23.7794
19.4643
19.4642
20.0577
20.0566
21.6569
23.2686
23.2684
23.123
23.1216
21.6768
21.8973
22.935
19.254
19.255
19.9363
21.1984
20.9473
24.1818
25.7275
25.7283
18.8989
18.9009
21.9699
20.2147
25.7551
25.7561
23.5517
19.7685
20.8935
20.8935
20.8932
20.6086
20.6087
21.4531
21.3837
19.6299
18.2265
17.9334
21.4148
21.4135
21.4162
23.0557
19.1487
19.1474
20.1091
20.107
20.9249
19.0288
16.1424
16.1427
18.4673
22.8531
22.8518
18.7371
16.5582
16.6148
15.9713
22.6451
27.8136
27.8118
25.9055
24.311
24.3099
23.6966
20.2816
24.4495
24.4474
23.7242
19.3598
19.2107
22.3439
20.7389
20.112
20.2984
20.297
17.5203
17.5148
17.515
22.6683
24.24
26.0094
26.0101
24.746
20.5104
19.9202
17.7683
17.7695
18.0039
17.5029
17.5042
17.5069
26.7035
26.7039
26.7037
23.5607
19.8889
21.0608
21.0597
21.0068
21.4702
22.4008
22.4008
21.2112
21.6207
22.5886
23.244
18.8309
18.8334
20.9236
20.9235
20.9236
20.755
18.6583
18.6583
21.7648
21.7653
19.3096
19.3104
19.3108
19.311
19.7505
16.7351
16.7339
16.7338
25.8402
26.546
24.3654
19.8011
19.8014
22.6526
22.652
21.7789
19.903
19.905
19.9031
21.5752
21.5732
20.6635
20.8151
20.8146
20.8207
20.815
24.5997
24.5997
23.5725
23.2723
18.3024
19.5799
19.4522
17.9949
17.9948
19.7624
17.2836
16.3833
16.3848
16.3861
16.3873
29.6346
29.639
23.4528
24.5715
19.2528
17.652
17.6521
18.8083
21.9901
21.9905
21.9911
22.4684
22.4628
22.4667
20.7234
20.3134
20.0058
20.0061
22.974
22.3519
18.1911
18.1919
20.1688
23.8011
22.9191
19.1928
19.1931
20.898
24.8153
24.8146
22.9356
16.9187
14.3687
19.2438
27.1513
23.0684
18.2745
18.2754
21.1494
19.7579
19.7028
25.4163
23.2324
20.7657
20.4405
24.2787
24.28
22.8364
19.3762
19.3758
19.6299
18.9644
18.9398
21.8606
16.499
16.5001
17.3692
21.221
20.0315
19.3884
18.8936
21.8355
22.3468
18.4856
18.1611
18.5447
16.6321
24.1263
24.879
24.8828
24.8819
24.8858
24.8847
24.8871
21.8457
19.5888
23.29
23.2907
23.2916
18.3822
18.3835
21.3466
19.0123
18.1124
18.6068
20.393
19.2086
19.209
22.8642
22.8648
22.0355
22.2333
22.2339
20.4849
22.2072
21.1318
18.659
18.6601
18.6615
18.6626
24.981
26.2979
26.294
26.2993
24.0796
17.4895
16.6333
22.5432
22.5431
21.6985
18.5415
17.6492
20.0928
20.093
19.7741
19.7746
21.5903
23.7226
23.723
23.7235
22.1363
16.6877
16.6885
17.6972
22.1377
22.1376
19.1297
17.951
17.473
17.4732
18.043
18.0422
14.2437
14.244
25.8729
26.9214
19.7905
19.7854
19.9265
21.6595
23.5715
23.5716
23.3535
20.3937
20.3952
20.8301
21.0014
19.0457
19.0461
19.0462
26.3127
26.3125
23.8977
23.8969
21.5482
19.2269
19.2263
17.7896
21.3023
21.3027
20.8212
21.2502
22.3258
20.4293
17.4293
17.4305
19.2422
25.9887
25.9855
21.3392
20.6628
20.3494
22.9111
22.9118
24.079
24.0787
18.8617
18.8629
22.2449
22.2455
22.2452
20.3648
18.8019
21.4487
21.7957
21.7964
19.7525
21.9436
21.4188
23.2605
23.2616
22.7126
22.8313
21.1967
22.6777
22.6785
18.5871
16.0265
16.6584
16.4206
25.9394
28.3511
25.1712
18.9761
18.9769
18.4538
18.4532
19.2912
24.2477
24.2601
24.2603
24.2603
21.1542
17.3384
17.3387
17.6644
18.7695
21.582
21.5821
22.5944
21.8008
24.0117
25.0662
16.6576
18.1029
21.4918
18.297
18.2342
18.0293
17.0451
17.0424
17.0452
17.0454
17.0456
24.992
19.9662
17.1868
17.1871
19.5191
19.5192
19.5192
19.5196
22.0794
22.0784
20.5679
20.9486
20.9482
19.8952
17.494
17.3083
17.3078
18.5835
20.2766
20.3938
24.6273
25.4935
21.2942
20.3781
24.0791
24.6015
24.6012
22.6535
18.9725
17.8098
20.0154
20.3259
14.673
22.6847
25.4665
20.6298
18.2566
17.5898
17.5899
19.7165
27.0937
27.0928
22.949
21.4892
20.8476
15.8809
15.8813
21.1218
26.0568
26.0567
26.0567
22.1886
19.1492
19.148
19.5175
19.5173
19.7632
21.2449
21.2453
21.2457
21.2878
22.3592
21.5577
20.1822
18.0185
15.8338
27.8136
27.8136
26.6809
20.3261
18.7038
17.4208
17.3663
17.3658
20.7328
20.7322
25.9124
25.9179
25.9184
23.1195
20.7942
20.8536
18.672
19.6872
19.9575
20.0166
18.9998
18.7575
18.7576
17.899
17.526
16.0844
16.0847
17.3007
17.3003
21.1514
21.1499
17.2639
20.6925
20.6921
26.4328
20.1034
20.1025
20.7965
19.8889
19.8891
21.0588
18.8668
18.462
18.4607
18.4633
18.4618
18.4643
21.5631
23.2437
23.244
20.2987
20.0719
20.8634
19.7226
22.3538
22.3541
18.6575
18.6496
18.6496
18.6496
22.5047
22.5038
22.2391
22.2399
21.7811
17.137
16.7325
26.5458
26.5529
26.5458
22.7043
20.6295
18.7553
17.3245
17.3246
22.2147
19.9031
19.905
19.9043
21.5757
21.5737
18.1638
17.8011
21.4325
21.433
21.4327
18.7019
19.4869
19.4869
23.2503
18.5519
18.4128
18.414
21.2393
21.2384
20.5985
18.5392
16.3859
16.3873
16.3885
29.6383
29.6346
29.639
28.9261
24.156
24.1501
20.6226
20.6266
18.8498
18.8367
18.837
22.4628
22.4685
18.6992
18.2011
18.2012
23.4064
23.4089
22.974
24.4976
24.5012
24.4979
24.5069
24.4978
22.9344
20.2145
19.1928
24.8153
24.8146
17.2539
14.3708
14.3686
14.3662
24.0269
18.2835
15.8286
17.8977
20.1903
20.3889
20.8942
23.6273
23.9726
22.1062
21.8215
20.3408
17.4711
17.4722
21.809
22.5883
21.0205
20.8469
23.3405
24.5169
24.5175
22.0858
23.56
23.5612
22.8152
19.4004
19.4009
20.3668
20.3684
22.3463
21.1553
16.6305
16.6313
16.6321
24.1246
22.9002
19.7795
19.7818
19.7813
24.1416
25.9234
25.9241
20.6973
20.9013
19.1734
19.1739
19.6388
19.8186
21.6147
21.6159
18.1129
18.1131
20.3934
20.3942
20.3949
22.8641
22.8649
20.2957
18.7643
18.765
19.9738
22.2069
20.328
18.6595
18.6609
23.6248
19.087
25.816
24.5738
23.3547
25.0518
23.754
18.121
16.6333
16.6335
16.6342
18.7237
17.6315
17.6322
18.5785
18.8099
18.7587
21.282
21.2835
20.3074
21.8084
20.5263
20.3292
20.33
16.7382
16.7384
21.8919
17.0195
17.0196
17.02
20.0405
18.8754
17.8397
17.8401
20.605
15.5558
26.921
26.9236
26.9217
26.9035
18.4884
18.4887
22.575
20.9731
18.3471
22.0225
24.0041
24.0045
24.0048
24.0053
21.5206
26.735
26.7336
24.1209
21.0965
21.03
21.0292
20.5896
21.7103
17.7893
19.0165
21.3027
19.633
18.8177
22.166
22.1662
18.8111
18.7687
17.2164
25.9624
25.9838
23.8134
20.3492
20.349
18.6929
18.693
24.0785
23.6491
21.0474
19.127
19.1192
19.1205
20.9307
21.2886
18.4678
17.0193
17.0193
22.8356
22.8341
22.0294
21.7494
23.2614
23.2623
23.2632
23.6685
21.1975
21.1985
21.9347
23.4103
17.2283
22.6113
21.1802
27.5086
28.8782
23.315
18.9761
18.9766
26.6515
26.6515
26.6517
23.0509
21.2935
22.332
23.3459
18.1496
17.3386
17.3389
20.1963
19.8166
19.0697
20.1381
20.9114
20.9109
23.2032
25.5433
25.5432
26.4966
26.4974
25.0173
21.1828
21.7263
17.1756
17.0451
17.0445
17.0461
17.0454
25.0731
25.0718
25.0768
23.7615
18.2265
17.7499
21.0704
21.0705
21.0705
21.0706
23.3514
19.7519
19.6014
19.6014
21.5992
21.3748
17.9438
17.9451
23.2179
23.2156
23.2203
26.014
26.0144
21.9864
21.1451
21.145
22.3194
22.0482
19.5256
14.6714
14.6708
14.6729
14.6718
27.4527
27.4533
27.4601
27.452
26.763
18.7792
19.4375
22.3725
19.5459
19.5459
19.6899
19.6915
20.5267
20.3137
18.3564
18.0618
18.0621
21.8232
21.8225
23.6383
23.6376
23.6383
23.2568
21.0284
20.1116
20.1119
20.1115
21.7369
22.2261
16.6988
16.6975
16.6962
15.7629
27.813
27.8136
22.6872
18.7036
18.704
23.6524
23.652
22.3878
22.3936
21.0884
20.0767
20.076
20.0767
23.2583
23.2583
21.289
17.7113
17.7131
18.1158
20.0161
21.3131
21.3139
21.3146
24.3087
22.4322
17.637
23.8077
24.5682
24.5676
20.3703
17.9015
16.5448
16.5427
16.3989
27.135
27.1873
24.5151
22.8632
20.8778
21.1824
19.5983
17.9603
17.9607
21.8303
23.9958
23.9956
23.9959
20.8445
20.7209
20.7206
23.9882
20.027
19.8483
18.0466
18.0481
22.8705
24.7756
25.246
25.2708
25.271
20.9514
17.3096
16.7342
16.7294
16.7332
16.7309
16.7324
26.5482
26.546
26.5533
26.5453
26.5526
19.7787
17.3246
20.492
22.3791
21.7705
21.4529
20.1177
20.8697
21.5755
20.1506
17.8015
17.8011
19.3818
18.7019
18.702
25.648
25.6454
24.6386
25.8903
25.8911
25.602
20.9884
20.9811
20.1539
21.1879
19.9143
17.7171
16.3898
29.5734
29.639
29.6346
29.6388
26.8718
23.0962
21.9677
18.6262
21.9048
22.4675
22.4627
22.4684
22.4628
19.0073
20.7391
22.6392
22.5441
22.5374
24.4969
24.5007
20.8844
18.7081
18.7064
20.8676
21.9344
19.5086
20.7296
21.0931
24.8153
21.0002
14.5997
14.3662
14.3637
19.8061
25.0959
18.8119
25.7224
25.7239
19.3726
18.6991
18.701
21.074
22.1944
22.196
19.5971
22.1233
22.1248
22.1263
22.6726
22.6739
19.0676
19.0688
19.6461
21.8827
23.1223
21.2152
17.705
17.706
24.8299
24.8308
18.6474
20.4125
20.414
18.6307
19.1287
21.2639
21.2968
22.6637
21.8394
21.8364
22.8052
23.2285
19.5773
24.1341
25.9243
24.1605
23.8795
23.8342
20.5884
23.5475
23.548
23.4444
19.0277
19.0287
18.5601
17.9255
19.4841
19.7282
19.7285
22.8648
22.58
22.3322
18.8326
17.083
21.1593
21.2446
21.2454
22.4286
23.6334
23.7907
25.8146
24.3805
23.355
21.9614
18.8142
18.122
23.3045
24.8952
24.8956
23.8193
18.0959
21.7639
21.4757
19.2778
18.7584
18.759
18.7592
20.3074
20.3079
21.7693
18.8224
18.8226
19.3913
22.6139
22.6136
22.6155
21.398
23.9435
23.9432
22.7655
25.8257
25.8237
20.605
16.1108
26.389
22.671
22.6721
23.6121
20.0297
18.4883
18.4886
18.3469
18.3474
19.5932
17.5646
17.5658
21.9533
24.0051
23.3406
19.0416
19.0415
19.0421
24.4816
22.5114
21.0959
22.249
22.2493
19.3896
19.7587
21.3032
21.3029
18.5946
18.5283
18.5291
20.9591
20.2098
17.2258
24.3671
25.9817
25.9795
23.5727
23.7778
23.8609
21.7272
20.2819
23.6491
17.8976
17.2918
17.2915
23.0153
23.0977
23.0978
20.7524
19.3414
21.8142
21.9872
19.2163
19.2174
22.3667
21.0525
21.0097
25.9597
25.9592
23.5647
21.7139
23.4102
23.4111
23.4118
23.9645
29.227
29.2266
29.2272
21.7807
25.6837
25.6832
21.0777
20.1135
20.1136
23.4882
20.174
20.1748
20.1742
22.2491
23.127
23.1254
23.1272
20.5879
19.0693
19.6687
26.1454
26.1452
24.0377
19.2876
19.0767
25.6102
26.4967
26.4862
21.2214
21.7264
21.7263
21.7265
17.8246
18.8462
21.7628
25.0712
25.0767
25.0713
24.0302
18.3796
17.7497
17.7497
17.7498
18.9179
21.6859
23.3501
23.3539
23.3502
23.3539
21.6009
19.5375
19.4071
20.5315
20.5319
23.8032
26.4619
26.4616
19.4041
19.3278
22.2084
22.2086
22.2089
22.2087
21.421
18.6588
19.7233
19.7213
19.5765
23.7086
19.3008
19.3011
20.352
23.1966
23.1955
20.2505
17.8897
17.8902
20.8538
22.6794
22.9701
22.9704
22.9701
18.4058
18.5734
22.744
22.7441
23.2148
23.2133
20.6896
20.6891
23.256
22.1949
21.1383
21.348
21.3482
20.1246
22.2259
18.3669
16.6988
16.6975
24.2224
27.8095
22.1088
18.7037
18.7041
22.5339
23.652
23.6524
22.4179
22.3942
21.261
21.3653
21.4082
21.4051
21.7406
18.0115
17.7113
17.7124
22.0194
22.0201
22.0194
18.8256
18.825
23.5883
24.311
24.3087
18.1058
18.107
18.5153
24.5682
22.9206
20.0544
19.7589
16.6572
19.3576
24.0398
27.1901
27.1873
26.3202
21.0074
21.1808
25.6232
25.6229
24.6202
22.9466
22.1505
20.6043
20.6041
20.6044
24.984
24.9847
24.969
22.2166
19.6581
21.336
21.335
20.2229
22.3354
19.0583
19.0597
19.0602
19.0606
21.3487
23.0516
23.0552
22.1699
23.1243
23.1256
26.5451
26.5525
26.5453
24.2926
20.3028
19.0009
19.3671
19.3681
22.4479
20.3616
20.3618
21.257
18.1329
18.1325
18.1329
22.6785
22.6784
20.6458
23.5225
25.648
25.6467
23.2343
21.7004
21.7005
21.7005
23.1741
20.6796
20.1539
20.1535
21.1878
22.5655
25.698
28.9662
28.9685
22.4747
22.4758
22.4908
24.0214
19.1669
17.3409
17.3414
17.3415
21.7981
19.7723
19.7724
19.7722
22.6421
22.6392
22.6421
21.2868
22.8411
22.8411
19.5782
18.7081
18.704
21.5194
21.2501
19.2981
19.2986
24.0346
24.0342
21.8321
18.0552
15.3601
14.3637
14.3613
19.0525
20.4092
18.2162
18.2594
24.8235
23.2703
20.3003
19.4193
22.4853
20.1476
17.5324
17.5333
21.675
18.0852
16.8064
18.7106
21.6253
19.0677
23.4787
26.7571
26.7581
23.7831
24.3825
24.3831
20.7157
24.8296
24.8304
18.3707
18.0177
18.0185
18.0196
18.0204
21.4987
21.2742
24.9429
24.944
23.0364
23.3913
23.3922
19.0435
18.1693
18.5293
19.5326
19.5306
19.5313
20.3255
21.4332
22.7137
23.5854
23.5866
19.1008
20.5314
17.9259
17.161
17.6287
20.5439
20.5437
21.3911
20.8405
17.0824
17.0828
18.2337
17.2516
16.0264
16.0284
16.0287
16.0303
25.8193
25.8193
25.8261
25.82
24.862
22.2112
24.8945
24.895
20.3805
19.4713
20.2863
23.3139
21.5293
18.7581
18.7587
20.3628
22.4326
22.4333
23.0209
23.398
19.828
22.3485
19.604
19.8607
22.6146
22.614
19.3475
17.3924
17.3928
17.393
17.4619
17.4636
19.8905
18.0362
26.386
26.3843
26.3843
22.3944
20.0293
21.1445
18.3598
18.3471
21.0394
21.6179
20.5311
21.5617
21.9527
20.6364
20.2064
19.0411
19.0419
24.6525
24.6526
24.6521
24.0717
20.1634
20.164
20.8162
19.6233
19.6233
20.8341
19.4865
22.2006
22.2028
20.9569
18.5927
17.2005
26.506
24.317
19.487
19.4884
23.0357
24.3169
24.3168
20.2835
19.6503
19.6489
23.1284
23.6097
19.3202
19.3208
19.6277
20.7156
19.1517
20.2812
19.7805
19.2157
22.9814
22.9812
22.9149
21.0093
21.2682
24.5683
23.3941
18.8619
16.8035
16.8002
16.8036
16.8017
16.8028
29.2265
28.776
21.2095
21.2095
23.7833
23.0459
24.1158
24.7262
24.7261
21.4099
20.1741
21.3178
21.3268
21.319
21.3694
18.6186
18.2531
18.2534
19.6043
24.5399
25.3245
22.6974
21.4672
19.0753
19.0612
17.9957
17.9576
19.7131
19.7126
21.0172
18.9826
17.7779
17.778
17.778
21.8539
21.035
21.035
21.5244
20.5933
19.9522
19.2276
19.2855
18.9177
21.0436
19.4487
20.9067
20.2954
23.3502
23.354
23.3497
23.3567
23.3498
23.3562
22.1395
17.5572
17.5573
17.5573
19.3287
19.3294
16.4938
16.4937
16.4935
17.7408
17.7409
17.7414
18.0323
18.035
26.5718
26.572
26.5722
26.462
20.1801
20.181
22.4643
23.6582
24.4113
24.4107
24.4113
20.7055
20.3295
20.3288
19.1252
18.9673
20.035
20.0352
20.0358
24.3563
20.6891
20.6896
21.2493
18.536
18.5358
19.7739
17.9326
17.2142
16.704
16.7019
16.7006
18.5747
18.3486
24.3174
25.8244
25.8243
25.8244
23.5513
19.6186
19.6192
20.3195
20.1622
20.1616
21.3657
20.0318
19.9416
21.6076
21.7018
21.7041
21.7018
17.5002
16.5383
16.5376
17.9404
22.1484
22.1497
20.7658
24.311
24.2145
20.7866
22.2446
22.2378
19.449
19.4488
19.9059
21.525
19.3584
27.1965
27.192
26.7049
26.7035
26.7019
26.7002
22.1534
19.2573
19.2581
20.1934
23.7096
23.7098
24.9874
24.9836
24.9849
20.7976
19.292
19.2932
19.2944
20.2224
20.2224
20.2226
22.6971
22.7219
22.7224
21.988
22.6474
21.0386
16.393
16.3922
16.3929
16.3936
16.3943
25.1581
21.7373
17.8082
17.8086
19.0377
19.0011
20.1755
23.6623
25.6394
25.6393
25.6394
24.683
24.9994
24.9999
24.6088
23.6196
19.0559
18.994
18.9941
18.9967
19.4596
20.4869
24.3942
24.3941
23.46
25.1027
28.1716
28.171
27.0455
18.0289
18.032
18.0319
18.0328
26.5845
26.579
26.577
24.6404
17.3408
17.3409
17.3408
19.768
19.7417
19.7416
20.927
20.9264
23.3307
21.5433
19.5025
19.403
19.4038
19.9686
18.8142
18.8138
21.0766
21.5193
21.5176
22.9767
22.9766
19.9963
20.5303
24.0346
22.3928
18.0581
22.1006
21.9686
14.3574
29.1858
21.092
18.2159
23.2996
24.823
22.6216
23.7988
19.3222
22.4849
18.8557
17.559
17.6839
21.4591
20.5858
16.8064
16.8074
21.6667
19.0755
18.0807
20.1659
21.8605
22.1739
19.2066
21.1849
18.3957
18.3966
18.5343
23.346
23.2906
21.4521
23.1284
23.13
23.1314
24.8961
24.9438
23.9878
20.6535
20.6545
23.1783
18.3171
18.1688
20.5934
19.6511
20.6791
20.6795
23.3993
23.4001
23.401
20.8471
20.6591
20.6595
21.9073
21.1016
17.1607
20.4944
20.5605
20.6383
21.1087
21.436
21.4352
19.9416
21.1062
21.3433
21.65
21.65
20.8348
18.9909
23.7536
20.9344
20.9342
23.4489
21.5201
18.5284
18.5291
18.6988
19.5109
19.4713
26.3697
26.3704
26.3708
23.7608
22.1075
22.4312
22.4319
20.8648
20.8655
25.4659
26.6747
26.675
22.7607
20.4952
18.8242
18.8247
18.8251
19.304
21.2103
21.2119
21.2123
21.2127
21.2127
22.4141
22.4202
22.4149
23.94
23.9396
23.046
21.3791
18.3604
21.2846
21.6175
21.6162
20.8302
17.9367
17.9373
19.1592
19.9446