/*--------------------------------*- C++ -*----------------------------------*\
  =========                 |
  \\      /  F ield         | OpenFOAM: The Open Source CFD Toolbox
   \\    /   O peration     | Website:  https://openfoam.org
    \\  /    A nd           | Version:  7
     \\/     M anipulation  |
\*---------------------------------------------------------------------------*/
FoamFile
{
    version     2.0;
    format      ascii;
    class       volScalarField;
    location    "500";
    object      T;
}
// * * * * * * * * * * * * * * * * * * * * * * * * * * * * * * * * * * * * * //

dimensions      [0 0 0 1 0 0 0];

internalField   nonuniform List<scalar> 
160000
(
309.93
309.791
309.653
309.516
309.377
309.24
309.105
308.975
308.849
308.718
308.587
308.461
308.335
308.207
308.085
307.966
307.847
307.73
307.612
307.496
307.38
307.268
307.16
307.052
306.945
306.838
306.73
306.626
306.523
306.423
306.325
306.228
306.129
306.03
305.936
305.842
305.749
305.659
305.572
305.485
305.396
305.307
305.219
305.135
305.054
304.97
304.889
304.81
304.732
304.652
304.575
304.498
304.422
304.349
304.275
304.204
304.132
304.062
303.995
303.93
303.861
303.793
303.729
303.666
303.606
303.544
303.481
303.418
303.359
303.304
303.247
303.189
303.133
303.078
303.024
302.97
302.917
302.865
302.814
302.763
302.713
302.662
302.613
302.566
302.518
302.471
302.426
302.383
302.34
302.297
302.254
302.213
302.17
302.127
302.087
302.049
302.012
301.974
301.937
301.901
301.865
301.83
301.795
301.76
301.727
301.694
301.661
301.629
301.597
301.565
301.534
301.505
301.476
301.447
301.419
301.391
301.363
301.337
301.309
301.282
301.256
301.232
301.207
301.183
301.159
301.135
301.111
301.088
301.066
301.044
301.023
301.002
300.982
300.96
300.939
300.919
300.9
300.881
300.863
300.846
300.828
300.809
300.792
300.776
300.758
300.742
300.726
300.71
300.695
300.68
300.665
300.651
300.637
300.623
300.609
300.596
300.583
300.57
300.557
300.544
300.532
300.52
300.508
300.497
300.486
300.475
300.464
300.453
300.443
300.433
300.423
300.413
300.404
300.395
300.385
300.376
300.368
300.359
300.351
300.342
300.334
300.327
300.319
300.312
300.304
300.297
300.29
300.283
300.277
300.27
300.264
300.257
300.251
300.245
300.239
300.233
300.228
300.222
300.216
300.211
300.206
300.2
300.195
300.191
300.186
300.181
300.177
300.172
300.168
300.164
300.16
300.156
300.152
300.148
300.144
300.14
300.137
300.133
300.13
300.127
300.123
300.12
300.117
300.114
300.111
300.108
300.105
300.102
300.1
300.097
300.095
300.092
300.09
300.087
300.085
300.083
300.081
300.078
300.076
300.074
300.072
300.07
300.068
300.067
300.065
300.063
300.061
300.06
300.058
300.056
300.055
300.053
300.052
300.05
300.049
300.048
300.046
300.045
300.044
300.043
300.041
300.04
300.039
300.038
300.037
300.036
300.035
300.034
300.033
300.032
300.031
300.03
300.029
300.028
300.027
300.027
300.026
300.025
300.024
300.024
300.023
300.022
300.022
300.021
300.02
300.02
300.019
300.019
300.018
300.018
300.017
300.016
300.016
300.015
300.015
300.015
300.014
300.014
300.013
300.013
300.012
300.012
300.012
300.011
300.011
300.011
300.01
300.01
300.01
300.009
300.009
300.009
300.009
300.008
300.008
300.008
300.008
300.007
300.007
300.007
300.007
300.006
300.006
300.006
300.006
300.006
300.005
300.005
300.005
300.005
300.005
300.005
300.004
300.004
300.004
300.004
300.004
300.004
300.004
300.004
300.003
300.003
300.003
300.003
300.003
300.003
300.003
300.003
300.003
300.003
300.002
300.002
300.002
300.002
300.002
300.002
300.002
300.002
300.002
300.002
300.002
300.002
300.002
300.002
300.002
300.002
300.002
300.001
300.001
300.001
300.001
300.001
300.001
300.001
300.001
300.001
300.001
300.001
300.001
300.001
300.001
300.001
300.001
300.001
300.001
300.001
300.001
300.001
300.001
300.001
300.001
300.001
300.001
300.001
300.001
300.001
300.001
300.001
300.001
300.001
309.927
309.787
309.652
309.515
309.378
309.242
309.108
308.975
308.846
308.718
308.586
308.459
308.336
308.211
308.087
307.966
307.85
307.73
307.609
307.492
307.378
307.268
307.158
307.049
306.944
306.841
306.734
306.627
306.524
306.423
306.323
306.226
306.128
306.03
305.936
305.843
305.748
305.66
305.575
305.485
305.394
305.307
305.219
305.135
305.054
304.97
304.888
304.811
304.733
304.652
304.572
304.496
304.423
304.348
304.275
304.205
304.133
304.063
303.995
303.928
303.861
303.794
303.729
303.666
303.605
303.542
303.481
303.42
303.361
303.303
303.245
303.188
303.132
303.078
303.024
302.97
302.917
302.865
302.814
302.763
302.712
302.662
302.614
302.567
302.519
302.471
302.426
302.383
302.34
302.297
302.254
302.212
302.17
302.127
302.088
302.05
302.012
301.974
301.937
301.901
301.865
301.829
301.795
301.761
301.726
301.693
301.661
301.629
301.597
301.565
301.534
301.505
301.476
301.447
301.419
301.391
301.363
301.336
301.309
301.283
301.256
301.231
301.207
301.183
301.159
301.135
301.111
301.088
301.066
301.044
301.023
301.002
300.982
300.96
300.939
300.92
300.901
300.881
300.863
300.846
300.828
300.81
300.792
300.775
300.758
300.742
300.726
300.71
300.695
300.68
300.665
300.651
300.637
300.623
300.609
300.596
300.583
300.57
300.557
300.544
300.532
300.52
300.508
300.497
300.486
300.475
300.464
300.453
300.443
300.433
300.423
300.413
300.404
300.395
300.385
300.376
300.368
300.359
300.351
300.342
300.334
300.327
300.319
300.312
300.304
300.297
300.29
300.283
300.277
300.27
300.264
300.257
300.251
300.245
300.239
300.233
300.227
300.222
300.216
300.211
300.206
300.2
300.196
300.191
300.186
300.181
300.177
300.172
300.168
300.164
300.16
300.156
300.152
300.148
300.144
300.14
300.137
300.133
300.13
300.127
300.123
300.12
300.117
300.114
300.111
300.108
300.105
300.102
300.1
300.097
300.095
300.092
300.09
300.087
300.085
300.083
300.081
300.078
300.076
300.074
300.072
300.07
300.069
300.067
300.065
300.063
300.061
300.06
300.058
300.056
300.055
300.053
300.052
300.05
300.049
300.048
300.046
300.045
300.044
300.043
300.041
300.04
300.039
300.038
300.037
300.036
300.035
300.034
300.033
300.032
300.031
300.03
300.029
300.028
300.027
300.027
300.026
300.025
300.024
300.024
300.023
300.022
300.022
300.021
300.02
300.02
300.019
300.019
300.018
300.018
300.017
300.016
300.016
300.015
300.015
300.015
300.014
300.014
300.013
300.013
300.012
300.012
300.012
300.011
300.011
300.011
300.01
300.01
300.01
300.009
300.009
300.009
300.009
300.008
300.008
300.008
300.008
300.007
300.007
300.007
300.007
300.006
300.006
300.006
300.006
300.006
300.005
300.005
300.005
300.005
300.005
300.005
300.004
300.004
300.004
300.004
300.004
300.004
300.004
300.004
300.003
300.003
300.003
300.003
300.003
300.003
300.003
300.003
300.003
300.003
300.002
300.002
300.002
300.002
300.002
300.002
300.002
300.002
300.002
300.002
300.002
300.002
300.002
300.002
300.002
300.002
300.002
300.001
300.001
300.001
300.001
300.001
300.001
300.001
300.001
300.001
300.001
300.001
300.001
300.001
300.001
300.001
300.001
300.001
300.001
300.001
300.001
300.001
300.001
300.001
300.001
300.001
300.001
300.001
300.001
300.001
300.001
300.001
300.001
300.001
309.929
309.79
309.651
309.515
309.377
309.241
309.109
308.975
308.845
308.718
308.586
308.459
308.336
308.214
308.089
307.968
307.848
307.725
307.608
307.492
307.378
307.266
307.156
307.049
306.944
306.84
306.735
306.63
306.525
306.422
306.324
306.227
306.129
306.03
305.935
305.843
305.75
305.661
305.574
305.485
305.395
305.306
305.22
305.137
305.053
304.968
304.889
304.811
304.733
304.652
304.572
304.495
304.422
304.349
304.276
304.206
304.135
304.065
303.994
303.926
303.861
303.795
303.729
303.666
303.605
303.542
303.479
303.419
303.361
303.303
303.246
303.19
303.132
303.078
303.024
302.97
302.917
302.865
302.813
302.762
302.713
302.663
302.614
302.566
302.52
302.473
302.427
302.382
302.338
302.296
302.253
302.211
302.169
302.128
302.089
302.051
302.013
301.975
301.937
301.901
301.865
301.83
301.795
301.761
301.727
301.693
301.66
301.628
301.597
301.565
301.535
301.505
301.475
301.447
301.419
301.391
301.364
301.336
301.309
301.282
301.257
301.232
301.207
301.182
301.158
301.135
301.111
301.089
301.066
301.045
301.023
301.002
300.981
300.96
300.939
300.92
300.901
300.882
300.863
300.846
300.828
300.81
300.792
300.775
300.758
300.741
300.726
300.71
300.695
300.68
300.665
300.651
300.637
300.623
300.609
300.596
300.583
300.57
300.557
300.544
300.532
300.52
300.508
300.497
300.486
300.475
300.464
300.454
300.443
300.433
300.423
300.413
300.404
300.394
300.385
300.377
300.368
300.359
300.351
300.342
300.334
300.327
300.319
300.312
300.304
300.297
300.29
300.283
300.277
300.27
300.264
300.257
300.251
300.245
300.239
300.233
300.227
300.222
300.216
300.211
300.206
300.201
300.195
300.191
300.186
300.181
300.177
300.172
300.168
300.164
300.16
300.156
300.152
300.148
300.144
300.14
300.137
300.133
300.13
300.127
300.123
300.12
300.117
300.114
300.111
300.108
300.105
300.102
300.1
300.097
300.095
300.092
300.09
300.087
300.085
300.083
300.081
300.078
300.076
300.074
300.072
300.07
300.069
300.067
300.065
300.063
300.061
300.06
300.058
300.056
300.055
300.053
300.052
300.05
300.049
300.048
300.046
300.045
300.044
300.043
300.041
300.04
300.039
300.038
300.037
300.036
300.035
300.034
300.033
300.032
300.031
300.03
300.029
300.028
300.027
300.027
300.026
300.025
300.024
300.024
300.023
300.022
300.022
300.021
300.02
300.02
300.019
300.019
300.018
300.018
300.017
300.016
300.016
300.015
300.015
300.015
300.014
300.014
300.013
300.013
300.012
300.012
300.012
300.011
300.011
300.011
300.01
300.01
300.01
300.009
300.009
300.009
300.009
300.008
300.008
300.008
300.008
300.007
300.007
300.007
300.007
300.006
300.006
300.006
300.006
300.006
300.005
300.005
300.005
300.005
300.005
300.005
300.004
300.004
300.004
300.004
300.004
300.004
300.004
300.004
300.003
300.003
300.003
300.003
300.003
300.003
300.003
300.003
300.003
300.003
300.002
300.002
300.002
300.002
300.002
300.002
300.002
300.002
300.002
300.002
300.002
300.002
300.002
300.002
300.002
300.002
300.002
300.001
300.001
300.001
300.001
300.001
300.001
300.001
300.001
300.001
300.001
300.001
300.001
300.001
300.001
300.001
300.001
300.001
300.001
300.001
300.001
300.001
300.001
300.001
300.001
300.001
300.001
300.001
300.001
300.001
300.001
300.001
300.001
300.001
309.929
309.79
309.651
309.513
309.375
309.238
309.107
308.974
308.843
308.713
308.585
308.462
308.338
308.214
308.09
307.968
307.848
307.726
307.608
307.491
307.378
307.265
307.155
307.05
306.942
306.837
306.736
306.63
306.523
306.423
306.325
306.227
306.13
306.032
305.935
305.842
305.75
305.662
305.576
305.485
305.394
305.305
305.22
305.136
305.053
304.97
304.89
304.811
304.731
304.652
304.573
304.494
304.421
304.349
304.276
304.204
304.135
304.065
303.996
303.928
303.862
303.795
303.729
303.666
303.605
303.542
303.479
303.419
303.361
303.302
303.245
303.19
303.134
303.079
303.024
302.968
302.916
302.864
302.811
302.762
302.713
302.662
302.614
302.567
302.521
302.474
302.428
302.382
302.338
302.295
302.252
302.211
302.169
302.129
302.09
302.05
302.012
301.975
301.939
301.901
301.864
301.83
301.795
301.761
301.727
301.693
301.66
301.628
301.597
301.565
301.535
301.506
301.476
301.447
301.419
301.391
301.364
301.336
301.309
301.282
301.257
301.232
301.207
301.183
301.159
301.134
301.111
301.088
301.066
301.045
301.023
301.002
300.98
300.96
300.939
300.92
300.901
300.882
300.864
300.846
300.827
300.81
300.793
300.775
300.758
300.742
300.726
300.71
300.695
300.68
300.665
300.651
300.637
300.623
300.609
300.596
300.583
300.569
300.557
300.544
300.532
300.52
300.508
300.497
300.486
300.475
300.464
300.454
300.443
300.433
300.423
300.413
300.404
300.394
300.385
300.376
300.368
300.359
300.351
300.342
300.334
300.327
300.319
300.312
300.304
300.297
300.29
300.283
300.277
300.27
300.264
300.257
300.251
300.245
300.239
300.233
300.228
300.222
300.216
300.211
300.206
300.201
300.196
300.191
300.186
300.181
300.177
300.172
300.168
300.164
300.16
300.156
300.152
300.148
300.144
300.14
300.137
300.133
300.13
300.127
300.123
300.12
300.117
300.114
300.111
300.108
300.105
300.102
300.1
300.097
300.095
300.092
300.09
300.087
300.085
300.083
300.081
300.078
300.076
300.074
300.072
300.07
300.069
300.067
300.065
300.063
300.061
300.06
300.058
300.056
300.055
300.053
300.052
300.05
300.049
300.048
300.046
300.045
300.044
300.043
300.041
300.04
300.039
300.038
300.037
300.036
300.035
300.034
300.033
300.032
300.031
300.03
300.029
300.028
300.027
300.027
300.026
300.025
300.024
300.024
300.023
300.022
300.022
300.021
300.02
300.02
300.019
300.019
300.018
300.018
300.017
300.016
300.016
300.015
300.015
300.015
300.014
300.014
300.013
300.013
300.012
300.012
300.012
300.011
300.011
300.011
300.01
300.01
300.01
300.009
300.009
300.009
300.009
300.008
300.008
300.008
300.008
300.007
300.007
300.007
300.007
300.006
300.006
300.006
300.006
300.006
300.005
300.005
300.005
300.005
300.005
300.005
300.004
300.004
300.004
300.004
300.004
300.004
300.004
300.004
300.003
300.003
300.003
300.003
300.003
300.003
300.003
300.003
300.003
300.003
300.002
300.002
300.002
300.002
300.002
300.002
300.002
300.002
300.002
300.002
300.002
300.002
300.002
300.002
300.002
300.002
300.002
300.001
300.001
300.001
300.001
300.001
300.001
300.001
300.001
300.001
300.001
300.001
300.001
300.001
300.001
300.001
300.001
300.001
300.001
300.001
300.001
300.001
300.001
300.001
300.001
300.001
300.001
300.001
300.001
300.001
300.001
300.001
300.001
300.001
309.93
309.792
309.652
309.511
309.374
309.237
309.105
308.973
308.841
308.713
308.586
308.465
308.343
308.211
308.085
307.967
307.849
307.729
307.612
307.492
307.376
307.264
307.155
307.05
306.942
306.838
306.737
306.63
306.525
306.424
306.323
306.225
306.13
306.031
305.933
305.842
305.753
305.664
305.573
305.482
305.394
305.306
305.219
305.136
305.054
304.972
304.892
304.813
304.731
304.65
304.572
304.495
304.421
304.348
304.276
304.204
304.134
304.065
303.995
303.928
303.862
303.796
303.73
303.667
303.605
303.542
303.479
303.418
303.36
303.302
303.245
303.19
303.134
303.078
303.024
302.968
302.915
302.863
302.812
302.761
302.711
302.663
302.615
302.568
302.521
302.474
302.428
302.383
302.338
302.295
302.252
302.211
302.17
302.129
302.09
302.051
302.012
301.975
301.939
301.902
301.864
301.828
301.795
301.761
301.727
301.694
301.66
301.628
301.597
301.565
301.535
301.506
301.477
301.447
301.418
301.391
301.365
301.337
301.309
301.283
301.257
301.232
301.207
301.183
301.158
301.134
301.111
301.088
301.066
301.045
301.023
301.002
300.98
300.959
300.939
300.92
300.901
300.882
300.864
300.845
300.827
300.81
300.792
300.775
300.759
300.742
300.726
300.71
300.695
300.68
300.665
300.651
300.637
300.623
300.609
300.596
300.582
300.569
300.557
300.545
300.532
300.52
300.508
300.497
300.486
300.475
300.464
300.453
300.443
300.433
300.423
300.413
300.404
300.394
300.385
300.376
300.368
300.359
300.351
300.343
300.334
300.327
300.319
300.312
300.304
300.297
300.29
300.283
300.277
300.27
300.263
300.257
300.251
300.245
300.239
300.233
300.228
300.222
300.216
300.211
300.206
300.201
300.196
300.191
300.186
300.181
300.177
300.172
300.168
300.164
300.16
300.155
300.152
300.148
300.144
300.14
300.137
300.133
300.13
300.127
300.123
300.12
300.117
300.114
300.111
300.108
300.105
300.102
300.1
300.097
300.095
300.092
300.09
300.087
300.085
300.083
300.081
300.078
300.076
300.074
300.072
300.07
300.068
300.067
300.065
300.063
300.061
300.059
300.058
300.056
300.055
300.053
300.052
300.05
300.049
300.048
300.046
300.045
300.044
300.043
300.041
300.04
300.039
300.038
300.037
300.036
300.035
300.034
300.033
300.032
300.031
300.03
300.029
300.028
300.027
300.027
300.026
300.025
300.024
300.024
300.023
300.022
300.022
300.021
300.02
300.02
300.019
300.019
300.018
300.018
300.017
300.016
300.016
300.015
300.015
300.015
300.014
300.014
300.013
300.013
300.012
300.012
300.012
300.011
300.011
300.011
300.01
300.01
300.01
300.009
300.009
300.009
300.009
300.008
300.008
300.008
300.008
300.007
300.007
300.007
300.007
300.006
300.006
300.006
300.006
300.006
300.005
300.005
300.005
300.005
300.005
300.005
300.004
300.004
300.004
300.004
300.004
300.004
300.004
300.004
300.003
300.003
300.003
300.003
300.003
300.003
300.003
300.003
300.003
300.003
300.002
300.002
300.002
300.002
300.002
300.002
300.002
300.002
300.002
300.002
300.002
300.002
300.002
300.002
300.002
300.002
300.002
300.001
300.001
300.001
300.001
300.001
300.001
300.001
300.001
300.001
300.001
300.001
300.001
300.001
300.001
300.001
300.001
300.001
300.001
300.001
300.001
300.001
300.001
300.001
300.001
300.001
300.001
300.001
300.001
300.001
300.001
300.001
300.001
300.001
309.93
309.794
309.656
309.512
309.374
309.237
309.102
308.969
308.841
308.716
308.588
308.464
308.339
308.211
308.087
307.964
307.845
307.729
307.613
307.495
307.379
307.265
307.154
307.049
306.943
306.837
306.734
306.63
306.528
306.426
306.323
306.225
306.128
306.031
305.934
305.842
305.753
305.663
305.573
305.482
305.393
305.305
305.219
305.137
305.054
304.972
304.891
304.812
304.732
304.652
304.571
304.496
304.422
304.347
304.275
304.205
304.134
304.064
303.996
303.929
303.862
303.797
303.732
303.667
303.605
303.541
303.478
303.418
303.36
303.302
303.245
303.19
303.132
303.077
303.023
302.968
302.914
302.863
302.812
302.762
302.712
302.662
302.615
302.568
302.521
302.474
302.429
302.383
302.338
302.294
302.253
302.212
302.17
302.129
302.09
302.051
302.012
301.975
301.938
301.901
301.865
301.829
301.795
301.76
301.727
301.693
301.661
301.629
301.597
301.565
301.535
301.506
301.477
301.447
301.418
301.391
301.364
301.337
301.31
301.283
301.257
301.232
301.207
301.182
301.157
301.134
301.111
301.088
301.066
301.044
301.023
301.001
300.98
300.96
300.94
300.92
300.901
300.882
300.863
300.845
300.827
300.81
300.793
300.775
300.759
300.742
300.726
300.71
300.695
300.68
300.665
300.651
300.636
300.622
300.609
300.595
300.583
300.57
300.557
300.545
300.532
300.52
300.508
300.497
300.486
300.475
300.464
300.453
300.443
300.433
300.423
300.414
300.404
300.394
300.385
300.377
300.368
300.359
300.351
300.343
300.334
300.327
300.319
300.312
300.304
300.297
300.29
300.283
300.277
300.27
300.263
300.257
300.251
300.245
300.239
300.233
300.228
300.222
300.216
300.211
300.206
300.201
300.196
300.191
300.186
300.181
300.177
300.172
300.168
300.164
300.16
300.156
300.152
300.148
300.144
300.14
300.137
300.133
300.13
300.127
300.123
300.12
300.117
300.114
300.111
300.108
300.105
300.102
300.1
300.097
300.095
300.092
300.09
300.087
300.085
300.083
300.081
300.078
300.076
300.074
300.072
300.07
300.068
300.067
300.065
300.063
300.061
300.059
300.058
300.056
300.055
300.053
300.052
300.05
300.049
300.048
300.046
300.045
300.044
300.043
300.041
300.04
300.039
300.038
300.037
300.036
300.035
300.034
300.033
300.032
300.031
300.03
300.029
300.028
300.027
300.027
300.026
300.025
300.024
300.024
300.023
300.022
300.022
300.021
300.02
300.02
300.019
300.019
300.018
300.018
300.017
300.016
300.016
300.015
300.015
300.015
300.014
300.014
300.013
300.013
300.012
300.012
300.012
300.011
300.011
300.011
300.01
300.01
300.01
300.009
300.009
300.009
300.009
300.008
300.008
300.008
300.008
300.007
300.007
300.007
300.007
300.006
300.006
300.006
300.006
300.006
300.005
300.005
300.005
300.005
300.005
300.005
300.004
300.004
300.004
300.004
300.004
300.004
300.004
300.004
300.003
300.003
300.003
300.003
300.003
300.003
300.003
300.003
300.003
300.003
300.002
300.002
300.002
300.002
300.002
300.002
300.002
300.002
300.002
300.002
300.002
300.002
300.002
300.002
300.002
300.002
300.002
300.001
300.001
300.001
300.001
300.001
300.001
300.001
300.001
300.001
300.001
300.001
300.001
300.001
300.001
300.001
300.001
300.001
300.001
300.001
300.001
300.001
300.001
300.001
300.001
300.001
300.001
300.001
300.001
300.001
300.001
300.001
300.001
300.001
309.931
309.794
309.656
309.515
309.377
309.238
309.1
308.968
308.839
308.713
308.588
308.464
308.337
308.208
308.085
307.965
307.847
307.729
307.613
307.498
307.38
307.265
307.157
307.051
306.945
306.837
306.732
306.629
306.527
306.425
306.323
306.224
306.127
306.031
305.937
305.845
305.752
305.661
305.571
305.483
305.394
305.305
305.22
305.137
305.053
304.97
304.891
304.811
304.732
304.653
304.573
304.496
304.422
304.347
304.275
304.205
304.134
304.065
303.997
303.929
303.863
303.798
303.732
303.665
303.603
303.542
303.479
303.417
303.359
303.302
303.246
303.189
303.131
303.076
303.022
302.967
302.915
302.863
302.812
302.762
302.712
302.663
302.616
302.568
302.52
302.474
302.429
302.383
302.339
302.295
302.253
302.212
302.17
302.129
302.089
302.052
302.014
301.974
301.937
301.901
301.865
301.829
301.794
301.76
301.727
301.694
301.661
301.629
301.597
301.565
301.535
301.506
301.477
301.447
301.419
301.391
301.364
301.337
301.31
301.283
301.257
301.232
301.207
301.182
301.157
301.134
301.111
301.088
301.066
301.044
301.023
301.002
300.98
300.96
300.939
300.92
300.9
300.881
300.863
300.845
300.828
300.81
300.793
300.776
300.759
300.742
300.726
300.71
300.695
300.681
300.665
300.651
300.636
300.622
300.608
300.595
300.583
300.57
300.557
300.545
300.532
300.52
300.508
300.497
300.486
300.475
300.464
300.453
300.443
300.433
300.423
300.413
300.404
300.394
300.385
300.377
300.368
300.359
300.351
300.343
300.334
300.327
300.319
300.312
300.304
300.297
300.29
300.283
300.276
300.27
300.264
300.257
300.251
300.245
300.239
300.233
300.228
300.222
300.216
300.211
300.206
300.201
300.196
300.191
300.186
300.181
300.177
300.172
300.168
300.164
300.16
300.156
300.152
300.148
300.144
300.141
300.137
300.133
300.13
300.127
300.123
300.12
300.117
300.114
300.111
300.108
300.105
300.102
300.1
300.097
300.095
300.092
300.09
300.087
300.085
300.083
300.081
300.078
300.076
300.074
300.072
300.07
300.068
300.067
300.065
300.063
300.061
300.06
300.058
300.056
300.055
300.053
300.052
300.05
300.049
300.048
300.046
300.045
300.044
300.042
300.041
300.04
300.039
300.038
300.037
300.036
300.035
300.034
300.033
300.032
300.031
300.03
300.029
300.028
300.027
300.027
300.026
300.025
300.024
300.024
300.023
300.022
300.022
300.021
300.02
300.02
300.019
300.019
300.018
300.018
300.017
300.016
300.016
300.015
300.015
300.015
300.014
300.014
300.013
300.013
300.012
300.012
300.012
300.011
300.011
300.011
300.01
300.01
300.01
300.009
300.009
300.009
300.009
300.008
300.008
300.008
300.008
300.007
300.007
300.007
300.007
300.006
300.006
300.006
300.006
300.006
300.005
300.005
300.005
300.005
300.005
300.005
300.004
300.004
300.004
300.004
300.004
300.004
300.004
300.004
300.003
300.003
300.003
300.003
300.003
300.003
300.003
300.003
300.003
300.003
300.002
300.002
300.002
300.002
300.002
300.002
300.002
300.002
300.002
300.002
300.002
300.002
300.002
300.002
300.002
300.002
300.002
300.001
300.001
300.001
300.001
300.001
300.001
300.001
300.001
300.001
300.001
300.001
300.001
300.001
300.001
300.001
300.001
300.001
300.001
300.001
300.001
300.001
300.001
300.001
300.001
300.001
300.001
300.001
300.001
300.001
300.001
300.001
300.001
300.001
309.931
309.792
309.655
309.516
309.377
309.24
309.104
308.97
308.838
308.711
308.585
308.461
308.336
308.208
308.085
307.967
307.848
307.727
307.61
307.497
307.383
307.269
307.159
307.051
306.944
306.838
306.731
306.627
306.526
306.424
306.322
306.224
306.128
306.031
305.935
305.843
305.752
305.663
305.573
305.483
305.394
305.307
305.221
305.137
305.053
304.97
304.89
304.81
304.73
304.651
304.574
304.498
304.422
304.348
304.276
304.205
304.135
304.066
303.999
303.93
303.862
303.797
303.731
303.666
303.603
303.541
303.478
303.417
303.358
303.302
303.246
303.187
303.13
303.075
303.021
302.968
302.914
302.863
302.813
302.762
302.712
302.663
302.615
302.567
302.52
302.474
302.429
302.383
302.338
302.295
302.253
302.212
302.171
302.13
302.09
302.051
302.013
301.975
301.937
301.9
301.864
301.829
301.794
301.76
301.727
301.694
301.661
301.63
301.597
301.566
301.535
301.506
301.477
301.448
301.419
301.392
301.364
301.336
301.309
301.283
301.257
301.232
301.207
301.182
301.157
301.134
301.112
301.089
301.066
301.043
301.023
301.002
300.981
300.959
300.939
300.92
300.9
300.881
300.863
300.846
300.827
300.81
300.793
300.776
300.758
300.742
300.726
300.711
300.695
300.68
300.665
300.651
300.637
300.622
300.608
300.595
300.583
300.57
300.557
300.545
300.532
300.52
300.508
300.497
300.485
300.475
300.464
300.454
300.443
300.433
300.423
300.413
300.404
300.394
300.385
300.377
300.368
300.359
300.351
300.343
300.335
300.327
300.319
300.311
300.304
300.297
300.29
300.283
300.276
300.27
300.264
300.257
300.251
300.245
300.239
300.233
300.228
300.222
300.216
300.211
300.206
300.201
300.196
300.191
300.186
300.181
300.177
300.172
300.168
300.164
300.16
300.156
300.152
300.148
300.144
300.141
300.137
300.133
300.13
300.126
300.123
300.12
300.117
300.114
300.111
300.108
300.105
300.102
300.1
300.097
300.095
300.092
300.09
300.087
300.085
300.083
300.081
300.078
300.076
300.074
300.072
300.07
300.068
300.067
300.065
300.063
300.061
300.06
300.058
300.056
300.055
300.053
300.052
300.05
300.049
300.048
300.046
300.045
300.044
300.042
300.041
300.04
300.039
300.038
300.037
300.036
300.035
300.034
300.033
300.032
300.031
300.03
300.029
300.028
300.027
300.027
300.026
300.025
300.024
300.024
300.023
300.022
300.022
300.021
300.02
300.02
300.019
300.019
300.018
300.018
300.017
300.016
300.016
300.015
300.015
300.015
300.014
300.014
300.013
300.013
300.012
300.012
300.012
300.011
300.011
300.011
300.01
300.01
300.01
300.009
300.009
300.009
300.009
300.008
300.008
300.008
300.008
300.007
300.007
300.007
300.007
300.006
300.006
300.006
300.006
300.006
300.005
300.005
300.005
300.005
300.005
300.005
300.004
300.004
300.004
300.004
300.004
300.004
300.004
300.004
300.003
300.003
300.003
300.003
300.003
300.003
300.003
300.003
300.003
300.003
300.002
300.002
300.002
300.002
300.002
300.002
300.002
300.002
300.002
300.002
300.002
300.002
300.002
300.002
300.002
300.002
300.002
300.001
300.001
300.001
300.001
300.001
300.001
300.001
300.001
300.001
300.001
300.001
300.001
300.001
300.001
300.001
300.001
300.001
300.001
300.001
300.001
300.001
300.001
300.001
300.001
300.001
300.001
300.001
300.001
300.001
300.001
300.001
300.001
300.001
309.93
309.792
309.654
309.514
309.377
309.24
309.103
308.971
308.84
308.714
308.586
308.458
308.332
308.206
308.085
307.967
307.846
307.726
307.611
307.498
307.384
307.271
307.16
307.05
306.943
306.837
306.73
306.627
306.526
306.423
306.323
306.224
306.128
306.031
305.935
305.844
305.753
305.665
305.575
305.482
305.392
305.306
305.222
305.137
305.053
304.97
304.889
304.809
304.73
304.65
304.573
304.5
304.424
304.348
304.276
304.206
304.136
304.067
304
303.93
303.862
303.797
303.731
303.666
303.602
303.539
303.477
303.416
303.357
303.301
303.245
303.187
303.13
303.075
303.021
302.966
302.914
302.863
302.814
302.763
302.712
302.663
302.615
302.567
302.52
302.474
302.429
302.383
302.338
302.295
302.253
302.212
302.171
302.131
302.091
302.051
302.013
301.975
301.937
301.9
301.864
301.829
301.794
301.76
301.727
301.694
301.661
301.629
301.597
301.567
301.537
301.506
301.477
301.447
301.419
301.391
301.363
301.336
301.309
301.283
301.257
301.232
301.207
301.182
301.158
301.134
301.111
301.089
301.066
301.044
301.023
301.002
300.98
300.959
300.939
300.919
300.9
300.881
300.864
300.846
300.827
300.81
300.793
300.776
300.759
300.743
300.727
300.711
300.696
300.68
300.665
300.651
300.637
300.622
300.608
300.595
300.582
300.569
300.557
300.545
300.532
300.52
300.508
300.497
300.485
300.475
300.464
300.454
300.443
300.433
300.423
300.413
300.404
300.394
300.385
300.377
300.368
300.359
300.351
300.343
300.335
300.327
300.319
300.311
300.304
300.297
300.29
300.283
300.277
300.27
300.264
300.257
300.251
300.245
300.239
300.233
300.227
300.222
300.216
300.211
300.206
300.201
300.196
300.191
300.186
300.181
300.177
300.172
300.168
300.164
300.16
300.156
300.152
300.148
300.144
300.14
300.137
300.133
300.13
300.127
300.123
300.12
300.117
300.114
300.111
300.108
300.105
300.102
300.1
300.097
300.095
300.092
300.09
300.087
300.085
300.083
300.081
300.078
300.076
300.074
300.072
300.07
300.068
300.067
300.065
300.063
300.061
300.06
300.058
300.056
300.055
300.053
300.052
300.05
300.049
300.048
300.046
300.045
300.044
300.042
300.041
300.04
300.039
300.038
300.037
300.036
300.035
300.034
300.033
300.032
300.031
300.03
300.029
300.028
300.027
300.027
300.026
300.025
300.024
300.024
300.023
300.022
300.022
300.021
300.02
300.02
300.019
300.019
300.018
300.018
300.017
300.016
300.016
300.015
300.015
300.015
300.014
300.014
300.013
300.013
300.012
300.012
300.012
300.011
300.011
300.011
300.01
300.01
300.01
300.009
300.009
300.009
300.009
300.008
300.008
300.008
300.008
300.007
300.007
300.007
300.007
300.006
300.006
300.006
300.006
300.006
300.005
300.005
300.005
300.005
300.005
300.005
300.004
300.004
300.004
300.004
300.004
300.004
300.004
300.004
300.003
300.003
300.003
300.003
300.003
300.003
300.003
300.003
300.003
300.003
300.002
300.002
300.002
300.002
300.002
300.002
300.002
300.002
300.002
300.002
300.002
300.002
300.002
300.002
300.002
300.002
300.002
300.001
300.001
300.001
300.001
300.001
300.001
300.001
300.001
300.001
300.001
300.001
300.001
300.001
300.001
300.001
300.001
300.001
300.001
300.001
300.001
300.001
300.001
300.001
300.001
300.001
300.001
300.001
300.001
300.001
300.001
300.001
300.001
300.001
309.928
309.788
309.652
309.516
309.377
309.239
309.106
308.972
308.842
308.714
308.587
308.458
308.332
308.209
308.085
307.964
307.847
307.727
307.612
307.5
307.386
307.27
307.156
307.05
306.942
306.834
306.73
306.628
306.524
306.423
306.325
306.224
306.126
306.031
305.938
305.846
305.753
305.663
305.576
305.483
305.392
305.307
305.222
305.136
305.052
304.971
304.889
304.809
304.729
304.649
304.573
304.5
304.424
304.349
304.277
304.206
304.136
304.068
304
303.931
303.863
303.797
303.731
303.666
303.601
303.537
303.476
303.417
303.358
303.301
303.245
303.188
303.131
303.075
303.02
302.966
302.914
302.863
302.813
302.763
302.713
302.664
302.615
302.567
302.52
302.474
302.429
302.383
302.338
302.296
302.254
302.212
302.171
302.131
302.092
302.052
302.014
301.975
301.937
301.9
301.864
301.828
301.794
301.76
301.727
301.693
301.661
301.629
301.598
301.567