/*--------------------------------*- C++ -*----------------------------------*\
  =========                 |
  \\      /  F ield         | OpenFOAM: The Open Source CFD Toolbox
   \\    /   O peration     | Website:  https://openfoam.org
    \\  /    A nd           | Version:  7
     \\/     M anipulation  |
\*---------------------------------------------------------------------------*/
FoamFile
{
    version     2.0;
    format      ascii;
    class       surfaceScalarField;
    location    "6000";
    object      alphaPhi;
}
// * * * * * * * * * * * * * * * * * * * * * * * * * * * * * * * * * * * * * //

dimensions      [0 3 -1 0 0 0 0];

internalField   nonuniform List<scalar> 
319200
(
3.82618e-19
3.39629e-18
5.60477e-18
-1.15954e-18
8.49965e-18
-2.34343e-18
1.84734e-17
-3.19986e-18
2.20159e-17
-5.97678e-18
2.62047e-17
-3.28016e-18
3.24576e-17
-3.84674e-18
3.98592e-17
-1.46686e-18
4.28591e-17
-9.2451e-18
4.86538e-17
-4.95448e-18
5.26507e-17
-7.20319e-18
5.60379e-17
-7.27691e-18
5.57835e-17
-1.92984e-18
3.02667e-17
4.36358e-18
4.9661e-18
1.28303e-18
2.0264e-17
-2.04105e-18
4.65172e-17
5.74042e-19
5.67078e-17
-1.20975e-17
5.90974e-17
-5.20243e-18
6.20273e-17
-4.56943e-18
9.20961e-17
-6.9569e-18
8.94447e-17
-1.34111e-17
4.19911e-17
-1.25175e-17
5.89957e-17
-9.99263e-18
1.336e-16
-7.45854e-18
1.11212e-16
2.45076e-18
5.88496e-17
7.86106e-18
1.85217e-17
-4.51099e-19
5.82073e-18
-1.93091e-18
8.15679e-18
-1.80927e-18
1.6284e-17
-8.4046e-18
2.66835e-17
-1.18019e-17
3.16669e-17
-6.61693e-18
7.32804e-17
-1.80442e-18
1.3159e-16
-2.58656e-19
1.14775e-16
-8.20914e-18
1.2604e-16
-6.23261e-18
4.95753e-17
-9.63227e-19
1.55469e-17
6.95622e-18
4.71526e-19
-2.36797e-18
5.70939e-17
-8.54355e-18
1.13984e-16
-9.96879e-18
9.84184e-17
-1.09628e-17
4.68758e-17
-2.23532e-18
-1.10259e-17
2.57205e-19
-3.3299e-17
1.46471e-18
1.60982e-17
-4.70637e-18
2.50773e-17
-2.17042e-18
3.36442e-17
-8.28431e-19
1.01389e-16
-8.10382e-18
1.05617e-16
-3.38155e-17
5.67287e-17
-1.06199e-17
1.4605e-17
2.19157e-18
6.23804e-18
-2.63465e-18
-2.09931e-19
-5.92267e-18
-1.0363e-17
9.13782e-20
2.36362e-17
2.2586e-18
1.72982e-17
-1.89311e-19
1.49348e-17
-5.18817e-18
-9.75823e-18
-7.52715e-18
-3.19138e-17
-4.87572e-18
6.32039e-18
8.50302e-20
1.89617e-17
-3.0907e-18
9.81562e-18
-2.55295e-18
3.30772e-18
-4.62692e-18
-1.43696e-17
-6.77112e-18
-4.77998e-18
-1.34123e-18
-7.85337e-18
5.06251e-18
2.11818e-17
3.58958e-18
4.97831e-18
-1.37688e-17
2.10291e-17
-8.03778e-18
1.58229e-18
-1.09071e-17
1.55685e-17
-6.31406e-18
-3.45201e-18
-6.80182e-18
-5.93807e-18
-4.33361e-18
-3.35766e-18
-3.99844e-18
3.85216e-19
-5.02258e-18
-5.45499e-18
-4.50029e-18
-6.13877e-18
-4.27755e-18
-5.2432e-18
-1.10011e-18
-5.23626e-19
-3.54473e-18
-5.79881e-18
-4.78468e-18
-9.51553e-18
-5.19245e-18
-9.11017e-18
-5.8053e-18
-1.11329e-17
-2.69462e-18
-1.20316e-17
-3.68249e-18
-1.26992e-17
-3.89431e-18
-1.23385e-17
-3.24121e-18
-3.63655e-17
-3.74381e-18
-2.43062e-17
-4.54154e-18
-3.29388e-17
-1.14751e-18
-2.3418e-17
-9.50217e-19
-3.36382e-17
-2.68891e-18
-8.02529e-18
-1.23972e-18
-3.46779e-17
-6.84654e-18
-3.16109e-17
-7.36148e-18
-2.84565e-17
-8.01801e-18
-1.8009e-17
-5.38704e-18
-3.01884e-17
-5.27918e-18
-1.05207e-17
-6.30199e-18
-3.58665e-17
-4.79545e-18
-7.29356e-17
-3.94839e-19
-8.47344e-18
-1.1428e-17
-3.77494e-17
-4.62076e-18
-1.17898e-16
5.00806e-18
-3.9807e-17
-1.3717e-18
-1.26232e-16
-7.28511e-18
-5.17302e-17
2.52942e-18
-1.77243e-16
1.90078e-18
-2.21945e-17
8.02528e-19
-6.13352e-17
-8.76708e-19
-6.41284e-17
1.33421e-18
-6.79603e-17
-6.02613e-18
-6.08481e-17
-1.48923e-17
-3.37556e-17
-1.10486e-17
-5.44407e-17
-7.4537e-18
-5.46247e-17
-3.83e-18
-7.54971e-17
1.91173e-18
-5.3573e-17
-1.56183e-17
-3.94651e-17
-1.67203e-17
-5.40498e-17
6.61154e-18
-2.2698e-17
2.11799e-17
-2.71866e-16
1.73811e-17
-2.78043e-17
1.27493e-17
-3.50056e-16
9.05049e-18
-3.12861e-17
-1.04821e-17
-1.38119e-16
-3.64238e-17
-9.17911e-17
-2.71413e-17
-1.29415e-16
-6.51023e-18
-1.22472e-16
-5.02586e-18
-1.43911e-16
-1.98836e-17
-1.25948e-16
-2.5397e-17
-1.15642e-16
6.193e-18
-1.23905e-16
1.19823e-17
-1.41059e-16
-1.84833e-17
-8.6197e-17
-5.26671e-17
-9.76953e-17
-9.00411e-18
-1.48916e-16
3.40658e-17
-1.62116e-16
-3.734e-18
-1.78234e-16
-1.66122e-18
-3.95105e-16
-1.09782e-17
-1.71021e-16
-2.29277e-17
-2.32899e-16
-1.97559e-18
-5.12305e-17
3.2723e-17
-3.63222e-16
2.09015e-17
-1.29325e-17
-4.61225e-18
-4.51348e-16
-1.80659e-17
-6.85012e-17
-1.76847e-17
-1.17161e-16
-3.93129e-17
-8.07831e-17
-6.04977e-17
-7.35987e-17
-3.25187e-18
-1.26049e-16
3.44022e-17
1.08046e-17
-4.3785e-19
-1.16231e-16
-1.44062e-17
-7.66381e-17
6.127e-18
-2.73842e-16
1.45875e-17
-7.10684e-17
4.91413e-17
-1.99449e-16
1.22007e-17
-1.12138e-16
-1.84432e-17
-1.43155e-16
-3.60273e-17
-1.25253e-16
-3.02925e-17
-1.59537e-16
2.11218e-18
-2.2257e-16
3.30159e-17
-2.04528e-16
2.25266e-18
-1.65803e-16
-2.64275e-17
-1.34031e-16
-3.73805e-17
-1.08964e-16
-3.06052e-17
-1.31261e-16
-2.54857e-18
-1.68182e-16
2.19356e-17
-2.28877e-16
3.60193e-17
-8.13721e-18
-2.14805e-17
-3.13466e-16
-1.26359e-17
-4.27663e-17
-4.30242e-17
-1.78562e-16
-4.77492e-17
-1.82446e-16
1.10734e-17
-1.60522e-16
-3.4664e-17
-2.78111e-16
4.01502e-17
-3.99446e-16
5.72674e-17
2.91969e-16
2.81283e-17
-4.01392e-16
-5.23286e-17
-3.59595e-16
-2.89299e-17
-4.79487e-16
-6.73833e-17
-2.71622e-16
-1.01389e-16
-1.88498e-16
-7.50946e-17
-1.35205e-16
-3.41026e-17
-1.17931e-16
2.50399e-17
-1.0631e-16
3.24954e-17
-5.37928e-17
2.06759e-17
-4.94814e-17
3.21403e-17
-1.29931e-16
3.7935e-17
-2.88373e-16
7.24384e-17
-4.19173e-16
6.5682e-17
-3.2204e-16
-6.90673e-17
1.48911e-16
-6.90975e-17
-3.97645e-17
2.8366e-17
-2.3272e-17
2.90907e-17
-9.9878e-17
6.09472e-17
-1.6063e-15
8.89967e-17
-4.14335e-18
7.36029e-17
-1.89756e-15
-2.11644e-17
-2.02865e-16
-1.93545e-17
-5.14914e-16
-1.23539e-17
-4.75377e-16
-2.8198e-17
-4.28484e-16
-7.7016e-17
-6.90648e-16
3.76583e-18
-6.16817e-16
9.36561e-17
-3.91465e-16
9.3232e-17
-9.16197e-16
4.36903e-17
-7.07203e-16
1.90133e-17
-7.66924e-16
4.35837e-17
-7.96101e-16
3.08781e-17
-6.9751e-16
-8.87867e-17
-6.58743e-16
-1.11265e-17
-7.13988e-16
9.14163e-17
-6.48259e-16
-2.54802e-17
-5.72213e-16
-4.46088e-17
-6.36709e-16
1.14132e-16
7.64563e-18
1.00097e-16
-2.49645e-15
2.9147e-17
-6.10495e-16
3.71352e-17
-2.36902e-15
-1.24583e-16
-1.16035e-15
-2.39492e-16
-1.00332e-15
-1.85106e-16
-9.03751e-16
-7.65511e-17
-6.67293e-16
-5.8783e-17
-1.27055e-15
-4.06569e-17
-3.18357e-16
4.22388e-18
-1.12447e-15
-2.21342e-17
-1.24108e-17
-9.2945e-18
-3.67636e-16
-2.55901e-17
-3.12745e-16
-3.33831e-18
-2.24524e-16
-6.69593e-17
1.21688e-17
2.96677e-18
-7.54058e-16
1.23528e-16
-2.02681e-16
6.48158e-17
-8.72117e-16
-8.44903e-18
-2.55601e-16
-4.77966e-17
-3.72644e-16
-1.41102e-17
-7.91212e-16
-4.17181e-18
-4.24462e-16
-1.25984e-17
-5.04649e-16
-5.81798e-17
-3.53749e-16
-9.16153e-17
-1.88675e-16
-2.93773e-17
-7.01275e-17
7.5389e-17
8.98298e-17
6.77347e-17
1.82077e-16
3.90176e-17
6.53708e-17
6.8391e-17
1.2888e-16
-5.66839e-16
6.43652e-16
1.9205e-16
-2.9155e-15
-1.9708e-16
4.08401e-16
8.15576e-17
-2.58769e-16
-3.41e-16
-1.69476e-16
-3.6834e-17
-2.7684e-16
1.52057e-16
-3.81104e-16
1.06096e-16
-4.82191e-16
8.6889e-17
-4.64257e-16
-2.42307e-17
-6.54763e-16
1.52054e-16
-2.6283e-15
5.19979e-17
-2.44163e-16
3.24571e-16
-3.04217e-15
-3.1186e-16
-5.45746e-16
-2.79566e-16
-1.00881e-15
-2.27961e-16
-8.75535e-16
-1.16315e-16
-8.82293e-16
4.24907e-17
-9.06644e-16
1.17605e-16
-8.36007e-16
2.0898e-17
-8.52075e-16
5.4708e-18
-3.5669e-16
4.84724e-17
-1.17217e-15
-1.23107e-17
-2.7745e-16
-1.57458e-16
-9.51619e-16
-3.54678e-17
-2.62186e-16
1.18598e-16
-1.04703e-15
1.05284e-17
-9.8709e-16
-1.04895e-17
-8.43374e-16
-1.05473e-17
-2.01918e-15
9.77256e-17
-5.91343e-16
1.1337e-16
-1.83959e-15
-2.25147e-18
-6.8387e-16
-1.31284e-17
-6.02202e-16
-1.46057e-17
-4.8118e-16
1.09789e-17
-4.79497e-16
-2.78654e-17
-2.7134e-16
-1.00861e-16
-2.14707e-16
4.95465e-17
-2.28574e-15
1.43596e-16
-8.47092e-16
2.87263e-16
-1.46615e-15
9.46241e-17
-1.44714e-15
-1.01267e-16
-1.05954e-15
-4.0469e-16
-7.18823e-16
-3.57274e-16
-4.70796e-16
-1.31572e-16
-4.17648e-16
8.4907e-17
-6.74152e-16
1.54412e-16
-6.47321e-16
1.99742e-16
-4.74107e-16
5.8635e-17
-9.17733e-17
-6.4278e-17
1.19008e-16
1.23925e-17
2.53264e-16
1.05786e-17
-6.46073e-16
3.47606e-17
2.9241e-16
1.39337e-16
-2.60993e-16
7.32485e-16
2.42176e-15
6.91075e-16
-1.82682e-15
-5.1242e-16
2.52321e-15
-6.80345e-17
-4.71049e-16
-8.58287e-17
-1.97167e-16
1.33238e-17
-4.07625e-16
1.12718e-16
-7.59471e-16
2.21598e-16
-1.12005e-15
2.42483e-16
-1.17295e-15
-1.63058e-17
-1.15566e-15
-4.35391e-17
-1.16369e-15
7.82656e-18
-1.17653e-15
-1.40061e-17
7.13722e-16
1.46675e-16
-2.95364e-15
1.88108e-16
1.26082e-16
-4.52685e-17
-1.84105e-15
-1.6945e-16
-1.64447e-15
-4.28805e-17
-1.40686e-15
-7.25761e-18
-1.30018e-15
8.37591e-17
-1.308e-15
1.11601e-16
-2.64928e-16
1.05668e-16
-2.61327e-15
-2.03982e-16
1.1189e-15
2.29109e-16
-3.62567e-15
-3.02447e-16
5.74416e-16
-6.85277e-16
1.08414e-15
-2.70142e-16
8.16173e-16
1.6231e-16
8.73597e-16
-1.57893e-16
6.47639e-16
-9.44824e-18
2.4119e-16
1.69782e-16
1.9538e-17
-1.58883e-17
-3.69051e-16
1.55518e-16
-8.23529e-16
2.01684e-16
-1.18959e-15
1.15039e-16
-1.57526e-15
2.43082e-16
-1.8903e-15
2.42879e-16
-9.90766e-16
-1.65319e-16
-2.96511e-15
-3.39505e-16
-1.49343e-15
-1.72224e-16
-2.85933e-15
7.42005e-17
-2.86327e-15
1.80748e-16
-3.21543e-15
4.20442e-16
-2.95464e-15
3.21432e-17
-3.11584e-15
-1.37226e-16
-2.24894e-15
-1.07445e-16
-5.04864e-15
-5.9205e-16
7.23813e-16
7.18327e-17
-4.73302e-15
-1.92812e-16
-1.83972e-15
-1.48316e-16
-1.6994e-15
-1.62578e-16
-1.46482e-15
-2.3693e-16
-2.12648e-15
-8.11986e-17
-1.4357e-15
1.13838e-16
-2.14471e-15
-9.47674e-17
-2.68588e-15
-7.1576e-17
-9.46474e-16
2.80058e-18
-2.71821e-15
3.93024e-17
-1.37705e-15
1.31848e-18
-1.35992e-15
-8.73008e-18
-1.50986e-15
6.97017e-17
-1.41239e-15
1.20517e-16
-3.04578e-15
6.733e-17
-8.77971e-16
-2.03583e-16
-2.76757e-15
-1.89354e-16
5.13433e-16
2.19337e-16
-3.63151e-15
1.03019e-17
7.96055e-16
-3.07713e-16
-1.09217e-15
-3.30452e-16
4.7714e-16
1.68528e-16
-1.11689e-15
3.72733e-16
-4.64221e-16
5.57723e-16
-2.02432e-15
1.46546e-16
-1.61176e-15
-1.53925e-16
-1.74537e-15
-2.57646e-16
-1.26967e-15
-5.32682e-16
-1.14676e-15
-1.64975e-16
-1.0402e-15
-1.29651e-16
-9.6376e-16
-1.03888e-16
-9.68029e-16
-2.09211e-17
-6.17571e-16
-5.61861e-17
-7.91302e-16
3.03213e-16
-9.73186e-16
3.85866e-16
-9.65842e-16
1.43483e-16
-1.01307e-15
3.62161e-17
-1.04686e-15
2.27945e-17
-8.59033e-16
-1.98977e-16
-5.28156e-16
-2.68351e-16
-4.57695e-16
-1.83458e-17
-5.27863e-16
5.03421e-17
-6.598e-16
-5.60088e-17
-9.18876e-16
6.88731e-17
-1.10434e-15
1.02834e-16
-1.69654e-15
2.15558e-16
-1.90774e-15
3.11276e-17
-5.12781e-15
1.31403e-17
-1.25261e-14
2.42312e-16
-1.52684e-14
1.44668e-15
-7.06116e-18
-4.96062e-20
-2.71297e-18
-4.73471e-19
-2.899e-18
3.07452e-18
-3.77052e-19
7.3884e-18
-5.32511e-18
1.76004e-17
-5.38138e-18
2.45135e-17
-8.54282e-18
1.28312e-17
-5.90708e-18
2.11329e-17
-9.53125e-19
2.1455e-17
-9.10042e-18
2.56775e-17
5.97814e-19
2.9561e-17
-1.03816e-18
3.19843e-17
-3.47101e-18
2.72136e-17
-4.55429e-18
1.09587e-17
8.32114e-19
-1.0134e-17
1.00538e-18
1.81358e-17
-1.66439e-18
6.20512e-17
-1.09444e-17
3.23633e-17
-2.4724e-17
1.24512e-17
-5.04685e-18
1.5976e-18
-3.15571e-18
5.27996e-17
-4.19993e-18
3.02949e-17
-1.9745e-17
2.79397e-17
-9.61372e-18
2.36383e-17
-4.76301e-18
7.28582e-17
-7.51873e-18
3.40788e-17
-1.28409e-17
8.43639e-18
-6.58666e-18
-6.2517e-18
1.36898e-18
-1.14675e-17
1.23233e-18
-1.31777e-17
-6.73071e-18
2.38534e-18
1.20253e-18
4.27406e-18
-8.2758e-19
-3.95996e-18
-5.31693e-18
2.54236e-17
-8.26956e-18
7.64973e-17
-1.41151e-17
4.98669e-17
-1.66801e-17
4.14288e-17
-9.50551e-18
4.07341e-17
-5.45082e-18
-4.37441e-17
-9.16558e-18
1.77323e-17
-2.29071e-18
1.42325e-17
9.02148e-19
6.63107e-17
-3.46887e-18
6.81392e-17
-1.1785e-17
1.83891e-17
-6.36962e-18
2.29626e-18
-1.37298e-17
7.73966e-18
-1.55726e-17
-4.70119e-18
-2.35864e-18
6.64334e-18
-1.358e-18
1.2776e-17
7.13725e-19
3.6971e-17
1.6804e-18
4.55763e-17
-2.75129e-17
-1.11521e-17
-1.64112e-17
-1.32284e-19
-8.72892e-18
-2.33348e-19
-2.41265e-18
3.20234e-17
1.98718e-18
-1.99567e-17
1.92507e-19
-6.17379e-19
1.44221e-19
6.73418e-18
-3.9551e-18
-8.97776e-19
-1.08581e-17
-4.55012e-18
-1.81484e-17
-1.55704e-17
-8.40512e-18
-9.11358e-18
-5.21765e-18
2.43252e-18
-4.99369e-18
-5.60444e-18
-1.10888e-17
-1.60256e-17
-7.15942e-18
9.83366e-18
-1.08472e-17
-4.08293e-18
-1.70968e-17
-2.0351e-17
-1.54707e-17
-2.02548e-17
-1.24725e-17
-2.3922e-17
-4.36609e-18
-1.79806e-17
-5.2157e-18
-6.81863e-18
-1.74831e-18
-8.22268e-18
-9.46027e-18
-1.40858e-17
-1.08642e-17
-1.26584e-17
-8.55948e-18
-1.24948e-17
-4.43638e-18
-1.34972e-17
-4.27035e-18
-1.34865e-17
-3.90606e-18
-1.74858e-17
-1.58381e-17
-1.6e-17
-7.55169e-18
-1.57966e-17
-8.915e-18
-1.7063e-17
-8.09771e-18
-1.95313e-17
-9.70992e-18
-2.13288e-17
-1.10758e-17
-2.3244e-17
-8.99051e-18
-2.32754e-17
-1.1896e-17
-2.48877e-17
-8.82721e-18
-2.92766e-17
-7.09042e-18
-2.02123e-17
-5.29207e-18
-2.90991e-17
-7.50511e-18
-1.64034e-17
-5.40621e-18
-2.21008e-17
-4.9511e-18
-7.77498e-19
-1.01035e-17
-3.42376e-17
-1.21635e-17
-3.12993e-17
-1.4304e-17
-3.21131e-17
-1.15522e-17
-2.45276e-17
-1.02521e-17
-3.45103e-17
-6.4398e-18
-4.31703e-17
-6.48854e-18
-3.40518e-17
-8.48275e-18
-2.60889e-17
-9.86981e-18
-4.25355e-17
-1.07386e-17
-5.17007e-17
-1.56418e-18
-4.84945e-17
-6.95224e-18
-4.64529e-17
-1.2832e-17
-1.02359e-16
7.10814e-19
-2.23987e-17
-2.28903e-18
-7.69131e-17
-1.1817e-17
-2.78454e-17
-1.67703e-17
-6.82747e-17
-1.05132e-17
-5.58829e-17
-9.43116e-18
-4.26941e-17
-8.7925e-18
-4.21894e-17
-3.93997e-18
-4.35199e-17
-1.11038e-17
-4.90749e-17
-1.29248e-17
-4.16693e-17
-8.56424e-18
-5.80455e-17
-6.67059e-18
-5.58347e-17
1.23477e-19
-6.60697e-19
6.71431e-18
-9.57541e-17
2.26022e-18
-3.47092e-17
-2.00763e-17
-5.42631e-17
-2.47212e-17
-3.67485e-17
-5.20012e-18
-4.57786e-17
-2.86534e-18
-4.34026e-17
-3.71934e-18
-8.15725e-17
-8.82542e-18
-1.01797e-16
-1.51572e-17
-1.54991e-16
-7.91354e-18
-1.50674e-16
-8.9422e-18
-1.73849e-16
-2.3201e-17
-1.72505e-16
-1.95112e-17
-2.62252e-16
3.5489e-17
-2.76841e-16
2.34222e-17
-2.07629e-16
-3.83586e-17
-1.99556e-16
-2.88844e-17
-2.44151e-16
-4.50645e-18
-2.35651e-16
-4.05525e-17
-1.77865e-16
-4.16769e-17
-1.70965e-16
-8.41324e-18
-1.58426e-16
-1.1802e-17
-1.2763e-16
-3.81659e-17
-1.60782e-16
-1.82661e-17
-1.00362e-16
9.32853e-18
-1.55686e-16
-1.6804e-17
-1.08021e-16
-5.23087e-18
-1.08299e-16
4.74948e-18
-7.61949e-17
-6.92668e-18
-1.51406e-16
-1.58718e-17
-1.85256e-16
-1.50624e-17
-2.67372e-16
8.54764e-18
-2.70406e-16
-1.66423e-17
-2.02903e-16
-4.59291e-17
-2.18002e-16
-4.72881e-17
-6.35228e-17
-8.7828e-18
-3.47217e-16
4.47231e-17
-7.81489e-17
6.9336e-18
-2.73944e-16
6.50307e-18
-1.43865e-16
6.80768e-18
-1.4366e-16
1.31485e-17
-1.51559e-16
-4.71291e-18
-1.23848e-16
-2.29675e-17
-2.29157e-16
-3.47611e-17
-1.50622e-16
-2.68032e-17
-1.20688e-16
-9.71866e-18
-1.72186e-16
1.55381e-17
-2.26713e-16
-4.65758e-18
-1.16855e-16
-6.73311e-17
-6.11881e-17
-5.07872e-17
-3.89357e-17
-3.02747e-17
-1.94954e-17
-3.14505e-17
-7.01166e-17
-2.03233e-17
-1.24355e-16
5.02519e-17
-3.59632e-16
8.56507e-17
-3.64978e-16
4.12605e-17
-2.91182e-16
-8.26508e-17
-1.58643e-16
-9.02599e-17
-2.14301e-16
-2.38563e-17
-1.26651e-16
3.96469e-17
-2.81888e-16
2.0204e-17
-2.81545e-16
-1.26117e-18
-4.14962e-16
1.33318e-17
-3.64203e-16
-6.5499e-17
-3.1014e-16
-1.05238e-16
-2.72257e-16
-2.63461e-17
-2.33232e-16
9.83436e-18
-1.02271e-16
4.87158e-18
4.20237e-18
2.60681e-17
3.47225e-18
6.84844e-17
2.32547e-17
-3.16943e-17
-3.19329e-16
5.95389e-17
-4.55851e-16
4.67427e-17
-1.59646e-16
-8.21145e-17
1.66161e-17
-1.40423e-17
2.08619e-16
-6.10611e-17
3.14917e-16
-2.67691e-17
3.55841e-16
-2.99773e-17
2.10119e-16
-1.63006e-17
3.46363e-16
8.53866e-17
-1.04313e-15
1.63554e-16
5.14418e-16
5.32289e-17
1.19185e-16
1.77048e-17
1.81854e-17
1.21717e-17
-2.48934e-16
1.56298e-16
-5.37243e-16
1.51677e-16
-6.11038e-16
3.61707e-18
-2.89246e-16
-1.69487e-16
-6.36402e-16
-8.63692e-17
-1.09014e-16
-3.33226e-17
-6.39446e-16
8.53537e-17
-4.77227e-16
-2.1582e-17
-4.13678e-16
-8.08457e-17
-5.84244e-16
5.81307e-17
-6.7778e-16
6.66483e-17
-5.64406e-16
-1.17174e-17
-6.0772e-16
7.41942e-18
-6.34144e-16
3.03506e-17
-6.30965e-16
2.15995e-17
-5.69785e-16
1.18701e-17
-1.70949e-16
-1.0214e-16
-5.7483e-16
-1.12882e-16
-6.47898e-16
-4.12951e-17
-1.0137e-15
4.35483e-17
-1.23824e-15
4.10016e-17
-1.23851e-15
4.06677e-17
-1.59815e-15
-1.97737e-17
-7.77848e-16
-6.08097e-17
-1.44015e-15
-1.81089e-16
-2.74886e-16
-9.76137e-17
-1.37449e-15
-1.56563e-17
-2.82956e-16
6.87054e-17
-1.02008e-15
-2.54088e-18
-5.84246e-16
3.91526e-17
-1.14637e-15
-1.06596e-16
-1.9883e-16
-2.18027e-16
-3.06536e-16
-9.03914e-17
-9.49079e-16
1.09402e-16
-5.90063e-16
7.49569e-17
-1.0771e-15
-4.64931e-17
-5.43527e-16
-1.2675e-16
-5.93421e-16
-7.18316e-17
-5.36792e-16
-6.82873e-19
-4.8954e-16
3.03168e-17
-3.54277e-16
4.82752e-17
-1.38103e-16
4.74835e-17
-1.13219e-16
7.5094e-17
7.95347e-16
1.53482e-16
-2.62034e-16
-7.813e-18
3.48831e-15
-4.17434e-16
-6.37982e-16
1.1142e-16
2.51993e-15
3.50702e-16
-9.40102e-17
-8.1697e-17
-4.88048e-16
-4.57063e-17
-5.54091e-16
-9.89965e-17
-3.83533e-16
-1.28051e-16
-4.96729e-16
1.47392e-16
-5.66973e-16
1.22586e-16
-7.09906e-16
7.67793e-17
-7.30587e-16
1.84543e-16
4.58782e-16
-1.43861e-16
-2.26112e-15
-1.07751e-16
-3.39266e-16
-5.15113e-17
-1.05789e-15
-5.80456e-17
-1.2444e-15
-4.93532e-17
-1.28394e-15
-3.8879e-17
-1.05373e-15
-1.45224e-16
-7.71366e-16
-1.21888e-16
-8.3358e-16
1.06185e-16
-1.06959e-15
2.15811e-16
-1.80984e-15
3.0211e-17
-3.52244e-16
-1.04053e-16
-1.64806e-15
-3.20439e-17
-4.90255e-16
-1.09988e-16
-1.16182e-15
-8.02565e-17
-9.2453e-16
-3.42018e-17
-1.02707e-15
1.41568e-16
-1.4891e-15
6.52802e-17
1.42874e-17
9.80512e-17
-1.49069e-15
-7.9355e-18
-1.47087e-17
-2.93988e-17
-1.37807e-15
4.05853e-17
-3.16033e-16
3.68402e-17
-1.36376e-15
3.39469e-17
-2.37246e-15
1.40454e-16
-6.18131e-16
-4.38872e-17
-2.45058e-15
-1.87712e-16
-5.34325e-16
-1.26359e-16
-1.08783e-15
6.88444e-17
-1.19827e-15
9.33875e-17
-1.36456e-15
4.76263e-17
-1.36337e-15
-2.67622e-16
-1.28128e-15
-2.46531e-16
-1.1971e-15
3.3378e-17
-9.87994e-16
7.73606e-17
-5.52088e-16
2.25879e-16
-3.65365e-16
2.5618e-16
-1.56438e-16
3.05052e-16
1.23442e-16
4.99e-17
3.53402e-16
1.55198e-17
-1.26922e-15
9.54435e-17
6.14959e-16
1.95919e-16
-1.17376e-15
-2.8873e-16
1.1199e-15
1.35355e-16
-2.32562e-15
-3.59101e-16
1.25311e-15
-1.8672e-17
5.60465e-16
6.92429e-17
-1.96212e-17
1.94942e-16
-6.37067e-16
3.01047e-16
-8.45045e-16
7.27173e-17
-8.59977e-16
9.14961e-17
-9.12251e-16
2.34017e-16
-1.02386e-15
7.23155e-17
-1.16193e-15
9.40354e-17
-1.2826e-15
1.03558e-16
1.20429e-16
3.24317e-17
-2.93792e-15
-1.732e-16
4.74755e-16
-2.65488e-16
-1.08396e-15
3.86638e-18
-1.35029e-15
1.93741e-16
-1.378e-15
1.42151e-16
-1.24901e-15
1.79305e-17
-1.13309e-15
9.24541e-17
-1.00367e-16
1.11468e-16
-6.17683e-16
-6.0948e-16
-1.7852e-16
1.48395e-16
1.18492e-16
-1.42363e-16
-8.29303e-17
-2.54925e-17
-7.87498e-16
-8.40389e-17
-7.38437e-16
-4.23476e-16
-4.85952e-16
-1.91603e-16
-5.53181e-16
-2.14296e-16
-2.83987e-16
-3.57978e-16
-2.5261e-16
3.03675e-17
-6.68199e-16
1.00665e-16
-8.39864e-16
1.2496e-16
-8.35692e-16
3.44486e-17
-9.50273e-16
9.88536e-17
-1.14469e-15
3.3547e-16
-1.1986e-15
2.27126e-16
-1.37032e-15
-3.77656e-17
-1.69595e-15
2.77454e-17
-2.44741e-15
-2.46862e-17
-1.33896e-15
-2.51833e-16
-1.30661e-15
-1.30197e-16
-1.02027e-15
3.35722e-16
-9.78549e-16
-9.13662e-17
-5.81652e-16
-5.21673e-17
-2.90869e-15
-1.40905e-16
8.71965e-16
3.51083e-16
-4.2558e-15
-7.78378e-18
-1.01856e-15
-2.38176e-16
-1.73583e-15
-1.43756e-16
-1.82738e-15
-8.53239e-17
-2.40043e-15
4.00487e-17
-1.77305e-15
6.39576e-17
-2.1388e-15
-2.87546e-16
-1.19046e-15
-3.11768e-16
-1.91001e-15
-2.34025e-16
-1.07781e-15
8.17113e-17
-1.09498e-15
1.52982e-16
-1.22494e-15
1.04643e-16
-1.24682e-15
1.97145e-17
-1.181e-15
2.5765e-17
-1.85382e-15
1.92438e-16
-5.1345e-16
3.2129e-16
-3.94164e-15
2.60937e-16
-1.38534e-15
2.19067e-16
-3.91485e-15
-1.41937e-16
-6.30676e-16
-4.00876e-16
-1.44727e-15
-4.76003e-16
-1.34195e-15
-4.47829e-16
-1.38091e-15
9.28591e-17
-1.40219e-15
3.96654e-16
-1.2448e-15
3.05921e-16
-1.34616e-15
2.17959e-16
-1.77788e-15
2.22942e-16
-2.48282e-15
1.65621e-16
-2.70539e-15
-9.72488e-17
-2.37824e-15
-6.56934e-16
-1.91078e-15
-5.39792e-16
-1.8945e-15
8.73576e-18
-2.0241e-15
1.06738e-16
-1.8759e-15
1.12868e-18
-1.64649e-15
1.33499e-16
-1.41852e-15
2.02087e-16
-8.38146e-16
3.61107e-16
-1.31723e-15
4.84783e-17
-1.02713e-15
-1.69178e-16
-1.12029e-15
3.06912e-17
-1.35073e-15
1.68078e-16
-1.01303e-15
3.50135e-17
-1.06394e-15
-4.44409e-17
-1.20358e-15
-5.30891e-19
-1.22176e-15
-4.62014e-18
-1.13126e-15
-6.76279e-17
-1.54118e-15
2.31378e-16
-1.71499e-15
1.04444e-16
-2.4388e-15
-2.40452e-16
-7.15107e-15
-6.36877e-17
-1.11635e-14
8.41744e-16
4.65583e-16
6.36638e-19
-8.57393e-18
-8.68514e-19
-3.36037e-18
1.62788e-18
2.99959e-18
1.51462e-18
2.06527e-18
1.86168e-18
5.46264e-18
8.47954e-18
-1.48461e-19
-6.62933e-18
-2.3136e-18
8.69903e-18
2.88376e-18
1.1698e-17
-6.69591e-18
-1.36356e-17
-5.67235e-18
-1.89624e-17
-6.44426e-18
1.19776e-17
-3.32407e-18
5.21297e-18
-5.03589e-18
1.18215e-18
-9.52304e-18
-1.60125e-17
2.46128e-18
-2.97332e-18
-1.92743e-18
1.21139e-17
4.77062e-18
1.69926e-17
-1.1456e-18
4.64209e-18
-7.53884e-18
-1.00677e-18
-7.15891e-18
-8.91234e-18
-5.11906e-18
-6.93183e-19
1.18353e-17
1.38258e-17
-5.41571e-18
1.54234e-17
-5.49934e-19
6.4498e-18
-1.69835e-17
4.03905e-19
-1.86338e-17
8.54902e-18
-1.36165e-17
-2.16385e-17
-1.55182e-17
-3.37945e-17
-1.32059e-17
1.52729e-17
-6.21522e-18
-1.00253e-17
-3.8279e-18
-2.13725e-17
1.38552e-19
-1.58338e-17
1.58789e-18
5.08746e-18
-3.82239e-18
1.82792e-17
-1.70124e-18
-1.38144e-17
-1.39028e-17
-8.25856e-18
-1.24231e-17
4.47257e-18
-9.00332e-18
1.03706e-17
-3.55585e-18
9.7509e-19
4.18896e-18
-7.2729e-18
-4.35411e-18
-1.10099e-17
-9.52626e-18
6.09991e-18
-7.49071e-18
-8.70238e-18
-8.9634e-18
-1.60112e-17
-4.43647e-18
1.45066e-17
-4.32073e-18
6.67326e-18
-8.59242e-18
1.10565e-18
-1.54879e-17
-3.74381e-17
-1.78079e-17
-2.88664e-17
-4.64627e-18
4.93931e-18
5.97651e-18
1.60282e-18
-1.03012e-17
-2.96592e-18
-1.64111e-17
-1.05609e-17
-1.70225e-17
-1.19255e-17
-1.47105e-17
-2.83091e-17
-1.78228e-17
-3.9543e-17
-1.17676e-17
-2.4474e-17
-6.2406e-18
-2.38439e-17
1.93123e-18
1.15908e-17
2.372e-18
-9.83637e-18
-7.10818e-18
-2.8172e-17
-8.99147e-18
-1.89827e-17
-1.26032e-17
-1.71365e-18
-7.85871e-18
-1.74747e-17
-8.86484e-18
-1.48623e-17
-6.4602e-18
-1.28586e-17
-1.31736e-17
-6.67634e-18
-6.8544e-18
-1.17536e-17
-1.92169e-17
-1.2143e-17
-1.88713e-17
-1.33089e-17
-2.09254e-17
-2.43731e-17
-1.19242e-17
-1.81569e-17
-6.43505e-18
-1.35762e-17
-7.79342e-18
-1.60303e-17
-2.11502e-17
-1.69544e-17
-2.0152e-17
-2.01304e-17
-1.78623e-17
-1.80479e-17
-2.5578e-17
-2.68422e-17
-2.56817e-17
-2.43403e-17
-1.49641e-17
-2.1679e-17
-6.27159e-18
-2.81262e-17
-6.57768e-18
-3.29279e-17
-9.71629e-18
-3.17833e-17
-1.17434e-17
-3.20248e-17
-9.05946e-18
-5.31918e-17
-2.1529e-17
-2.76406e-17
-4.50064e-18
-3.67411e-17
-6.61e-18
-4.42973e-17
-1.28956e-17
-4.12027e-17
-1.12951e-17
-3.69544e-17
-1.2141e-17
-4.65457e-17
-1.11585e-17
-4.84508e-17
-1.45961e-17
-5.16865e-17
-1.60361e-17
-5.38392e-17
-1.43128e-17
-7.1777e-17
-2.07389e-17
-6.9185e-17
-1.2358e-17
-8.66181e-17
-2.16115e-17
-5.39876e-17
-1.57388e-17
-5.03659e-17
-7.15935e-18
-5.6058e-17
-1.20653e-17
-5.2744e-17
-5.90359e-18
-3.79596e-17
-5.00558e-18
-4.33923e-17
-8.63015e-18
-6.01255e-17
-1.2771e-17
-5.93482e-17
-1.50602e-17
-6.26645e-17
-6.61142e-18
-5.98024e-17
-6.62091e-18
-1.00475e-16
-1.14163e-17
-6.66151e-17
-1.87675e-17
-8.14639e-17
-2.91239e-17
-6.1055e-17
-2.15714e-17
-6.67654e-17
-1.14509e-17
-8.53557e-17
-7.76075e-18
-6.82474e-17
-1.24263e-17
-5.73406e-17
-1.57393e-17
-5.29507e-17
-1.06545e-17
-6.83515e-17
-7.07567e-18
-7.16557e-17
-4.40911e-18
-6.60455e-17
-1.22889e-17
-7.80638e-17
-1.80557e-17
-7.13203e-17
-1.56745e-17
-1.11611e-16
-2.12066e-17
-8.18811e-17
-2.55639e-17
-7.52093e-17
-1.16747e-17
-8.34016e-17
1.15886e-18
-7.55264e-17
5.5671e-18
-5.59691e-17
1.35002e-18
-1.04973e-16
-1.54925e-17
-1.25771e-16
-7.55206e-18
-1.44632e-16
4.63701e-19
-2.20804e-16
-7.84706e-18
-9.89104e-17
-6.45137e-18
-1.03076e-16
-3.28436e-17
-1.22514e-16
-7.15698e-19
-1.08783e-16
-1.45105e-17
-1.13322e-16
-3.21137e-17
-1.26654e-16
-2.44274e-17
-1.2234e-16
-1.02821e-17
-1.35128e-16
3.45835e-18
-2.64576e-16
2.95681e-17
-2.12471e-16
-2.78628e-17
-1.59468e-16
-6.63776e-17
-2.131e-16
-5.10695e-17
-9.06025e-17
-4.53364e-17
-1.38429e-16
-9.41063e-18
-1.26397e-16
2.04018e-17
-1.35743e-16
-1.84378e-17
-1.15195e-16
-4.71869e-17
-1.06007e-16
-6.95965e-18
-1.4789e-16
1.00615e-17
-2.08781e-16
6.88891e-18
-3.06133e-16
3.84554e-17
-3.77773e-16
-1.00453e-18
-2.36847e-16
-7.15852e-17
-1.83481e-16
-5.60651e-17
-1.69397e-16
-1.84661e-17
-1.90017e-16
8.37099e-18
-1.72913e-16
-1.34677e-17
-1.7299e-16
-6.19987e-18
-1.90601e-16
1.44989e-17
-1.93828e-16
3.06974e-18
-1.86903e-16
-1.10372e-17
-1.15949e-16
-7.41982e-18
-1.96727e-16
-2.77275e-17
-1.7099e-16
-3.56892e-17
-1.05788e-16
-6.75352e-17
-5.48651e-17
-2.30159e-17
-1.08369e-16
1.26896e-17
-5.08129e-16
2.65377e-17
-3.03133e-16
3.71337e-17
-5.16131e-16
-3.66885e-17
-1.47665e-16
-3.97363e-17
-1.81147e-16
8.87407e-18
-2.90332e-16
3.86927e-17
-4.18658e-16
3.45659e-17
-4.09425e-16
-3.70919e-17
-3.05437e-16
-6.81813e-17
-2.38413e-16
-5.02607e-17
-2.23168e-16
-2.44033e-17
-2.30236e-16
2.50304e-18
-2.6659e-16
1.61004e-17
-2.71727e-16
-1.84624e-17
-1.83772e-16
-8.9994e-18
-1.20196e-16
1.7141e-17
-1.26605e-16
2.18542e-17
-1.43398e-16
8.00444e-18
2.53864e-18
-1.24865e-16
-5.47434e-17
-1.7173e-17
-4.55231e-17
-1.38837e-16
2.15413e-16
-1.31369e-16
3.40341e-16
-8.27899e-17
3.9409e-16
5.28692e-17
3.93823e-16
9.56624e-19
3.54479e-16
-1.57244e-17
3.5148e-16
-1.24004e-16
3.88347e-16
-7.16355e-17
3.51496e-16
5.733e-17
3.12987e-16
1.49671e-16
1.48296e-16
7.63895e-17
-1.55002e-17
-1.87581e-17
-1.71031e-16
-2.15193e-17
-1.75823e-16
3.08544e-17
-1.38949e-16
4.23519e-17
-1.16471e-16
-2.01559e-18
-4.63026e-16
-4.26404e-17
-4.33739e-16
3.90119e-17
-4.44403e-16
-9.16771e-17
-2.70739e-16
-3.77507e-17
-4.05961e-16
-9.46749e-17
-5.44481e-16
5.54365e-18
-6.3437e-16
1.12608e-16
-4.58639e-16
5.48988e-17
-8.70392e-16
2.69294e-17
-5.88847e-16
4.85254e-17
-8.87957e-16
-1.49182e-17
-6.16162e-16
-4.70449e-17
-5.44349e-16
-5.38942e-17
-5.93145e-16
-4.7644e-17
-7.19349e-16
2.0222e-17
-8.0419e-16
2.5319e-17
-8.20743e-16
4.04292e-17
-8.66616e-16
6.69878e-17
-9.62185e-16
4.22588e-17
-9.13658e-16
-2.28363e-17
-7.82608e-16
-1.00193e-16
-7.84272e-16
-5.75831e-17
-9.01682e-16
-9.501e-17
-5.0461e-16
-1.61315e-16
-3.09973e-16
-8.19907e-17
-1.7496e-16
4.40919e-17
-8.29306e-16
7.52543e-17
-4.82933e-16
-4.07616e-17
-6.54403e-16
-8.07662e-17
-7.26849e-16
-8.65486e-17
-5.28988e-16
-1.53008e-16
-4.30591e-16
-3.83749e-17
-5.34443e-16
1.05027e-16
-7.19085e-16
1.43082e-16
-8.43503e-16
1.48663e-16
-7.75342e-16
2.96101e-17
-5.55467e-16
6.37349e-19
-3.81229e-16
3.44426e-17
-2.75339e-16
-9.31161e-18
1.75199e-16
6.7045e-17
-7.96773e-16
2.26313e-17
5.10888e-16
4.38836e-17
-6.0479e-16
1.46108e-16
2.64675e-15
5.35998e-16
-1.45523e-16
-1.74302e-16
-1.06961e-16
-5.99362e-17
-2.23705e-16
-1.37745e-16
-3.74108e-16
-1.47662e-16
-5.85202e-16
-4.1723e-17
-6.60133e-16
1.5871e-16
-5.84631e-16
2.07576e-17
-5.5833e-16
6.16334e-17
-5.27394e-16
1.09202e-16
-3.7002e-16
-2.42401e-17
-5.57746e-16
-5.91247e-18
-6.72778e-16
-8.71751e-18
-7.57449e-16
-8.59568e-18
-8.86994e-16
6.38621e-17
-9.4498e-16
8.56936e-17
-1.03219e-15
-2.87783e-17
-8.75207e-16
-2.88143e-16
-5.54262e-16
-2.53358e-16
-2.65577e-16
-9.4576e-17
-1.42187e-16
-7.61699e-17
-2.28817e-16
1.71858e-17
-5.56668e-16
3.60761e-16
-9.68687e-16
3.61419e-16
-9.80222e-16
-3.03297e-18
-9.67835e-16
2.12827e-17
-7.94616e-16
3.96341e-17
-7.4238e-16
1.34939e-16
-1.31398e-15
4.4843e-17
2.03628e-16
-7.73432e-18
-8.04796e-16
1.10049e-16
-1.01498e-15
1.10384e-16
-7.55804e-16
-6.78214e-17
-8.41914e-16
-2.41686e-16
-3.55302e-16
-2.36484e-16
-7.76546e-16
-7.74139e-17
-1.18132e-15
1.41631e-16
-1.46423e-15
1.92362e-17
-1.37586e-15
-6.55429e-17
-1.19385e-15
-7.91879e-17
-1.23033e-15
2.64939e-16
-1.37624e-15
2.25639e-16
-1.08169e-15
-1.58483e-16
-6.7641e-16
-9.86229e-17
-5.83409e-16
1.51401e-16
-1.0092e-15
1.74713e-16
9.35241e-16
1.45212e-16
-1.66933e-16
-7.56805e-16
1.21292e-15
-1.36568e-16
-3.81035e-16
-3.5013e-17
2.36497e-15
-7.35175e-16
2.25468e-15
-8.22729e-16
2.42429e-15
-7.14678e-16
-3.88883e-16
1.3475e-15
1.78024e-16
4.53031e-16
-4.23138e-16
3.44983e-16
-7.23297e-16
7.41217e-17
-6.61871e-16
-1.04188e-16
-6.44462e-16
1.32391e-17
-7.11595e-16
2.2519e-17
-8.02167e-16
1.49803e-16
-6.62906e-16
9.64204e-17
-5.63438e-16
-3.33668e-17
-5.21356e-16
3.51776e-17
-4.98184e-16
1.26636e-16
-4.5329e-16
-8.20881e-18
-7.47919e-16
9.60633e-17
-1.15162e-15
2.47854e-16
-1.12511e-15
1.33597e-16
-6.63457e-16
-1.03156e-16
-4.81177e-16
1.44625e-16
-5.70603e-16
2.84104e-16
-4.15329e-16
8.14741e-17
-1.40611e-16
-2.97026e-16
-4.82042e-16
-3.20149e-16
-2.72915e-16
-7.96295e-17
-4.09505e-16
-2.33415e-17
-2.702e-16
-1.80264e-16
-3.73848e-16
-8.42237e-17
-8.86281e-16
-8.31747e-17
-1.43501e-15
1.74086e-16
-1.74128e-15
4.47299e-18
-1.51433e-15
-5.85113e-16
-1.17661e-15
-2.97006e-16
-1.07865e-15
-1.44779e-16
-1.0452e-15
-4.87317e-17
-1.10633e-15
1.51635e-16
-1.28231e-15
3.88878e-16
-1.45202e-15
5.18267e-16
-1.63685e-15
3.52676e-16
-1.91051e-15
2.4992e-16
-1.00819e-15
-1.19616e-16
-7.13551e-16
-4.68546e-17
-9.65116e-16
8.70207e-17
-8.95757e-16
-2.10088e-16
-3.79687e-16
-1.92585e-16
-4.32211e-16
1.91565e-16
-2.69156e-15
2.56438e-16
1.21513e-15
-6.54377e-17
-2.81174e-15
-2.04414e-16
-6.92827e-16
1.21158e-16
-1.37412e-15
2.21856e-16
-1.89039e-15
3.17319e-16
-2.40529e-15
1.79764e-16
-2.02845e-15
-5.75399e-17
-1.92409e-15
-3.18472e-16
-1.81524e-15
-8.65817e-17
-1.96631e-15
-1.54959e-16
-1.85095e-15
-3.02751e-16
-1.28559e-15
-4.4668e-16
-9.36884e-16
-6.78472e-17
-1.28375e-15
5.87693e-16
-1.62008e-15
3.9825e-16
-2.45873e-15
2.66392e-16
-1.631e-15
3.3023e-19
-1.59805e-15
-2.19474e-16