/*--------------------------------*- C++ -*----------------------------------*\
  =========                 |
  \\      /  F ield         | OpenFOAM: The Open Source CFD Toolbox
   \\    /   O peration     | Website:  https://openfoam.org
    \\  /    A nd           | Version:  7
     \\/     M anipulation  |
\*---------------------------------------------------------------------------*/
FoamFile
{
    version     2.0;
    format      ascii;
    class       volScalarField;
    location    "6000";
    object      alpha.wetting;
}
// * * * * * * * * * * * * * * * * * * * * * * * * * * * * * * * * * * * * * //

dimensions      [0 0 0 0 0 0 0];

internalField   nonuniform List<scalar> 
160000
(
0.519432
0.519432
0.483177
0.481254
0.453851
0.462228
0.546505
0.582121
0.531324
0.512246
0.495606
0.485081
0.486994
0.48976
0.491661
0.516517
0.536189
0.544202
0.544202
0.544202
0.536376
0.480716
0.48952
0.513251
0.523046
0.47125
0.46489
0.464289
0.458904
0.458904
0.510097
0.550234
0.550234
0.542517
0.540599
0.482932
0.483533
0.483534
0.483535
0.527681
0.531381
0.532244
0.471006
0.460778
0.45975
0.455624
0.552095
0.560737
0.560737
0.554457
0.472435
0.446171
0.44411
0.442937
0.442937
0.442937
0.522021
0.522021
0.491179
0.490784
0.50695
0.517818
0.520659
0.520659
0.512091
0.517942
0.517941
0.517636
0.516483
0.433881
0.43388
0.433881
0.43388
0.433881
0.487456
0.523311
0.531532
0.529198
0.531932
0.531921
0.533943
0.535999
0.535999
0.513221
0.497395
0.497395
0.497394
0.497261
0.498004
0.498004
0.497154
0.497154
0.497155
0.498545
0.498546
0.490225
0.490225
0.531918
0.533868
0.532847
0.533695
0.513376
0.513375
0.513375
0.483846
0.483844
0.483846
0.483844
0.483846
0.502185
0.543913
0.541247
0.541394
0.541394
0.513904
0.513905
0.493172
0.47741
0.491144
0.551942
0.551181
0.531661
0.531662
0.531657
0.531662
0.531656
0.546913
0.548635
0.548636
0.548635
0.548636
0.513641
0.49503
0.49503
0.49503
0.49503
0.50257
0.50257
0.50257
0.497797
0.500539
0.500535
0.49294
0.492936
0.492941
0.492935
0.492943
0.492935
0.530061
0.530059
0.483641
0.483641
0.483637
0.48364
0.480701
0.480701
0.480696
0.510739
0.510739
0.51074
0.485414
0.487716
0.499265
0.514715
0.499818
0.472088
0.472089
0.441938
0.441938
0.441938
0.46902
0.581904
0.581899
0.581902
0.581899
0.511372
0.511372
0.531946
0.542485
0.542499
0.542485
0.542486
0.542483
0.496766
0.482883
0.481966
0.481967
0.467718
0.371012
0.367521
0.437263
0.466401
0.491361
0.517887
0.517895
0.416159
0.343462
0.472066
0.736208
0.736239
0.736208
0.736214
0.643821
0.487901
0.438629
0.438624
0.468138
0.571134
0.571124
0.569259
0.569259
0.567135
0.551956
0.539934
0.532121
0.518727
0.49832
0.500851
0.582043
0.582005
0.582038
0.582012
0.567602
0.472102
0.461072
0.461074
0.461056
0.461077
0.461056
0.496277
0.502963
0.505512
0.492815
0.492821
0.492807
0.492821
0.492807
0.557558
0.558865
0.558855
0.558858
0.498641
0.475303
0.418969
0.359964
0.268562
0.237649
0.330031
0.615595
0.743248
0.743184
0.743203
0.723753
0.638478
0.539937
0.509758
0.495625
0.431782
0.440407
0.549328
0.549376
0.549328
0.549338
0.4784
0.454062
0.464685
0.464688
0.450028
0.412068
0.412081
0.563612
0.585898
0.585881
0.585898
0.556251
0.435758
0.435757
0.435734
0.48883
0.488805
0.486533
0.435772
0.435776
0.435777
0.458482
0.593423
0.593383
0.59339
0.539867
0.525181
0.52518
0.46753
0.467534
0.508509
0.527198
0.527195
0.508808
0.324533
0.228158
0.17425
0.17423
0.208484
0.774738
0.774814
0.774738
0.774798
0.774738
0.704058
0.609035
0.503333
0.453765
0.43592
0.418972
0.418972
0.500142
0.565322
0.565264
0.565319
0.510414
0.401485
0.341381
0.29762
0.271378
0.271401
0.271346
0.271412
0.367288
0.520634
0.603329
0.603327
0.60292
0.602914
0.60291
0.602905
0.583852
0.547464
0.483195
0.464478
0.502487
0.525289
0.525251
0.525282
0.525251
0.42338
0.422885
0.422891
0.422879
0.422914
0.584874
0.584979
0.584873
0.576636
0.490979
0.475141
0.475124
0.475139
0.552598
0.553386
0.553422
0.553386
0.539802
0.47602
0.476015
0.47602
0.475981
0.47602
0.475948
0.47602
0.475948
0.541907
0.557855
0.55788
0.557855
0.55788
0.553062
0.553068
0.535453
0.493369
0.490942
0.490942
0.490942
0.509484
0.499121
0.499116
0.499107
0.5216
0.5216
0.5216
0.50552
0.449759
0.443171
0.41743
0.417432
0.422531
0.376354
0.391631
0.584405
0.706891
0.922847
0.922871
0.501099
0.50026
0.552477
0.492673
0.468336
0.462447
0.466514
0.485789
0.503456
0.51243
0.51243
0.502561
0.486647
0.489414
0.489413
0.514726
0.534726
0.494804
0.490156
0.488005
0.492025
0.483794
0.537052
0.537051
0.523811
0.468432
0.463149
0.458904
0.458904
0.515363
0.511834
0.514191
0.536246
0.54564
0.54232
0.483544
0.480478
0.480478
0.49586
0.533368
0.533368
0.529077
0.509419
0.461024
0.456319
0.455064
0.455064
0.498962
0.560737
0.555887
0.509375
0.459419
0.51404
0.51404
0.509227
0.483285
0.521252
0.50426
0.489784
0.489553
0.489553
0.518128
0.518128
0.508769
0.508756
0.508676
0.48419
0.48419
0.483774
0.494751
0.494947
0.494946
0.460672
0.479595
0.527245
0.531479
0.531478
0.513875
0.478856
0.480921
0.532747
0.508677
0.50114
0.50114
0.501139
0.50305
0.50305
0.497155
0.497154
0.497154
0.497154
0.497232
0.500956
0.500957
0.490225
0.490224
0.530161
0.533698
0.533868
0.527825
0.533695
0.533695
0.469112
0.469111
0.512604
0.483846
0.521717
0.543914
0.543913
0.543914
0.543913
0.507276
0.485736
0.480621
0.478658
0.478657
0.477409
0.477409
0.508623
0.553869
0.553868
0.553869
0.553868
0.553868
0.548231
0.548564
0.548564
0.548549
0.548635
0.548636
0.548635
0.495032
0.495031
0.49503
0.507423
0.492927
0.502568
0.50257
0.492939
0.492939
0.49294
0.49294
0.492938
0.500165
0.518997
0.518996
0.533276
0.533277
0.532827
0.498631
0.498631
0.498631
0.480702
0.480698
0.480701
0.480696
0.4807
0.480697
0.47762
0.477619
0.477617
0.495099
0.514715
0.514716
0.473377
0.473377
0.475686
0.448249
0.445172
0.495813
0.551887
0.581899
0.519299
0.519297
0.520756
0.539288
0.542487
0.542485
0.542488
0.542485
0.542487
0.542485
0.528581
0.411485
0.414168
0.421007
0.375844
0.260415
0.220734
0.26838
0.543173
0.678391
0.619421
0.491773
0.379235
0.343462
0.343462
0.408058
0.73334
0.736208
0.736214
0.665319
0.542325
0.442842
0.438662
0.53412
0.571134
0.571124
0.571134
0.571124
0.571125
0.5379
0.501383
0.508638
0.517277
0.498317
0.498318
0.547644
0.582
0.582012
0.582005
0.544359
0.480744
0.461076
0.461077
0.461059
0.461077
0.461054
0.46108
0.461057
0.49313
0.570033
0.570044
0.570033
0.570037
0.531767
0.558855
0.558866
0.558855
0.558857
0.513579
0.407168
0.386498
0.35954
0.236374
0.216314
0.216335
0.523447
0.743249
0.743185
0.743235
0.725394
0.63307
0.595723
0.557716
0.488005
0.431775
0.431774
0.498979
0.549383
0.549334
0.549339
0.47818
0.454062
0.454061
0.454059
0.458584
0.403256
0.412065
0.585881
0.585906
0.585881
0.5859
0.585881
0.497809
0.435762
0.435732
0.435762
0.435734
0.435765
0.43574
0.435766
0.513364
0.593393
0.593428
0.593388
0.593401
0.585824
0.541167
0.489677
0.434921
0.455777
0.511611
0.511614
0.379231
0.302338
0.30069
0.240331
0.174249
0.174218
0.17425
0.558265
0.774812
0.774738
0.774749
0.704227
0.61373
0.546687
0.501133
0.449291
0.418959
0.418958
0.418959
0.508774
0.565324
0.565262
0.565295
0.504357
0.379672
0.322816
0.288421
0.271417
0.271408
0.40918
0.621685
0.621681
0.621682
0.603339
0.603335
0.583473
0.507491
0.48916
0.521609
0.530797
0.537177
0.529476
0.478658
0.464475
0.496399
0.499918
0.489923
0.4899
0.525235
0.42292
0.422891
0.422885
0.427943
0.584874
0.58498
0.584874
0.584889
0.534068
0.475141
0.475124
0.475139
0.475121
0.475138
0.475117
0.501362
0.553354
0.536101
0.496586
0.47602
0.475986
0.565416
0.565394
0.56545
0.565392
0.56541
0.54659
0.535665
0.539771
0.538828
0.501437
0.494493
0.492224
0.492218
0.492224
0.51381
0.532403
0.535663
0.535658
0.535662
0.535662
0.497663
0.499455
0.51877
0.44579
0.432125
0.432117
0.432122
0.422551
0.422549
0.422547
0.37635
0.413799
0.490096
0.671522
0.869146
0.922894
0.501426
0.50026
0.552477
0.540918
0.540501
0.484624
0.487671
0.514329
0.502489
0.507325
0.503416
0.495998
0.486647
0.490861
0.490862
0.511171
0.536365
0.536365
0.489822
0.488005
0.488005
0.525968
0.532463
0.506667
0.50514
0.505139
0.504919
0.493116
0.520041
0.52004
0.481967
0.503497
0.534908
0.545639
0.505631
0.486026
0.523977
0.523017
0.514527
0.484199
0.477227
0.478205
0.499528
0.509219
0.514999
0.508392
0.482006
0.482643
0.486598
0.521704
0.512561
0.484379
0.480896
0.4809
0.480899
0.482226
0.507264
0.538065
0.538065
0.532811
0.467369
0.467377
0.517419
0.515649
0.515443
0.517169
0.517169
0.515106
0.483774
0.483963
0.481953
0.481953
0.491766
0.491765
0.478857
0.478857
0.478857
0.47886
0.478856
0.508716
0.527668
0.531123
0.531123
0.521631
0.502986
0.480325
0.491099
0.51326
0.51326
0.497154
0.497154
0.498342
0.492266
0.492266
0.491947
0.459587
0.459587
0.459587
0.472823
0.479837
0.474646
0.516988
0.491773
0.465728
0.512603
0.543602
0.544816
0.511724
0.511724
0.511723
0.511723
0.511723
0.52015
0.496874
0.496874
0.493312
0.477408
0.502004
0.541375
0.544139
0.506451
0.495473
0.495474
0.498084
0.521748
0.508681
0.487903
0.487913
0.489397
0.493499
0.507901
0.543579
0.543577
0.541426
0.50749
0.492926
0.492927
0.492927
0.492938
0.492939
0.51723
0.522438
0.522439
0.49071
0.490708
0.490709
0.49443
0.533018
0.533018
0.488058
0.488058
0.488058
0.488057
0.506273
0.506273
0.506065
0.502374
0.520148
0.520148
0.519184
0.477616
0.477617
0.477618
0.520474
0.520476
0.519189
0.475688
0.397512
0.39949
0.506682
0.581897
0.581902
0.581897
0.581897
0.506234
0.495425
0.495424
0.495424
0.495422
0.533819
0.542476
0.508237
0.45675
0.411487
0.320776
0.246766
0.220713
0.220714
0.220713
0.538663
0.756643
0.734717
0.643776
0.52641
0.418412
0.344583
0.343462
0.368157
0.521955
0.604215
0.584119
0.490703
0.444931
0.468982
0.529031
0.57113
0.571126
0.550292
0.544237
0.544241
0.549951
0.499205
0.498312
0.498316
0.498308
0.498316
0.527458
0.562545
0.562549
0.497691
0.475412
0.475412
0.475412
0.490425
0.531135
0.508717
0.466809
0.46108
0.497744
0.537232
0.552554
0.570045
0.570033
0.520892
0.461832
0.51232
0.533006
0.506839
0.501144
0.501141
0.501143
0.466185
0.343836
0.232278
0.216326
0.216335
0.216313
0.518195
0.743185
0.743248
0.743185
0.612707
0.528764
0.487922
0.465368
0.440683
0.431774
0.431775
0.465691
0.549328
0.544356
0.46787
0.452424
0.459541
0.466587
0.42831
0.393648
0.403247
0.531575
0.583288
0.535893
0.526789
0.526787
0.526789
0.492795
0.438449
0.435762
0.435735
0.464625
0.546856
0.593408
0.593411
0.593404
0.593407
0.564728
0.51617
0.531498
0.551253
0.520351
0.44128
0.338959
0.251978
0.193799
0.174216
0.174184
0.17422
0.174204
0.174226
0.174195
0.250083
0.671548
0.774754
0.774738
0.691765
0.573846
0.522212
0.522215
0.531267
0.485997
0.428529
0.422665
0.448636
0.476851
0.530364
0.564055
0.521472
0.431202
0.381384
0.356051
0.31184
0.288422
0.357285
0.572125
0.621685
0.621685
0.621685
0.608441
0.553768
0.545785
0.525383
0.48603
0.486024
0.530211
0.530218
0.504989
0.487021
0.462722
0.462723
0.462722
0.483089
0.499015
0.471187
0.430328
0.430312
0.522101
0.582699
0.584873
0.584967
0.584874
0.584878
0.527891
0.526049
0.529842
0.529848
0.529841
0.499201
0.47513
0.510606
0.528197
0.5282
0.487891
0.476021
0.476007
0.47693
0.565394
0.565421
0.560495
0.549734
0.517215
0.457525
0.457528
0.530782
0.599466
0.599449
0.599464
0.599445
0.599452
0.563039
0.491586
0.491581
0.491587
0.491566
0.491587
0.491563
0.49766
0.482443
0.482436
0.482431
0.489221
0.481996
0.408022
0.408017
0.408011
0.40774
0.420165
0.437805
0.442245
0.651603
0.893706
0.922917
0.503072
0.531123
0.526178
0.527877
0.537384
0.532518
0.51437
0.514361
0.502489
0.511128
0.511128
0.511128
0.500163
0.490861
0.491033
0.486526
0.487973
0.487461
0.487956
0.495313
0.488973
0.484282
0.483364
0.505023
0.525396
0.525396
0.518214
0.516727
0.514737
0.46087
0.460871
0.460877
0.462012
0.462012
0.471161
0.529312
0.529313
0.500663
0.482294
0.478039
0.477166
0.477166
0.477481
0.486793
0.514999
0.513353
0.513353
0.511314
0.503673
0.486542
0.484498
0.480845
0.480845
0.486254
0.486254
0.486095
0.477139
0.476384
0.467831
0.467218
0.467218
0.467829
0.526144
0.494582
0.494583
0.496117
0.460616
0.422663
0.517028
0.517028
0.512945
0.449145
0.437435
0.500293
0.522442
0.522536
0.522586
0.522795
0.522794
0.480325
0.480325
0.480325
0.480325
0.480324
0.480325
0.480324
0.480325
0.480324
0.510554
0.510554
0.497151
0.498844
0.498845
0.488693
0.471688
0.510249
0.499753
0.459586
0.459586
0.459586
0.458189
0.403206
0.403207
0.436516
0.498285
0.54683
0.550107
0.550107
0.550293
0.550293
0.519337
0.52015
0.52015
0.484099
0.477408
0.477407
0.477408
0.477406
0.525473
0.522612
0.500975
0.500975
0.500975
0.482688
0.482689
0.482688
0.487702
0.488417
0.488417
0.500519
0.503546
0.505232
0.481156
0.457608
0.437651
0.484955
0.50741
0.528051
0.533093
0.557143
0.565961
0.522435
0.49071
0.490704
0.490709
0.490703
0.490708
0.531025
0.513506
0.513507
0.513506
0.513507
0.505994
0.473739
0.465461
0.46546
0.46546
0.465458
0.465459
0.46187
0.477614
0.498895
0.53512
0.555146
0.503443
0.428228
0.391487
0.388425
0.391204
0.555813
0.5819
0.555312
0.528861
0.54341
0.54341
0.543409
0.543406
0.502479
0.45977
0.492074
0.539929
0.476109
0.360784
0.311863
0.273777
0.237777
0.220714
0.352117
0.674106
0.802785
0.794247
0.71504
0.633579
0.609233
0.560534
0.444199
0.351154
0.351763
0.419099
0.500444
0.500626
0.367098
0.367102
0.382836
0.512829
0.571126
0.57113
0.558644
0.555377
0.555373
0.523663
0.498314
0.498316
0.52668
0.562961
0.56296
0.552983
0.531107
0.499365
0.475412
0.475412
0.475412
0.522935
0.573392
0.573392
0.573392
0.529281
0.496227
0.491264
0.491267
0.491262
0.522588
0.508345
0.418654
0.399171
0.489348
0.548331
0.565043
0.565044
0.537951
0.474333
0.364245
0.259296
0.216329
0.216336
0.216314
0.309357
0.743184
0.743248
0.743185
0.626225
0.5367
0.49506
0.448442
0.432563
0.432561
0.432553
0.49229
0.533225
0.546913
0.501557
0.452424
0.452424
0.452424
0.512898
0.479579
0.393648
0.38972
0.420481
0.554936
0.579923
0.579923
0.579923
0.554483
0.43906
0.435765
0.43575
0.435936
0.571504
0.601567
0.601563
0.574129
0.528289
0.516172
0.516176
0.516172
0.508684
0.505041
0.485961
0.43074
0.308185
0.190322
0.174214
0.174196
0.174216
0.234559
0.539855
0.659613
0.703447
0.703452
0.703437
0.581704
0.562679
0.543813
0.57409
0.574097
0.574089
0.57397
0.532719
0.500249
0.489686
0.463072
0.461392
0.46573
0.536136
0.52904
0.476022
0.398887
0.319059
0.31184
0.321961
0.496663
0.621684
0.621684
0.621683
0.552983
0.473924
0.447572
0.482156
0.528391
0.504365
0.444974
0.406767
0.406766
0.406761
0.406765
0.504709
0.590641
0.616473
0.616466
0.595645
0.510759
0.44246
0.430328
0.456355
0.584869
0.584904
0.584873
0.574351
0.558061
0.526799
0.518775
0.515231
0.51523
0.516072
0.501784
0.466806
0.448985
0.448982
0.448985
0.506969
0.54891
0.512983
0.464819
0.464819
0.462486
0.42089
0.406736
0.465795
0.457517
0.469121
0.497359
0.560876
0.599459
0.599449
0.599461
0.597385
0.529132
0.491584
0.491629
0.491603
0.491587
0.491566
0.491587
0.511151
0.535892
0.53589
0.535892
0.489218
0.489212
0.506344
0.45043
0.384515
0.384498
0.384515
0.384487
0.424486
0.631696
0.890976
0.92294
0.527334
0.539235
0.52365
0.520784
0.517949
0.512749
0.495662
0.500263
0.501254
0.494603
0.500172
0.492923
0.500164
0.495815
0.491875
0.486526
0.494699
0.486947
0.490234
0.495313
0.488957
0.495777
0.483364
0.48696
0.477948
0.477948
0.478979
0.472119
0.472658
0.529605
0.529604
0.523389
0.535587
0.533634
0.453829
0.450275
0.447666
0.448056
0.494553
0.534016
0.499723
0.536708
0.531423
0.496346
0.488704
0.488704
0.488704
0.492417
0.498683
0.493447
0.492925
0.491367
0.48751
0.476995
0.476996
0.476995
0.476996
0.503003
0.500145
0.469716
0.470518
0.534522
0.560748
0.560748
0.56048
0.561987
0.559771
0.421836
0.420487
0.4204
0.4204
0.420535
0.421624
0.467727
0.493372
0.522352
0.514916
0.514949
0.521042
0.521021
0.51799
0.480325
0.480325
0.489321
0.502114
0.502115
0.499433
0.477644
0.47313
0.47313
0.473099
0.463891
0.463891
0.463891
0.471687
0.537558
0.537557
0.537558
0.537557
0.537558
0.537557
0.403206
0.403205
0.403207
0.403204
0.410244
0.546504
0.540343
0.524091
0.529443
0.519342
0.519342
0.52015
0.52015
0.52015
0.510929
0.477407
0.477407
0.491253
0.476724
0.498056
0.486182
0.471733
0.486863
0.492768
0.492769
0.480947
0.480948
0.487812
0.565234
0.565228
0.565234
0.565228
0.565229
0.399903
0.3999
0.399904
0.399898
0.401723
0.545779
0.56596
0.565961
0.565635
0.517279
0.492476
0.492476
0.481204
0.470078
0.470078
0.470077
0.470077
0.470075
0.509173
0.529094
0.52909
0.529094
0.52909
0.490597
0.439451
0.439443
0.439451
0.439443
0.491281
0.58458
0.584581
0.490656
0.554761
0.388424
0.388425
0.399572
0.521522
0.545009
0.528861
0.494823
0.506157
0.532106
0.52338
0.491874
0.455794
0.433012
0.433009
0.473708
0.432037
0.356935
0.382163
0.530789
0.7135
0.833665
0.833656
0.814872
0.722678
0.607492
0.563269
0.577744
0.561364
0.469977
0.453352
0.542792
0.542785
0.542791
0.542779
0.367098
0.367089
0.367101
0.36709
0.56054
0.571125
0.528344
0.508503
0.50816
0.508159
0.552736
0.562968
0.562967
0.562966
0.511352
0.477115
0.477113
0.477111
0.477107
0.512146
0.515901
0.538792
0.573392
0.573392
0.530897
0.498879
0.498868
0.542735
0.542717
0.542734
0.542717
0.52979
0.477285
0.33446
0.44204
0.486502
0.423238
0.371684
0.357804
0.359899
0.332859
0.258457
0.22557
0.324333
0.540329
0.714087
0.743215
0.743184
0.647605
0.524058
0.466396
0.448711
0.44844
0.460538
0.51255
0.538764
0.53876
0.538754
0.518823
0.475944
0.453548
0.474295
0.534388
0.534395
0.498206
0.478843
0.389713
0.38972
0.38972
0.47311
0.576657
0.512366
0.439066
0.439062
0.463103
0.601573
0.601566
0.601578
0.601566
0.567411
0.531618
0.529399
0.517332
0.489924
0.489925
0.489924
0.499345
0.499344
0.406325
0.254909
0.174227
0.174195
0.252018
0.542279
0.725675
0.725728
0.725674
0.725707
0.65264
0.503669
0.376148
0.376148
0.376148
0.530355
0.574089
0.574097
0.518129
0.46139
0.461392
0.461373
0.461392
0.461342
0.461392
0.461336
0.483676
0.42283
0.380467
0.370089
0.422865
0.555449
0.621683
0.621683
0.621684
0.577715
0.460205
0.425897
0.429473
0.542226
0.557378
0.557324
0.557332
0.476359
0.476344
0.406761
0.406757
0.40676
0.406732
0.562792
0.579318
0.53495
0.534936
0.584745
0.584865
0.58486
0.584875
0.541443
0.496318
0.48668
0.483695
0.480036
0.495007
0.540851
0.540852
0.533941
0.481446
0.454728
0.449237
0.448985
0.448981
0.458395
0.557504
0.557494
0.557526
0.557504
0.534801
0.557454
0.401054
0.401036
0.401066
0.401031
0.507343
0.592584
0.599457
0.567743
0.491574
0.491586
0.491572
0.491586
0.491564
0.491586
0.491557
0.516296
0.516258
0.495231
0.45844
0.45842
0.519016
0.519017
0.500176
0.506342
0.506344
0.506343
0.491366
0.384505
0.401069
0.505725
0.681797
0.827265
0.922963
0.501767
0.522718
0.510955
0.501469
0.492708
0.492709
0.492708
0.492709
0.492709
0.494603
0.492923
0.492923
0.496571
0.49632
0.509001
0.515017
0.506093
0.486947
0.487596
0.487509
0.487509
0.510384
0.510384
0.48561
0.486407
0.488202
0.471784
0.471997
0.468165
0.496527
0.526898
0.52788
0.535587
0.529546
0.451916
0.443889
0.443889
0.446132
0.453753
0.535928
0.545883
0.544776
0.510473
0.490355
0.489692
0.503496
0.500776
0.487172
0.48504
0.495878
0.495877
0.476996
0.476995
0.476996
0.476995
0.477813
0.512786
0.512786
0.495168
0.494635
0.500578
0.510832
0.560607
0.560681
0.561693
0.561986
0.560279
0.440164
0.420992
0.4204
0.486796
0.538308
0.538309
0.515608
0.493372
0.514454
0.514916
0.515046
0.499098
0.48047
0.480437
0.480429
0.480343
0.479627
0.479627
0.479627
0.479626
0.515756
0.515756
0.513792
0.463891
0.463891
0.482602
0.503538
0.506318
0.520055
0.481185
0.494622
0.537558
0.537557
0.521277
0.403206
0.403206
0.403205
0.45753
0.524347
0.50959
0.50959
0.50959
0.529838
0.529838
0.525194
0.485587
0.488632
0.51319
0.51319
0.504214
0.470926
0.470926
0.470924
0.470925
0.470923
0.470924
0.470923
0.484364
0.483831
0.516003
0.565226
0.565236
0.565228
0.565237
0.565232
0.565231
0.55559
0.399902
0.399904
0.3999
0.399903
0.49017
0.537807
0.537283
0.524154
0.533498
0.533498
0.520079
0.487765
0.487763
0.509907
0.509906
0.50552
0.472534
0.470073
0.470074
0.477798
0.524219
0.504634
0.457271
0.439451
0.439446
0.439451
0.439446
0.572859
0.584592
0.584583
0.584594
0.584583
0.584579
0.388423
0.388424
0.431957
0.494663
0.494665
0.494667
0.49474
0.523083
0.525272
0.509172
0.477377
0.444414
0.44023
0.414832
0.310778
0.198703
0.211686
0.4375
0.739264
0.833669
0.833656
0.829619
0.681917
0.533348
0.494481
0.494243
0.532864
0.561359
0.542787
0.535409
0.542789
0.542794
0.542785
0.542787
0.367089
0.367097
0.367084
0.367099
0.545859
0.569489
0.54181
0.518407
0.508159
0.513718
0.562971
0.56297
0.562969
0.559409
0.516078
0.477123
0.491993
0.522445
0.522445
0.522353
0.482615
0.478369
0.478369
0.478369
0.479003
0.502963
0.539208
0.542717
0.542735
0.542717
0.511253
0.40946
0.440163
0.292635
0.354046
0.366628
0.331155
0.337537
0.356332
0.339726
0.289733
0.287558
0.381366
0.543737
0.668753
0.699309
0.687257
0.656309
0.560795
0.466924
0.445984
0.44774
0.519295
0.53876
0.538769
0.53876
0.538763
0.50319
0.451998
0.451998
0.451998
0.477678
0.534399
0.53439
0.479416
0.479428
0.389713
0.389713
0.441999
0.52161
0.521615
0.472347
0.439069
0.439066
0.447812
0.601565
0.601573
0.572738
0.542459
0.538221
0.53821
0.538221
0.538211
0.538219
0.538209
0.504184
0.442326
0.387307
0.301913
0.204506
0.174215
0.201066
0.479952
0.725675
0.725706
0.725675
0.718842
0.682938
0.474798
0.45303
0.376148
0.376148
0.376146
0.4434
0.574092
0.573525
0.48695
0.461393
0.461381
0.5116
0.581624
0.581652
0.581621
0.581645
0.516272
0.402325
0.370102
0.370095
0.433433
0.522467
0.592607
0.59884
0.533896
0.453971
0.425897
0.425904
0.425904
0.515031
0.557324
0.557379
0.557335
0.474605
0.474619
0.406761
0.406764
0.406753
0.441443
0.573999
0.535373
0.534956
0.53495
0.546097
0.546093
0.546091
0.584336
0.585213
0.513402
0.480021
0.480035
0.479973
0.480036
0.539961
0.540851
0.540852
0.533031
0.501851
0.487431
0.475973
0.479946
0.527761
0.557494
0.557564
0.557504
0.557555
0.557504
0.557501
0.401039
0.401055
0.401024
0.401056
0.457041
0.536093
0.599464
0.619517
0.619543
0.619517
0.605392
0.564171
0.547092
0.56127
0.56127
0.517862
0.493668
0.495226
0.468882
0.458424
0.458419
0.458408
0.458403
0.458408
0.458406
0.458415
0.413934
0.384519
0.444996
0.673621
0.846508
0.922963
0.922986
0.533705
0.491798
0.501497
0.493308
0.493309
0.516837
0.516837
0.503238
0.492709
0.513666
0.494299
0.498991
0.509909
0.509909
0.508936
0.515017
0.487674
0.487673
0.488141
0.507634
0.518003
0.508113
0.48561
0.48561
0.496082
0.4882
0.471783
0.473057
0.468164
0.49472
0.53142
0.527782
0.521208
0.529637
0.45457
0.45721
0.445791
0.480576
0.493238
0.505152
0.546054
0.546054
0.523197
0.505726
0.521665
0.519043
0.479813
0.479814
0.479813
0.482137
0.476996
0.476995
0.478831
0.489832
0.491402
0.495525
0.512786
0.512443
0.499607
0.487904
0.477317
0.487374
0.559679
0.559975
0.555958
0.498213
0.553597
0.420703
0.421306
0.42114
0.42198
0.423628
0.457504
0.543583
0.543583
0.534256
0.507376
0.515377
0.515377
0.514448
0.514448
0.504929
0.479627
0.479627
0.47983
0.47983
0.479626
0.469995
0.469832
0.469832
0.46465
0.472059
0.503549
0.503549
0.496996
0.481184
0.481185
0.523443
0.537557
0.519097
0.519097
0.403206
0.403206
0.403207
0.482232
0.551915
0.551914
0.50959
0.50959
0.50959
0.490588
0.485587
0.485586
0.513189
0.51319
0.496669
0.475338
0.475338
0.540123
0.540125
0.540123
0.533724
0.482728
0.463461
0.463458
0.463461
0.463458
0.48336
0.517065
0.554758
0.565228
0.56523
0.530875
0.531972
0.399904
0.399902
0.399905
0.422041
0.54789
0.54789
0.514087
0.510522
0.510521
0.510522
0.511683
0.534366
0.534366
0.505753
0.470074
0.470075
0.470073
0.470074
0.470073
0.477029
0.524149
0.504336
0.449925
0.439449
0.439451
0.465637
0.584576
0.584588
0.584578
0.584588
0.584583
0.584581
0.580543
0.388422
0.388423
0.388424
0.507807
0.527558
0.49467
0.499821
0.563386
0.563386
0.555288
0.521684
0.468731
0.394543
0.280883
0.146027
0.0570167
0.0831602
0.332435
0.716024
0.833656
0.809068
0.710635
0.595626
0.530117
0.490784
0.457088
0.457082
0.542797
0.542801
0.542793
0.542798
0.542789
0.542791
0.542782
0.36709
0.367085
0.367097
0.367077
0.397548
0.565512
0.567877
0.528357
0.511889
0.564213
0.564212
0.550789
0.54711
0.559406
0.538877
0.488813
0.486624
0.486623
0.486621
0.48662
0.486233
0.483707
0.478369
0.478369
0.505829
0.53769
0.539197
0.531944
0.540094
0.542716
0.517742
0.403937
0.412507
0.283249
0.28324
0.283257
0.283231
0.28326
0.356363
0.432548
0.438408
0.445815
0.490316
0.566498
0.635542
0.658756
0.631941
0.564836
0.488863
0.447552
0.445982
0.445984
0.445978
0.445984
0.445965
0.497962
0.538757
0.538759
0.534407
0.534404
0.5344
0.534409
0.534393
0.534399
0.53439
0.534393
0.389706
0.389713
0.389711
0.483149
0.51942
0.481306
0.439071
0.446093
0.550207
0.595845
0.590421
0.58539
0.585388
0.576307
0.53348
0.501932
0.501931
0.530927
0.525998
0.479166
0.401692
0.315351
0.236941
0.174231
0.17423
0.194359
0.537118
0.725696
0.721181
0.621488
0.589697
0.585955
0.466308
0.466297
0.376148
0.376148
0.420412
0.50406
0.528921
0.524103
0.484912
0.495371
0.581642
0.581626
0.581639
0.556456
0.520891
0.498582
0.487853
0.487853
0.489026
0.473849
0.468021
0.481008
0.533356
0.588689
0.563826
0.481802
0.425904
0.425897
0.480333
0.557323
0.557396
0.557335
0.557384
0.557335
0.55084
0.406765
0.40676
0.406764
0.422174
0.575713
0.534968
0.534961
0.535108
0.595205
0.590902
0.588446
0.588444
0.588442
0.52459
0.480035
0.479969
0.480035
0.479996
0.51234
0.518608
0.499352
0.491739
0.491738
0.491739
0.480191
0.488217
0.539892
0.557546
0.557494
0.557556
0.557504
0.557507
0.557485
0.401055
0.401039
0.403162
0.522221
0.53326
0.533268
0.559366
0.619521
0.600777
0.5271
0.526071
0.561296
0.561294
0.561291
0.500051
0.469527
0.469526
0.471618
0.468883
0.469413
0.511578
0.511591
0.511578
0.504272
0.504274
0.504276
0.469637
0.389139
0.426151
0.604956
0.884659
0.922986
0.92301
0.495344
0.491798
0.491798
0.504105
0.503654
0.501596
0.501596
0.501131
0.514727
0.514727
0.501063
0.495654
0.499845
0.491266
0.49082
0.490373
0.490374
0.513235
0.513234
0.502581
0.518003
0.506388
0.501706
0.508115
0.509963
0.507422
0.498705
0.486946
0.472116
0.523092
0.531419
0.500198
0.481007
0.474882
0.474707
0.513385
0.513386
0.493652
0.478896
0.496423
0.504446
0.504669
0.502539
0.502539
0.526899
0.530788
0.531376
0.531375
0.526881
0.525427
0.510808
0.508101
0.504379
0.479992
0.479262
0.477316
0.477316
0.477316
0.477316
0.477316
0.477316
0.478961
0.523266
0.511862
0.451773
0.423045
0.421008
0.420704
0.484438
0.528324
0.566033
0.57281
0.57281
0.52245
0.489887
0.489887
0.489849
0.48933
0.489319
0.489318
0.489319
0.495893
0.508271
0.508271
0.496034
0.479627
0.479626
0.508255
0.522932
0.480176
0.464986
0.464987
0.46544
0.46679
0.485817
0.523717
0.517676
0.517676
0.527841
0.52784
0.514354
0.406856
0.482081
0.48208
0.483188
0.49203
0.511404
0.532306
0.532306
0.532306
0.531653
0.499987
0.4766
0.476375
0.476376
0.476377
0.485418
0.536898
0.536898
0.499757
0.499757
0.499756
0.499756
0.508859
0.50886
0.500293
0.463462
0.463459
0.491747
0.564673
0.501846
0.40965
0.404218
0.404217
0.404214
0.525301
0.549733
0.549734
0.538849
0.515006
0.517597
0.52508
0.534368
0.534368
0.534368
0.534367
0.487572
0.470075
0.470075
0.480193
0.480194
0.470073
0.470073
0.47021
0.514342
0.504557
0.477731
0.469686
0.475632
0.511621
0.544548
0.516788
0.460342
0.460341
0.460342
0.474321
0.436961
0.388415
0.506857
0.540148
0.540147
0.527559
0.546266
0.572776
0.572777
0.513396
0.494863
0.480072
0.381661
0.217089
0.0995704
0.0570168
0.0570182
0.0582488
0.319654
0.706054
0.768249
0.645624
0.545062
0.541293
0.541292
0.523924
0.464112
0.456874
0.456873
0.456871
0.45687
0.459773
0.454995
0.454991
0.452056
0.36709
0.367097
0.367088
0.367102
0.391374
0.559483
0.567895
0.567877
0.567884
0.567877
0.528448
0.492043
0.492043
0.492042
0.492042
0.492888
0.517387
0.52617
0.526171
0.515155
0.479278
0.478371
0.478369
0.507088
0.507088
0.497376
0.454774
0.454773
0.454773
0.445259
0.408312
0.376196
0.354336
0.29055
0.345927
0.365447
0.398961
0.433258
0.466109
0.48196
0.503578
0.517169
0.491976
0.469679
0.479704
0.544369
0.557096
0.537245
0.53
0.496111
0.450733
0.445981
0.445984
0.445964
0.445985
0.445963
0.451651
0.498333
0.532655
0.5344
0.510636
0.4493
0.423913
0.423911
0.423913
0.423917
0.389707
0.389706
0.49177
0.543813
0.543814
0.526944
0.490948
0.507103
0.5426
0.547051
0.518738
0.495244
0.495243
0.528137
0.533431
0.508808
0.478437
0.436912
0.396542
0.396536
0.396533
0.394288
0.313838
0.210868
0.189622
0.336964
0.654577
0.725675
0.674304
0.483512
0.398822
0.398818
0.398817
0.449267
0.495754
0.50936
0.509363
0.484914
0.48492
0.484897
0.484919
0.4953
0.581626
0.581644
0.565028
0.497738
0.493737
0.535051
0.535051
0.535051
0.489028
0.468016
0.468025
0.467995
0.468029
0.468006
0.51472
0.462644
0.425901
0.443243
0.512317
0.557323
0.524615
0.424685
0.41648
0.416478
0.41648
0.406764
0.406767
0.406753
0.623333
0.626781
0.625136
0.625131
0.625127
0.625124
0.570864
0.549407
0.54869
0.521453
0.482245
0.480028
0.480035
0.480004
0.480036
0.49864
0.498658
0.498659
0.526485
0.526754
0.526748
0.526754
0.510086
0.469498
0.469492
0.481866
0.543169
0.515346
0.44781
0.404432
0.401055
0.437132
0.55513
0.560279
0.542275
0.587825
0.637045
0.637046
0.637045
0.569446
0.526068
0.533898
0.537363
0.485629
0.469527
0.469527
0.469519
0.468901
0.468887
0.506048
0.511595
0.489581
0.468929
0.46893
0.473692
0.473253
0.44034
0.440313
0.545743
0.658746
0.838385
0.92301
0.923033
0.505219
0.495962
0.494394
0.504105
0.502079
0.50632
0.501131
0.501132
0.495521
0.491485
0.500124
0.494758
0.499364
0.498222
0.49082
0.491049
0.496165
0.498297
0.502707
0.502066
0.508338
0.506387
0.512762
0.511702
0.509963
0.5138
0.5138
0.492101
0.51025
0.536017
0.536017
0.520969
0.531157
0.531157
0.470547
0.465228
0.460859
0.461803
0.470335
0.535982
0.54032
0.519526
0.503518
0.506831
0.52094
0.527835
0.524143
0.490277
0.491767
0.489374
0.490955
0.481897
0.481338
0.477316
0.477316
0.477316
0.477316
0.477316
0.477372
0.49894
0.537672
0.540516
0.542459
0.542459
0.54225
0.545266
0.542424
0.42131
0.42199
0.421989
0.427967
0.513159
0.541724
0.536351
0.537935
0.537934
0.531837
0.493561
0.489318
0.489319
0.521305
0.521306
0.502606
0.481135
0.481135
0.479627
0.483222
0.504078
0.523939
0.523939
0.498372
0.466093
0.489215
0.52174
0.523717