/*--------------------------------*- C++ -*----------------------------------*\
  =========                 |
  \\      /  F ield         | OpenFOAM: The Open Source CFD Toolbox
   \\    /   O peration     | Website:  https://openfoam.org
    \\  /    A nd           | Version:  7
     \\/     M anipulation  |
\*---------------------------------------------------------------------------*/
FoamFile
{
    version     2.0;
    format      ascii;
    class       volScalarField;
    location    "6000";
    object      epss;
}
// * * * * * * * * * * * * * * * * * * * * * * * * * * * * * * * * * * * * * //

dimensions      [0 0 0 0 0 0 0];

internalField   nonuniform List<scalar> 
160000
(
0.55074
0.517011
0.541251
0.502179
0.471258
0.543997
0.479474
0.55409
0.523481
0.4522
0.482381
0.521814
0.459104
0.467161
0.572407
0.532787
0.565149
0.558588
0.484346
0.492272
0.508084
0.525664
0.502868
0.465283
0.488161
0.456261
0.453718
0.501098
0.482625
0.539479
0.541882
0.494017
0.416159
0.487999
0.504954
0.478001
0.465783
0.429186
0.554236
0.504937
0.50494
0.505886
0.476482
0.535509
0.472658
0.475379
0.493857
0.548599
0.486621
0.538625
0.499351
0.420754
0.465251
0.494389
0.434475
0.537511
0.438422
0.560223
0.5765
0.532617
0.389191
0.513604
0.519893
0.544452
0.569556
0.439324
0.48007
0.459734
0.592117
0.651304
0.444378
0.554907
0.459727
0.529251
0.479705
0.501785
0.471293
0.512053
0.445836
0.497463
0.435602
0.409955
0.477447
0.504128
0.507883
0.520964
0.523011
0.564645
0.521557
0.475767
0.564917
0.444754
0.425877
0.446044
0.486777
0.556009
0.499168
0.527426
0.523904
0.564466
0.508408
0.593435
0.464238
0.525504
0.572535
0.490991
0.57937
0.492847
0.472782
0.473317
0.450109
0.551418
0.44569
0.515912
0.532515
0.501719
0.549682
0.510758
0.446901
0.481563
0.509148
0.542787
0.484112
0.464244
0.439952
0.39409
0.431429
0.516455
0.489663
0.486498
0.522188
0.542467
0.479093
0.408993
0.466702
0.488907
0.537311
0.508199
0.55199
0.586312
0.482
0.458582
0.61081
0.484607
0.417553
0.485938
0.478562
0.485539
0.502255
0.551005
0.574019
0.524093
0.566743
0.482428
0.583659
0.498987
0.494881
0.433566
0.477439
0.467306
0.527441
0.508636
0.535549
0.45832
0.577404
0.479146
0.483522
0.541177
0.510104
0.544319
0.434031
0.408278
0.50167
0.405478
0.469027
0.536271
0.502701
0.490647
0.41193
0.431282
0.571487
0.453092
0.542544
0.575498
0.564836
0.552888
0.534172
0.546549
0.580258
0.515581
0.497512
0.539433
0.518508
0.461878
0.438575
0.588501
0.512688
0.365729
0.321926
0.364499
0.423771
0.484197
0.53079
0.551411
0.522438
0.459499
0.454004
0.493848
0.52125
0.52652
0.518177
0.522005
0.538599
0.53385
0.514379
0.526231
0.53755
0.475899
0.392355
0.372169
0.401364
0.482807
0.600632
0.619138
0.593984
0.554919
0.497946
0.582289
0.491714
0.524203
0.624866
0.5317
0.559132
0.499852
0.503793
0.486115
0.551123
0.500858
0.563077
0.510825
0.544018
0.570097
0.527841
0.54969
0.507361
0.519069
0.486764
0.486861
0.367342
0.376919
0.41686
0.478118
0.544425
0.582782
0.579033
0.529722
0.543705
0.593602
0.512693
0.344161
0.313634
0.432958
0.542648
0.606584
0.569265
0.479908
0.487044
0.588973
0.525015
0.395079
0.498639
0.54492
0.507059
0.528582
0.577517
0.599727
0.521367
0.405923
0.474402
0.513312
0.555724
0.542217
0.516496
0.485608
0.481762
0.490347
0.46518
0.520271
0.507103
0.482922
0.500401
0.614107
0.542551
0.507041
0.494065
0.482284
0.46978
0.601738
0.498405
0.536564
0.423821
0.299691
0.286179
0.330359
0.393385
0.453435
0.494224
0.518563
0.534166
0.533586
0.529012
0.551483
0.55221
0.486366
0.427566
0.386887
0.407584
0.512425
0.59161
0.582005
0.60342
0.597335
0.585793
0.454043
0.371243
0.370402
0.404389
0.426397
0.441468
0.469712
0.503224
0.500463
0.498435
0.508366
0.50754
0.513906
0.527694
0.493951
0.413097
0.451736
0.567747
0.568172
0.534703
0.540646
0.458081
0.489628
0.473109
0.416483
0.408279
0.435575
0.478961
0.534087
0.532943
0.528038
0.495571
0.48958
0.482533
0.479704
0.488973
0.536518
0.564482
0.564545
0.527145
0.539616
0.466385
0.441546
0.481057
0.390342
0.388706
0.470241
0.511789
0.49358
0.488457
0.413232
0.508092
0.452002
0.528662
0.534125
0.562746
0.546067
0.523088
0.533798
0.542629
0.487364
0.471356
0.469715
0.452318
0.462774
0.502446
0.520888
0.494639
0.523627
0.481491
0.510462
0.561215
0.438513
0.486418
0.600371
0.407363
0.459149
0.423205
0.570896
0.513981
0.549986
0.563799
0.535429
0.484698
0.515607
0.510381
0.49532
0.480948
0.530443
0.512879
0.49302
0.452641
0.545562
0.537851
0.418267
0.431567
0.475945
0.530597
0.511797
0.468411
0.474926
0.566907
0.51061
0.407878
0.430037
0.496924
0.455923
0.486592
0.525863
0.501388
0.529444
0.559672
0.466408
0.437563
0.639573
0.478277
0.428547
0.500628
0.539327
0.481105
0.559129
0.471575
0.430637
0.504334
0.561688
0.491176
0.445323
0.521748
0.495212
0.516405
0.412293
0.579769
0.493534
0.472874
0.543234
0.520197
0.516092
0.506728
0.48792
0.542881
0.549674
0.498453
0.517004
0.559571
0.453274
0.455969
0.416972
0.432801
0.482732
0.563744
0.516502
0.519143
0.479371
0.521796
0.521238
0.52235
0.453571
0.472575
0.498633
0.495418
0.48903
0.405742
0.419459
0.539139
0.52185
0.505208
0.467003
0.446789
0.474326
0.415207
0.458534
0.532777
0.484482
0.502471
0.482064
0.498135
0.544933
0.478096
0.511685
0.552628
0.420542
0.487251
0.538759
0.463611
0.44302
0.480136
0.470712
0.495784
0.560867
0.53744
0.540183
0.517742
0.507134
0.504497
0.484731
0.466105
0.417712
0.43383
0.499351
0.503865
0.503845
0.508705
0.494177
0.503757
0.526153
0.495124
0.521878
0.54656
0.58223
0.424061
0.402692
0.469375
0.535161
0.417735
0.524945
0.568064
0.531542
0.482755
0.456391
0.475581
0.455684
0.462242
0.535707
0.489534
0.515078
0.534797
0.556818
0.442918
0.564877
0.552425
0.508432
0.501477
0.466266
0.514684
0.475959
0.534196
0.479752
0.489326
0.467348
0.500446
0.520549
0.530518
0.479192
0.444154
0.510257
0.487198
0.498915
0.496305
0.513699
0.556383
0.431758
0.49455
0.484519
0.479629
0.507821
0.485399
0.512842
0.526179
0.497537
0.553335
0.600932
0.495829
0.514957
0.513203
0.573796
0.513074
0.417334
0.410707
0.467999
0.494799
0.473685
0.461929
0.435345
0.362252
0.328403
0.349152
0.388656
0.440406
0.483607
0.507224
0.495493
0.456463
0.432121
0.445783
0.481048
0.50997
0.518728
0.529106
0.547683
0.552918
0.541977
0.541134
0.54776
0.533284
0.502083
0.491232
0.508565
0.537573
0.582399
0.603146
0.585376
0.545043
0.515423
0.495972
0.536526
0.492754
0.505548
0.503186
0.48729
0.409092
0.427991
0.541298
0.538614
0.506223
0.502482
0.555034
0.537412
0.569757
0.57008
0.48734
0.489134
0.565671
0.45754
0.415844
0.332511
0.314993
0.364837
0.416335
0.467298
0.493646
0.515961
0.532012
0.53922
0.551125
0.523239
0.439575
0.395199
0.44999
0.528897
0.563561
0.543127
0.492027
0.487123
0.569382
0.552181
0.429529
0.414111
0.505201
0.51723
0.5032
0.554242
0.581052
0.54864
0.465951
0.434325
0.495929
0.535654
0.527272
0.50349
0.466909
0.433446
0.449128
0.499145
0.545721
0.572137
0.566378
0.558493
0.581355
0.546983
0.498018
0.496038
0.589118
0.5083
0.466893
0.506436
0.485071
0.324717
0.255627
0.296809
0.350742
0.422927
0.479461
0.518877
0.542491
0.551785
0.554237
0.551827
0.548469
0.541048
0.510306
0.466503
0.447015
0.474793
0.539343
0.592784
0.59204
0.576131
0.579762
0.56199
0.457225
0.326372
0.320932
0.382147
0.432452
0.448644
0.464565
0.497954
0.514812
0.511988
0.517574
0.516193
0.508637
0.520099
0.524442
0.502082
0.504253
0.540435
0.546234
0.50679
0.503302
0.497581
0.474233
0.456727
0.45352
0.460384
0.480005
0.50575
0.544519
0.565836
0.55462
0.515687
0.512852
0.541745
0.549904
0.539785
0.538508
0.54322
0.546027
0.531987
0.524123
0.501008
0.434053
0.435908
0.446677
0.442751
0.509165
0.563588
0.561217
0.56973
0.549645
0.555849
0.528695
0.556005
0.533191
0.503441
0.552332
0.519504
0.464052
0.58684
0.449732
0.504733
0.576952
0.486197
0.521718
0.551315
0.514325
0.463586
0.537346
0.49428
0.459463
0.523666
0.546975
0.44658
0.586202
0.507842
0.572061
0.472348
0.593189
0.609935
0.482369
0.577714
0.454827
0.58653
0.512945
0.462043
0.553152
0.461486
0.41404
0.474665
0.522691
0.454854
0.403398
0.477505
0.408968
0.453701
0.526025
0.464186
0.510094
0.494558
0.539216
0.565371
0.553481
0.522322
0.504558
0.491932
0.411614
0.499526
0.517766
0.482705
0.483886
0.47914
0.565726
0.525001
0.500393
0.539332
0.538647
0.518162
0.49517
0.499499
0.501321
0.506956
0.414309
0.536479
0.562196
0.55303
0.479135
0.419636
0.501644
0.550772
0.544634
0.511378
0.48847
0.477305
0.424035
0.443415
0.415729
0.528767
0.530718
0.508025
0.467642
0.559781
0.537234
0.468994
0.554101
0.569597
0.596303
0.524562
0.584303
0.47679
0.503688
0.589362
0.54973
0.501999
0.49816
0.462943
0.431358
0.494373
0.464345
0.451823
0.465383
0.536418
0.488639
0.517627
0.462585
0.468125
0.54161
0.55246
0.483557
0.538994
0.572099
0.524875
0.59017
0.597477
0.536702
0.515676
0.510718
0.539161
0.536899
0.482885
0.527261
0.48995
0.458887
0.496463
0.513868
0.547577
0.501301
0.469325
0.511877
0.506553
0.536314
0.560118
0.507844
0.522119
0.506798
0.490663
0.502111
0.52239
0.550173
0.542486
0.52427
0.538164
0.547575
0.546444
0.5515
0.518623
0.51963
0.550444
0.515633
0.456732
0.455011
0.494789
0.501001
0.514147
0.491511
0.489214
0.526999
0.519302
0.456582
0.407785
0.47541
0.474852
0.45249
0.503512
0.508199
0.502777
0.516396
0.528692
0.488146
0.528657
0.501442
0.422371
0.445012
0.540106
0.494909
0.507741
0.528285
0.538657
0.558049
0.496614
0.501424
0.503811
0.508605
0.505658
0.505961
0.514351
0.4721
0.442597
0.46007
0.466222
0.495395
0.547568
0.590809
0.510748
0.453727
0.472757
0.525568
0.521167
0.546369
0.578157
0.552604
0.514926
0.530394
0.518134
0.510317
0.461516
0.390605
0.358812
0.424548
0.467816
0.479692
0.472921
0.457692
0.443071
0.425266
0.410817
0.420117
0.451541
0.487159
0.506827
0.502118
0.488906
0.486395
0.494267
0.510482
0.525051
0.530111
0.542412
0.562903
0.569177
0.558599
0.554528
0.558994
0.552392
0.538144
0.543107
0.569392
0.579159
0.548868
0.515347
0.507785
0.51073
0.517231
0.525912
0.543012
0.523996
0.487378
0.517817
0.535335
0.493474
0.484063
0.542823
0.527752
0.506943
0.552459
0.571342
0.545015
0.488078
0.473777
0.501998
0.491097
0.520431
0.481125
0.439149
0.325581
0.308845
0.369905
0.437935
0.503696
0.519462
0.522791
0.536131
0.550489
0.556111
0.549587
0.524556
0.500331
0.508986
0.538733
0.543745
0.52118
0.499099
0.497263
0.518943
0.526737
0.492346
0.479027
0.524626
0.546477
0.515075
0.493809
0.50662
0.513512
0.502143
0.463275
0.459807
0.491016
0.497666
0.482461
0.468692
0.480526
0.51832
0.55816
0.563542
0.555064
0.553041
0.544756
0.53516
0.531313
0.537489
0.548651
0.527801
0.449485
0.339052
0.384204
0.447376
0.345411
0.299844
0.332354
0.39705
0.470119
0.506834
0.515845
0.514893
0.518894
0.532998
0.546608
0.54347
0.529291
0.518964
0.512276
0.511101
0.531237
0.568812
0.579232
0.548468
0.521782
0.526026
0.513816
0.449468
0.376245
0.366869
0.413822
0.481788
0.515394
0.52418
0.532284
0.537313
0.525864
0.514606
0.528227
0.546834
0.556038
0.55915
0.54349
0.517924
0.51102
0.516073
0.517816
0.519653
0.502539
0.474737
0.472061
0.474831
0.467044
0.481206
0.533282
0.574286
0.561868
0.525861
0.489048
0.483659
0.527563
0.553341
0.531001
0.509105
0.536031
0.582809
0.575308
0.526076
0.479987
0.461245
0.469112
0.529324
0.539128
0.52084
0.548135
0.547863
0.505785
0.475123
0.477087
0.484993
0.493882
0.514453
0.530984
0.56827
0.572024
0.524423
0.557217
0.538876
0.500468
0.48255
0.528221
0.558933
0.50263
0.4888
0.481314
0.514004
0.555797
0.476346
0.475931
0.506382
0.478222
0.509706
0.577633
0.497081
0.50409
0.543391
0.440091
0.448531
0.437727
0.428363
0.422033
0.430283
0.469637
0.426244
0.47414
0.445821
0.526025
0.515602
0.505918
0.525845
0.420236
0.475977
0.444758
0.463905
0.484689
0.481289
0.540087
0.424
0.548247
0.487272
0.423054
0.557023
0.522075
0.47562
0.539053
0.630496
0.563576
0.534712
0.490932
0.466131
0.45457
0.479925
0.4745
0.59515
0.511021
0.419529
0.423496
0.474019
0.494653
0.486718
0.46633
0.499843
0.499236
0.527812
0.509053
0.526628
0.436676
0.481243
0.581696
0.483186
0.5078
0.540543
0.548179
0.511882
0.516278
0.471523
0.494134
0.447253
0.520626
0.541304
0.519916
0.500241
0.506093
0.512409
0.47596
0.48287
0.588175
0.570124
0.529493
0.463025
0.421932
0.472238
0.538836
0.476261
0.53054
0.583105
0.454128
0.481573
0.511499
0.515515
0.436676
0.43655
0.444088
0.443833
0.494008
0.449327
0.531249
0.476415
0.507958
0.522729
0.531367
0.480303
0.562388
0.551335
0.491692
0.442899
0.507713
0.485426
0.468301
0.48501
0.452334
0.448886
0.484261
0.504148
0.494611
0.498351
0.521773
0.473317
0.509934
0.542941
0.522862
0.493012
0.47941
0.453135
0.474916
0.527512
0.531557
0.524695
0.519118
0.56323
0.491071
0.470757
0.480901
0.525097
0.533407
0.516239
0.515153
0.485253
0.503059
0.489617
0.495199
0.527784
0.495151
0.503086
0.520549
0.5068
0.49639
0.558124
0.507568
0.46776
0.45651
0.449202
0.497839
0.534703
0.534438
0.472225
0.514936
0.518245
0.549438
0.540043
0.513522
0.502453
0.454088
0.47787
0.526367
0.495243
0.490636
0.483394
0.478498
0.501016
0.54054
0.516143
0.477864
0.438597
0.405002
0.398243
0.455049
0.512886
0.494238
0.47291
0.4951
0.4874
0.491464
0.536709
0.544093
0.507233
0.519988
0.595624
0.583494
0.511337
0.498663
0.492327
0.471213
0.392399
0.393942
0.430678
0.450421
0.477849
0.478114
0.479621
0.495011
0.504278
0.492932
0.470276
0.453484
0.463664
0.49428
0.515395
0.510877
0.493378
0.485482
0.495354
0.511789
0.519839
0.525147
0.536822
0.541335
0.526256
0.511059
0.516224
0.532509
0.54731
0.561727
0.574065
0.574735
0.551638
0.509496
0.471331
0.460346
0.479164
0.508189
0.531738
0.553289
0.561287
0.558786
0.552661
0.539851
0.553933
0.590514
0.584038
0.559977
0.546964
0.529744
0.522359
0.544442
0.549762
0.556427
0.561679
0.517089
0.493089
0.436284
0.358901
0.336071
0.376003
0.442434
0.518648
0.54205
0.539755
0.542207
0.550045
0.545144
0.526949
0.50699
0.496187
0.505696
0.534304
0.552128
0.534682
0.49865
0.474657
0.482274
0.510782
0.524599
0.506291
0.490875
0.47647
0.454983
0.45942
0.516709
0.575752
0.569827
0.514588
0.476514
0.470714
0.481936
0.498932
0.516834
0.533642
0.541555
0.537305
0.535272
0.5523
0.56634
0.550683
0.51892
0.517272
0.54938
0.56055
0.519388
0.423535
0.332351
0.341685
0.399576
0.426796
0.418881
0.417722
0.45749
0.495912
0.504947
0.49445
0.485876
0.491449
0.505812
0.519147
0.524433
0.521091
0.519343
0.521278
0.517457
0.514426
0.527432
0.546448
0.5581
0.565031
0.548946
0.502677
0.458682
0.440362
0.45069
0.478533
0.524537
0.548975
0.550882
0.540333
0.52701
0.523411
0.528487
0.530259
0.524341
0.508816
0.483935
0.467264
0.457636
0.445584
0.452847
0.491398
0.526406
0.537253
0.528519
0.497872
0.464861
0.466933
0.510329
0.551898
0.572277
0.577821
0.57111
0.563516
0.55289
0.535926
0.533812
0.530824
0.530311
0.524138
0.508065
0.493102
0.503531
0.511939
0.515191
0.518001
0.506153
0.545884
0.559373
0.539842
0.536515
0.511823
0.499856
0.518944
0.513747
0.517425
0.516997
0.518645
0.568571
0.603913
0.5519
0.5007
0.516853
0.589054
0.475091
0.44289
0.496235
0.547025
0.529505
0.495492
0.546969
0.488156
0.524129
0.566764
0.582792
0.517647
0.538541
0.551915
0.561196
0.527548
0.494804
0.474332
0.466762
0.452423
0.429289
0.492871
0.506745
0.513215
0.559125
0.478441
0.498871
0.556843
0.546634
0.64221
0.443865
0.402926
0.528571
0.565628
0.461479
0.466171
0.425517
0.411737
0.518013
0.540709
0.580194
0.53541
0.53678
0.588683
0.480182
0.444165
0.507752
0.470011
0.493981
0.557312
0.501546
0.453265
0.501057
0.578921
0.531215
0.486919
0.42885
0.469052
0.512988
0.457995
0.522754
0.54944
0.533064
0.49883
0.523881
0.457758
0.411084
0.490383
0.484726
0.488693
0.513479
0.539774
0.501774
0.493555
0.539202
0.493848
0.503045
0.550892
0.524208
0.525753
0.523979
0.563192
0.534154
0.467766
0.484372
0.482314
0.515523
0.496871
0.545541
0.534223
0.478198
0.491192
0.453224
0.454672
0.512527
0.499172
0.483001
0.441235
0.548881
0.522728
0.504118
0.51247
0.480783
0.464176
0.504006
0.502459
0.504858
0.50738
0.525327
0.531332
0.506821
0.515813
0.525179
0.485519
0.500215
0.536698
0.53241
0.459938
0.449718
0.505433
0.544615
0.468086
0.468681
0.444978
0.465044
0.504162
0.498865
0.506352
0.528279
0.505243
0.441887
0.424468
0.48459
0.564357
0.517009
0.448998
0.493904
0.515778
0.497871
0.516475
0.509503
0.490239
0.456117
0.500983
0.547787
0.540056
0.518525
0.513884
0.519292
0.47573
0.476762
0.492273
0.514644
0.515997
0.537763
0.506437
0.461846
0.465108
0.474779
0.485503
0.473045
0.509395
0.485443
0.479898
0.526276
0.53066
0.503188
0.514786
0.523617
0.505827
0.483584
0.469035
0.468784
0.461674
0.486484
0.548262
0.552666
0.493743
0.467157
0.464875
0.478033
0.531919
0.561409
0.506673
0.437204
0.441234
0.461128
0.469614
0.507457
0.50522
0.514065
0.522174
0.492976
0.499333
0.510668
0.515888
0.518863
0.509507
0.490678
0.49888
0.537497
0.563148
0.556151
0.439806
0.374919
0.392745
0.425626
0.461895
0.501359
0.505797
0.509828
0.528389
0.550428
0.550401
0.520097
0.479717
0.454471
0.455172
0.474129
0.48842
0.485446
0.475833
0.478513
0.499205
0.520721
0.525043
0.513231
0.492664
0.469308
0.45781
0.472429
0.505819
0.53651
0.548124
0.540979
0.527621
0.51381
0.502153
0.498828
0.495609
0.486442
0.496171
0.530149
0.554297
0.55332
0.542624
0.536865
0.537074
0.533327
0.553054
0.573069
0.544196
0.514107
0.524376
0.547555
0.5604
0.547499
0.497282
0.466517
0.470984
0.463896
0.423136
0.374525
0.368524
0.388495
0.433047
0.50391
0.543537
0.552796
0.546827
0.53966
0.532319
0.522189
0.511924
0.506198
0.507488
0.519897
0.54214
0.557394
0.5542
0.53581
0.516591
0.509615
0.502491
0.470595
0.428774
0.422466
0.457516
0.497533
0.537656
0.563164
0.541781
0.490656
0.456107
0.452989
0.472654
0.506636
0.537526
0.551844
0.549834
0.54847
0.557624
0.557517
0.531068
0.501446
0.504146
0.53309
0.56213
0.571102
0.536063
0.445866
0.35982
0.350032
0.388423
0.428933
0.46751
0.487041
0.501905
0.504043
0.489725
0.471491
0.466037
0.479094
0.506192
0.536034
0.552013
0.543432
0.517568
0.488582
0.459881
0.437002
0.439127
0.469533
0.499209
0.505902
0.494363
0.473622
0.448163
0.43014
0.435434
0.464155
0.509178
0.543629
0.55038
0.532342
0.507276
0.492472
0.502898
0.529865
0.541187
0.521596
0.499184
0.50108
0.509848
0.497826
0.480737
0.492724
0.520514
0.520687
0.490863
0.468141
0.473594
0.508477
0.55019
0.567793
0.56839
0.570218
0.569494
0.544816
0.515362
0.510137
0.522143
0.538469
0.536202
0.51971
0.511671
0.516588
0.514807
0.516788
0.519697
0.513372
0.502965
0.48682
0.477382
0.485414
0.505071
0.506444
0.525112
0.528831
0.516246
0.514533
0.555099
0.611831
0.590582
0.525123
0.545036
0.529166
0.492083
0.486456
0.497524
0.464113
0.479
0.560207
0.557608
0.50551
0.448485
0.484092
0.518567
0.502206
0.508801
0.488806
0.563416
0.605444
0.52049
0.517954
0.508293
0.644717
0.491693
0.567863
0.56836
0.438421
0.479925
0.52914
0.485236
0.565256
0.551046
0.61101
0.530497
0.47517
0.53733
0.439153
0.453504
0.441636
0.415288
0.531206
0.51976
0.493181
0.446007
0.456003
0.446156
0.519966
0.582518
0.532201
0.533149
0.605436
0.528773
0.553511
0.421795
0.509737
0.506468
0.494358
0.488658
0.467034
0.531528
0.525079
0.486147
0.451932
0.457304
0.497707
0.493897
0.542849
0.532502
0.49754
0.49947
0.514432
0.505732
0.475053
0.415556
0.473666
0.534932
0.488171
0.484751
0.523853
0.489617
0.480429
0.511753
0.533743
0.510093
0.532217
0.545196
0.486385
0.527837
0.480992
0.42265
0.468974
0.503467
0.465623
0.438992
0.471479
0.442232
0.456636
0.51405
0.488835
0.436668
0.48338
0.517496
0.538781
0.528476
0.486222
0.488433
0.517361
0.506161
0.469178
0.45972
0.456643
0.421534
0.450591
0.500646
0.533094
0.477949
0.454422
0.513215
0.528903
0.529549
0.584393
0.559855
0.530516
0.569024
0.537883
0.508243
0.465578
0.464069
0.509953
0.530452
0.537547
0.486953
0.452333
0.468417
0.522914
0.556909
0.536496
0.500945
0.527307
0.557165
0.555131
0.519931
0.456267
0.467401
0.474945
0.450505
0.475698
0.443513
0.462424
0.482166
0.47689
0.491332
0.500929
0.495512
0.473595
0.469654
0.518558
0.53944
0.503546
0.471226
0.507936
0.504978
0.503184
0.499019
0.509303
0.500138
0.465461
0.471757
0.511798
0.506549
0.469629
0.466316
0.495171
0.532545
0.525417
0.508187
0.485587
0.501656
0.500771
0.528684
0.528515
0.498388
0.47956
0.445953
0.444134
0.466443
0.49737
0.492522
0.499723
0.505697
0.506563
0.530043
0.549575
0.541823
0.551474
0.540538
0.485461
0.470578
0.497811
0.519317
0.499667
0.498769
0.479998
0.452437
0.480043
0.528005
0.540324
0.512666
0.410425
0.357363
0.394982
0.426257
0.47751
0.511641
0.50828
0.499836
0.500318
0.511528
0.524054
0.522442
0.501159
0.473504
0.456778
0.458242
0.473084
0.486457
0.487569
0.481348
0.481986
0.49677
0.512095
0.51212
0.501185
0.488445
0.480215
0.482297
0.495471
0.51212
0.522248
0.520261
0.509813
0.504035
0.516461
0.544388
0.567217
0.563833
0.533443
0.506729
0.515123
0.53939
0.546732
0.534266
0.519818
0.528981
0.567175
0.585069
0.545104
0.49874
0.505702
0.540885
0.553018
0.53485
0.500212
0.481287
0.496577
0.491535
0.448165
0.413183
0.402255
0.405421
0.43561
0.483049
0.521611
0.544817
0.546984
0.534127
0.518707
0.510549
0.511959
0.519389
0.528838
0.53909
0.547007
0.540529
0.515591
0.492793
0.492208
0.502461
0.491166
0.448429
0.405744
0.404911
0.450225
0.502351
0.538116
0.548164
0.535178
0.499603
0.459969
0.445062
0.460899
0.494332
0.52321
0.525368
0.509397
0.49482
0.492432
0.498357
0.5061
0.515332
0.522877
0.524009
0.524124
0.528439
0.517638
0.461916
0.39196
0.379173
0.409093
0.452999
0.496548
0.514085
0.527715
0.533467
0.521845
0.499129
0.482441
0.482401
0.496955
0.517814
0.534096
0.53175
0.505594
0.470309
0.443929
0.429898
0.430625
0.457226
0.506411
0.548549
0.557018
0.535684
0.509046
0.496614
0.501514
0.518003
0.537901
0.547926
0.539315
0.516289
0.500496
0.502632
0.510624
0.520869
0.541173
0.55546
0.542335
0.516474
0.504051
0.501741
0.499686
0.506767
0.524643
0.530493
0.514971
0.507483
0.515188
0.510465
0.498071
0.508234
0.533995
0.542289
0.522819
0.499799
0.495594
0.491467
0.475486
0.480677
0.50574
0.520777
0.519167
0.511303
0.516286
0.532079
0.535704
0.513851
0.501195
0.491412
0.479804
0.497705
0.538166
0.568676
0.540223
0.485302
0.468802
0.50385
0.505873
0.504185
0.516493
0.510218
0.482501
0.528522
0.544272
0.518876
0.502701
0.525877
0.592702
0.56476
0.580615
0.628041
0.560982
0.508678
0.520361
0.490588
0.481544
0.533284
0.505639
0.571053
0.538478
0.421686
0.426292
0.491218
0.549976
0.526372
0.530517
0.529594
0.504339
0.472147
0.455637
0.378373
0.456258
0.477465
0.520444
0.50681
0.54219
0.473783
0.445145
0.472678
0.5138
0.509344
0.545551
0.504626
0.530132
0.429163
0.389635
0.503665
0.538696
0.524842
0.454177
0.453084
0.521145
0.473928
0.51607
0.45033
0.476445
0.48391
0.556706
0.509018
0.522179
0.440156
0.449
0.458395
0.523773
0.498445
0.445553
0.45946
0.525283
0.521321
0.488966
0.534751
0.549009
0.511976
0.514822
0.463216
0.452964
0.51884
0.482342
0.468607
0.512135
0.511876
0.484633
0.524583
0.531229
0.546044
0.557232
0.508639
0.45224
0.47159
0.557027
0.518067
0.453831
0.481301
0.525145
0.545887
0.491207
0.441195
0.451913
0.476277
0.467892
0.495073
0.496364
0.485512
0.517018
0.524125
0.523748
0.552532
0.541542
0.458999
0.483503
0.496405
0.5
0.501943
0.495915
0.496222
0.527124
0.479678
0.459529
0.50014
0.553611
0.55977
0.464829
0.449947
0.533303
0.539682
0.476247
0.459348
0.444865
0.46985
0.479488
0.480493
0.524128
0.521684
0.465717
0.511151
0.566014
0.533708
0.482536
0.473797
0.511711
0.554485
0.518782
0.448964
0.435717
0.436529
0.47042
0.501851
0.509966
0.468374
0.468055
0.494998
0.472407
0.468209
0.499776
0.52554
0.537927
0.534134
0.527755
0.509727
0.459194
0.44981
0.451991
0.48914
0.526706
0.53276
0.534239
0.504416
0.479517
0.463939
0.464182
0.468742
0.495584
0.527593
0.532043
0.497198
0.456314
0.493876
0.498291
0.497161
0.531085
0.56345
0.552509
0.498
0.462157
0.425842
0.418897
0.481442
0.541282
0.522779
0.499477
0.497117
0.50258
0.504589
0.515936
0.502532
0.488968
0.517051
0.5098
0.470865
0.475736
0.493018
0.489106
0.483772
0.47956
0.478811
0.5167
0.540977
0.512468
0.40346
0.365132
0.412519
0.443164
0.497415
0.522088
0.523603
0.522625
0.515773
0.498413
0.479965
0.474602
0.47977
0.481055
0.474516
0.471543
0.482724
0.503148
0.516495
0.511214
0.488511
0.460554
0.450712
0.471471
0.500006
0.508929
0.500168
0.495686
0.504721
0.512653
0.511727
0.513655
0.520908
0.520214
0.512995
0.516881
0.531023
0.536019
0.528754
0.51851
0.506613
0.497902
0.498894
0.515487
0.54232
0.561805
0.568485
0.567401
0.547812
0.513758
0.495134
0.498305
0.500412
0.483335
0.449008
0.427651
0.440115
0.460618
0.460913
0.444884
0.426699
0.424898
0.447869
0.484597
0.523078
0.550511
0.560673
0.557239
0.548383
0.540382
0.532981
0.521875
0.507183
0.495846
0.492968
0.494315
0.493989
0.496189
0.505862
0.510723
0.494292
0.463301
0.442389
0.450118
0.481692
0.51608
0.537349
0.543064
0.543387
0.536144
0.512607
0.480927
0.462838
0.466786
0.482507
0.494833
0.50392
0.516615
0.527421
0.528893
0.525896
0.528676
0.53735
0.54247
0.537889
0.528647
0.517114
0.482063
0.423059
0.393723
0.407784
0.455531
0.513628
0.529722
0.523976
0.512831
0.500743
0.493324
0.498029
0.50991
0.515833
0.512792
0.509737
0.509922
0.502464
0.483635
0.472131
0.483446
0.506905
0.524933
0.5337
0.534618
0.525628
0.512357
0.507637
0.509038
0.505676
0.497233
0.491761
0.494908
0.503336
0.507182
0.500441
0.485525
0.469939
0.462747
0.469317
0.487832
0.506393
0.514863
0.517089
0.515689
0.503932
0.4906
0.500171
0.52608
0.530715
0.512298
0.507046
0.522979
0.536695
0.539011
0.542945
0.555878
0.562971
0.542803
0.503062
0.484462
0.503838
0.527582
0.536442
0.53599
0.523618
0.514234
0.521795
0.5269
0.514455
0.504262
0.500767
0.506657
0.498793
0.476172
0.474567
0.497005
0.507693
0.517307
0.536854
0.53886
0.527958
0.521602
0.518012
0.540734
0.579725
0.567202
0.516412
0.487307
0.496794
0.542701
0.566964
0.549166
0.499651
0.54771
0.560454
0.491694
0.441493
0.466089
0.49681
0.529676
0.49989
0.548983
0.557484
0.589465
0.502917
0.515513
0.477683
0.565503
0.450743
0.552806
0.497115
0.577071
0.469117
0.473113
0.508931
0.490763
0.449938
0.467345
0.530237
0.540643
0.616265
0.480871
0.522892
0.507474
0.561787
0.449383
0.467571
0.530203
0.578866
0.49976
0.525639
0.489489
0.510312
0.502446
0.469217
0.388123
0.49664
0.489537
0.466707
0.504964
0.534832
0.505501
0.464473
0.493754
0.519042
0.534996
0.555225
0.50485
0.520631
0.49946
0.46558
0.468185
0.475019
0.434506
0.470746
0.459261
0.459673
0.443929
0.487376
0.492463
0.479875
0.500177
0.533916
0.511902
0.535614
0.498919
0.506837
0.491917
0.461211
0.489192
0.483091
0.462744
0.490665
0.509457
0.482936
0.445998
0.449965
0.492302
0.497771
0.460227
0.448547
0.518004
0.556192
0.542807
0.506104
0.499893
0.539226
0.519763
0.500896
0.501172
0.492999
0.473656
0.508315
0.508538
0.524131
0.489967
0.468105
0.520652
0.561087
0.542737
0.511137
0.491072
0.488366
0.477125
0.483719
0.505001
0.480588
0.456175
0.476069
0.520872
0.530901
0.519818
0.545253
0.54039
0.511829
0.507018
0.472443
0.458819
0.499593
0.528853
0.570394
0.582235
0.560562
0.532432
0.500329
0.466252
0.468571
0.508008
0.504737
0.503584
0.519362
0.483853
0.442822
0.498042
0.567599
0.544861
0.470449
0.442799
0.502392
0.568129
0.549307
0.475692
0.437303
0.455829
0.479724
0.476581
0.516232
0.544678
0.517854
0.488387
0.498998
0.496658
0.463584
0.474408
0.530528
0.553035
0.512216
0.49568
0.504521
0.512056
0.510946
0.471277
0.478182
0.542447
0.56476
0.54459
0.518406
0.492669
0.458784
0.473982
0.530621
0.537575
0.483343
0.475838
0.505117
0.503741
0.455545
0.447281
0.504705
0.538498
0.49366
0.463593
0.497056
0.551289
0.549262
0.515993
0.504255
0.532415
0.545156
0.525539
0.467526
0.38919
0.364315
0.397021
0.443753
0.512122
0.533428
0.523348
0.515716
0.522606
0.530484
0.521356
0.498048
0.480175
0.478409
0.484077
0.485072
0.482898
0.487448
0.499548
0.508159
0.503891
0.486209
0.458295
0.43111
0.428901
0.457191
0.492995
0.521068
0.540005
0.546558
0.539666
0.524613
0.50831
0.494309
0.484508
0.48308
0.492245
0.507499
0.519055
0.514696
0.487926
0.454215
0.450706
0.488978
0.524626
0.528413
0.520381
0.521899
0.527949
0.51719
0.495249
0.491215
0.505302
0.512716
0.501561
0.495067
0.500472
0.49918
0.491215
0.483095
0.479402
0.484571
0.489276
0.488954
0.497216
0.516918
0.535535
0.547796
0.555146
0.553955
0.540324
0.517309
0.495583
0.486614
0.489806
0.494273
0.496936
0.504122
0.517545
0.528798
0.523452
0.495935
0.465457
0.461731
0.488156
0.51721
0.526502
0.522964
0.529025
0.549974
0.566211
0.558283
0.533072
0.51367
0.510934
0.519595
0.526907
0.527617
0.524428
0.521075
0.520435
0.524325
0.524992
0.509667
0.484291
0.473942
0.486448
0.492462
0.466668
0.429785
0.40468
0.421152
0.493205
0.554158
0.574742
0.558506
0.523921
0.495636
0.490716
0.510126
0.537054
0.548568
0.535059
0.507911
0.487037
0.482488
0.491361
0.507945
0.527348
0.540218
0.536919
0.521652
0.514702
0.529273
0.550926
0.552511
0.526772
0.494122
0.476347
0.476421
0.48772
0.49978
0.500172
0.488041
0.476334
0.480798
0.507233
0.537771
0.5427
0.52132
0.502314
0.498408
0.496052
0.483135
0.468469
0.470179
0.485202
0.497297
0.507396
0.528164
0.555057
0.569318
0.574188
0.582793
0.586057
0.566611
0.540162
0.53624
0.54616
0.547437
0.541201
0.524697
0.494157
0.471486
0.478122
0.505393
0.531522
0.547703
0.544677
0.531856
0.528074
0.535503
0.549819
0.564508
0.562849
0.531971
0.513647
0.528577
0.542142
0.527949
0.498922
0.493451
0.521835
0.562444
0.572667
0.538115
0.523145
0.560435
0.572638
0.517293
0.467132
0.501395
0.487904
0.454969
0.468766
0.465958
0.529365
0.503364
0.492007
0.498361
0.526371
0.535419
0.443119
0.472294
0.540663
0.579017
0.4925
0.417672
0.490884
0.495603
0.440123
0.427674
0.484663
0.364221
0.475524
0.451164
0.49053
0.470357
0.430976
0.467485
0.456699
0.487543
0.568076
0.517567
0.457126
0.545731
0.5307
0.517495
0.501832
0.528893
0.48578
0.481116
0.528599
0.474019
0.478996
0.533498
0.507639
0.500402
0.520621
0.52365
0.499374
0.450574
0.503637
0.541884
0.525802
0.522714
0.412371
0.433005
0.486292
0.543208
0.527116
0.505161
0.506934
0.519244
0.514924
0.540793
0.486888
0.487886
0.533991
0.521796
0.458287
0.492729
0.526467
0.494193
0.486641
0.487749
0.457619
0.447832
0.482964
0.487093
0.470941
0.466426
0.462492
0.472172
0.471071
0.442561
0.470399
0.499515
0.489669
0.491488
0.522198
0.525788
0.491987
0.513764
0.560012
0.568607
0.52421
0.458918
0.4627
0.500636
0.517547
0.516195
0.514209
0.512291
0.477466
0.479914
0.489147
0.519092
0.548419
0.544224
0.519325
0.519326
0.496999