/*--------------------------------*- C++ -*----------------------------------*\
  =========                 |
  \\      /  F ield         | OpenFOAM: The Open Source CFD Toolbox
   \\    /   O peration     | Website:  https://openfoam.org
    \\  /    A nd           | Version:  7
     \\/     M anipulation  |
\*---------------------------------------------------------------------------*/
FoamFile
{
    version     2.0;
    format      ascii;
    class       volScalarField;
    location    "6000";
    object      k1Write;
}
// * * * * * * * * * * * * * * * * * * * * * * * * * * * * * * * * * * * * * //

dimensions      [0 2 0 0 0 0 0];

internalField   nonuniform List<scalar> 
160000
(
1.55314e-18
2.18634e-18
1.5875e-18
2.34343e-18
3.00175e-18
1.46925e-18
3.32053e-18
1.66229e-18
2.0712e-18
4.05869e-18
2.90639e-18
1.91348e-18
3.58573e-18
3.32374e-18
1.14659e-18
1.81082e-18
1.34481e-18
1.459e-18
3.08848e-18
2.84923e-18
2.39353e-18
1.79388e-18
2.29422e-18
3.49074e-18
2.82988e-18
3.49338e-18
3.52813e-18
2.1967e-18
2.606e-18
1.46846e-18
1.5901e-18
2.77609e-18
6.00015e-18
2.89685e-18
2.4331e-18
2.83915e-18
3.20361e-18
4.59536e-18
1.31024e-18
2.35603e-18
2.36862e-18
2.34633e-18
2.77924e-18
1.50101e-18
2.80863e-18
2.7047e-18
2.72254e-18
1.5871e-18
2.96267e-18
1.73286e-18
2.19154e-18
4.50748e-18
2.88232e-18
2.14849e-18
3.88631e-18
1.38657e-18
4.39041e-18
1.28928e-18
1.02147e-18
1.60487e-18
6.9184e-18
2.04567e-18
1.92757e-18
1.49917e-18
1.13499e-18
4.2573e-18
2.83859e-18
3.46527e-18
8.95525e-19
3.87914e-19
3.36598e-18
1.10788e-18
2.88237e-18
1.43641e-18
2.64812e-18
2.27779e-18
3.12948e-18
2.07173e-18
4.01781e-18
2.40291e-18
4.4496e-18
5.75332e-18
2.94179e-18
2.15571e-18
2.009e-18
1.75843e-18
1.71985e-18
1.11999e-18
1.74237e-18
2.75036e-18
1.11167e-18
3.72232e-18
4.48105e-18
3.67414e-18
2.44967e-18
1.19368e-18
2.12276e-18
1.73074e-18
1.79762e-18
1.1816e-18
2.09482e-18
8.35476e-19
3.11965e-18
1.68879e-18
9.79004e-19
2.24439e-18
9.08344e-19
2.19711e-18
2.67851e-18
2.7614e-18
3.75869e-18
1.3511e-18
3.89811e-18
1.93504e-18
1.5506e-18
2.11239e-18
1.24491e-18
1.78752e-18
3.46582e-18
2.75855e-18
2.08873e-18
1.43084e-18
2.58053e-18
3.13881e-18
3.98703e-18
6.28389e-18
4.45074e-18
1.91403e-18
2.49998e-18
2.57675e-18
1.79962e-18
1.36909e-18
2.49332e-18
4.98995e-18
2.81188e-18
2.25245e-18
1.40296e-18
1.88099e-18
1.20381e-18
8.31121e-19
2.42471e-18
3.05471e-18
6.2909e-19
2.31822e-18
4.50107e-18
2.28198e-18
2.45271e-18
2.28558e-18
2.07769e-18
1.26569e-18
9.07691e-19
1.51658e-18
9.7743e-19
2.29704e-18
8.10972e-19
1.93131e-18
2.00982e-18
3.91868e-18
2.53441e-18
2.79928e-18
1.45633e-18
1.76691e-18
1.37635e-18
3.07017e-18
8.90987e-19
2.2857e-18
2.18597e-18
1.14403e-18
1.56568e-18
1.10541e-18
3.53139e-18
5.65247e-18
2.23391e-18
5.80069e-18
3.08515e-18
1.38017e-18
1.93512e-18
2.2682e-18
5.04521e-18
4.15876e-18
1.01213e-18
3.3443e-18
1.36358e-18
8.85942e-19
9.6214e-19
1.08604e-18
1.3145e-18
1.12285e-18
6.26153e-19
1.20647e-18
1.71893e-18
1.19983e-18
1.56186e-18
2.89352e-18
3.64109e-18
6.39259e-19
1.15345e-18
6.86244e-18
1.68603e-17
1.08176e-17
5.96083e-18
3.27218e-18
1.79097e-18
1.09807e-18
1.3257e-18
2.48232e-18
2.79501e-18
2.29398e-18
1.74106e-18
1.64396e-18
1.78724e-18
1.71174e-18
1.40639e-18
1.44293e-18
1.7305e-18
1.49551e-18
1.27952e-18
2.3866e-18
6.35435e-18
7.78329e-18
5.79715e-18
2.58151e-18
7.48466e-19
5.07795e-19
6.5234e-19
9.83885e-19
1.75244e-18
7.376e-19
1.86228e-18
1.44569e-18
5.05031e-19
1.36295e-18
1.00184e-18
1.82904e-18
1.75707e-18
2.09482e-18
1.08546e-18
2.04318e-18
1.08614e-18
1.85087e-18
1.32092e-18
8.98852e-19
1.32325e-18
9.32427e-19
1.23044e-18
8.15449e-19
9.96538e-19
1.38163e-18
8.47871e-18
9.2829e-18
6.21734e-18
3.38601e-18
1.69083e-18
9.99317e-19
8.78886e-19
1.3815e-18
1.16399e-18
6.00739e-19
1.41539e-18
9.54512e-18
1.3168e-17
3.89384e-18
1.29995e-18
5.76406e-19
8.14827e-19
2.06446e-18
1.92204e-18
6.5455e-19
1.16341e-18
4.24179e-18
2.07241e-18
1.34846e-18
1.97833e-18
1.59164e-18
9.10761e-19
5.62418e-19
1.2718e-18
4.0097e-18
2.27965e-18
1.54517e-18
9.97752e-19
1.02656e-18
1.33242e-18
1.81429e-18
1.98241e-18
2.35482e-18
3.02219e-18
1.74304e-18
1.80984e-18
2.24042e-18
1.88136e-18
5.12262e-19
1.09286e-18
1.70247e-18
2.0089e-18
2.25808e-18
2.46639e-18
4.06183e-19
8.31268e-19
4.3186e-19
1.32953e-18
5.71048e-18
2.46357e-17
1.52593e-17
7.99668e-18
4.40155e-18
2.93478e-18
2.08878e-18
1.54215e-18
1.28166e-18
1.21008e-18
9.23497e-19
8.80701e-19
1.71285e-18
3.6613e-18
6.20862e-18
5.04452e-18
1.77895e-18
7.07905e-19
6.1676e-19
4.16548e-19
3.87812e-19
4.0012e-19
1.52485e-18
3.4823e-18
3.51207e-18
3.37502e-18
3.8425e-18
3.83421e-18
2.89804e-18
2.07398e-18
2.13161e-18
2.17478e-18
1.96847e-18
1.92173e-18
1.68997e-18
1.29738e-18
1.75036e-18
4.22261e-18
3.00865e-18
9.33179e-19
9.28927e-19
1.31181e-18
9.94971e-19
2.27261e-18
1.66135e-18
1.95744e-18
3.43064e-18
5.14734e-18
3.92511e-18
2.55285e-18
1.44704e-18
1.24635e-18
1.26759e-18
1.7567e-18
1.86465e-18
2.32586e-18
2.39527e-18
2.18416e-18
1.35323e-18
9.89269e-19
8.71705e-19
1.27998e-18
1.12727e-18
2.34933e-18
3.00435e-18
2.03044e-18
5.00051e-18
5.08213e-18
2.57309e-18
1.75008e-18
2.09999e-18
2.20972e-18
4.65949e-18
1.80009e-18
3.14451e-18
1.41597e-18
1.23412e-18
9.14616e-19
1.08673e-18
1.37334e-18
1.27836e-18
1.1443e-18
1.99725e-18
2.34139e-18
2.48695e-18
2.95452e-18
2.66382e-18
1.7398e-18
1.28589e-18
1.64888e-18
1.1608e-18
1.77029e-18
1.34167e-18
7.11936e-19
2.54257e-18
2.3597e-18
8.827e-19
8.16321e-18
4.8842e-18
5.36977e-18
1.21098e-18
2.39363e-18
1.47741e-18
1.21514e-18
1.60457e-18
2.69112e-18
2.05359e-18
2.23952e-18
2.6461e-18
3.04815e-18
1.81644e-18
2.09716e-18
2.5688e-18
3.82876e-18
1.58367e-18
1.77753e-18
5.41557e-18
4.69331e-18
3.00547e-18
1.74925e-18
2.07646e-18
3.5468e-18
3.31944e-18
1.27304e-18
2.02159e-18
5.53894e-18
4.39577e-18
2.25997e-18
3.80765e-18
2.78504e-18
1.88383e-18
2.50928e-18
1.92149e-18
1.3982e-18
3.18923e-18
4.20942e-18
5.17673e-19
2.893e-18
5.08487e-18
2.48232e-18
1.66298e-18
2.87095e-18
1.17795e-18
2.81779e-18
4.20802e-18
2.02092e-18
1.23339e-18
2.83128e-18
4.41622e-18
1.88658e-18
2.21738e-18
2.00284e-18
5.63046e-18
1.02953e-18
2.35673e-18
3.1166e-18
1.48407e-18
1.81918e-18
1.89223e-18
2.07567e-18
2.64671e-18
1.51841e-18
1.38838e-18
2.32892e-18
1.93002e-18
1.18723e-18
3.45564e-18
3.35652e-18
5.04447e-18
4.30599e-18
2.62116e-18
1.07148e-18
1.80627e-18
1.93061e-18
2.89247e-18
1.88887e-18
1.83388e-18
1.68727e-18
3.35962e-18
3.07823e-18
2.26424e-18
2.30001e-18
2.44764e-18
5.58466e-18
4.88277e-18
1.47638e-18
1.73675e-18
2.05037e-18
2.99503e-18
3.65331e-18
2.77743e-18
5.0201e-18
3.26252e-18
1.51717e-18
2.46102e-18
2.2211e-18
2.73668e-18
2.32911e-18
1.43256e-18
2.83467e-18
2.02414e-18
1.17127e-18
4.38859e-18
2.47147e-18
1.38694e-18
3.17189e-18
4.04896e-18
2.79899e-18
3.06914e-18
2.38842e-18
1.14826e-18
1.39762e-18
1.34288e-18
1.67732e-18
1.86363e-18
1.90597e-18
2.31848e-18
2.96763e-18
5.21295e-18
4.43642e-18
2.31232e-18
2.20731e-18
2.20485e-18
2.07587e-18
2.39895e-18
2.17699e-18
1.73515e-18
2.36748e-18
1.80754e-18
1.40395e-18
8.71982e-19
4.30138e-18
5.31364e-18
2.8069e-18
1.40836e-18
4.62587e-18
1.58886e-18
9.99131e-19
1.45405e-18
2.37002e-18
3.07438e-18
2.53875e-18
3.13365e-18
3.04337e-18
1.45655e-18
2.37906e-18
1.84002e-18
1.50393e-18
1.12125e-18
3.51546e-18
1.02872e-18
1.12727e-18
1.761e-18
1.88594e-18
2.67408e-18
1.64803e-18
2.42341e-18
1.34091e-18
2.31366e-18
2.10112e-18
2.7064e-18
2.02195e-18
1.65038e-18
1.3706e-18
2.2909e-18
3.25401e-18
1.58734e-18
1.98296e-18
1.96277e-18
2.24005e-18
1.98196e-18
1.14341e-18
3.98654e-18
2.1422e-18
2.44913e-18
2.58377e-18
1.94818e-18
2.43472e-18
1.84856e-18
1.61414e-18
2.15078e-18
1.18906e-18
5.59184e-19
1.66546e-18
1.39617e-18
1.26735e-18
4.70988e-19
7.43844e-19
2.33984e-18
5.05355e-18
3.57336e-18
2.49751e-18
2.44417e-18
2.11589e-18
2.49103e-18
5.17854e-18
8.73352e-18
1.26257e-17
8.47008e-18
5.05488e-18
2.97453e-18
1.9137e-18
1.75578e-18
2.56047e-18
3.96394e-18
3.69905e-18
2.60577e-18
1.95061e-18
1.78457e-18
1.60541e-18
1.24969e-18
1.10282e-18
1.25104e-18
1.28234e-18
1.15328e-18
1.33637e-18
2.01033e-18
2.37917e-18
1.99907e-18
1.48952e-18
8.73515e-19
6.16866e-19
7.15805e-19
1.09004e-18
1.47174e-18
1.78742e-18
1.18671e-18
1.84316e-18
1.62066e-18
1.7737e-18
2.40132e-18
5.21245e-18
4.31674e-18
1.39074e-18
1.3326e-18
1.94206e-18
2.01496e-18
1.1807e-18
1.41416e-18
9.29672e-19
7.34106e-19
1.61579e-18
1.4755e-18
4.45423e-19
1.21306e-18
1.8327e-18
1.03401e-17
1.76717e-17
1.04946e-17
6.25037e-18
3.67945e-18
2.46999e-18
1.85752e-18
1.47749e-18
1.20058e-18
9.39545e-19
1.24828e-18
3.31806e-18
5.67743e-18
3.29134e-18
1.4964e-18
9.11727e-19
1.06873e-18
1.78898e-18
1.87757e-18
8.21083e-19
8.63001e-19
3.0112e-18
4.98716e-18
2.01747e-18
1.78684e-18
2.05641e-18
1.22387e-18
7.85147e-19
9.63591e-19
2.21173e-18
3.02389e-18
1.64021e-18
1.09866e-18
1.19581e-18
1.51896e-18
2.57439e-18
4.14311e-18
3.54592e-18
2.15673e-18
1.34581e-18
1.00954e-18
9.90221e-19
9.72289e-19
6.79212e-19
1.01841e-18
1.87551e-18
1.91223e-18
5.44402e-19
9.98736e-19
1.49987e-18
8.08267e-19
7.25123e-19
3.64735e-18
7.88098e-18
1.57826e-17
1.23423e-17
5.95809e-18
3.40149e-18
2.0839e-18
1.4282e-18
1.15592e-18
1.0328e-18
9.49009e-19
9.15821e-19
9.87992e-19
1.34868e-18
2.53342e-18
3.4132e-18
2.59107e-18
1.35458e-18
6.90925e-19
5.24151e-19
5.27707e-19
4.53613e-19
5.14267e-19
1.47798e-18
8.35746e-18
1.34489e-17
7.14253e-18
4.32198e-18
3.57218e-18
3.05047e-18
2.11619e-18
1.55399e-18
1.54069e-18
1.55271e-18
1.60187e-18
1.74874e-18
1.53552e-18
1.32825e-18
1.61375e-18
1.68723e-18
1.17823e-18
1.08783e-18
1.62242e-18
1.80101e-18
1.53529e-18
1.93647e-18
2.30288e-18
2.40516e-18
3.07066e-18
2.52776e-18
1.95455e-18
1.31951e-18
9.66203e-19
9.65719e-19
1.43607e-18
1.47748e-18
1.10198e-18
1.01331e-18
1.124e-18
1.20151e-18
1.26354e-18
1.18924e-18
1.27138e-18
1.31978e-18
1.66494e-18
3.84388e-18
3.77331e-18
3.39164e-18
3.52531e-18
1.8215e-18
1.0101e-18
1.01455e-18
9.35303e-19
1.1502e-18
1.00388e-18
1.30741e-18
9.83693e-19
1.24308e-18
1.67818e-18
1.06636e-18
1.54432e-18
2.70212e-18
7.74033e-19
3.11342e-18
1.80217e-18
7.98567e-19
2.02177e-18
1.47098e-18
9.34521e-19
1.32004e-18
2.189e-18
1.04534e-18
1.57776e-18
2.22955e-18
1.17451e-18
8.2484e-19
2.48024e-18
7.12669e-19
2.18901e-18
1.46784e-18
4.28545e-18
9.59573e-19
7.96933e-19
3.28317e-18
1.21477e-18
4.20687e-18
9.87854e-19
2.12105e-18
3.70874e-18
1.44648e-18
3.66654e-18
5.81313e-18
3.13515e-18
1.89962e-18
3.76342e-18
6.26085e-18
3.12044e-18
6.45011e-18
4.13173e-18
1.83016e-18
3.37721e-18
2.13409e-18
2.68275e-18
1.72818e-18
1.25329e-18
1.41146e-18
1.93725e-18
2.31158e-18
2.55687e-18
5.97186e-18
2.49123e-18
1.91947e-18
2.8432e-18
2.98047e-18
3.18186e-18
1.22393e-18
1.78466e-18
2.46033e-18
1.65458e-18
1.63655e-18
1.89283e-18
2.34558e-18
2.24722e-18
2.30131e-18
2.21367e-18
5.60969e-18
1.63439e-18
1.18709e-18
1.30513e-18
2.76969e-18
5.34646e-18
2.3235e-18
1.33203e-18
1.40639e-18
1.96779e-18
2.47048e-18
2.76375e-18
4.92058e-18
4.30042e-18
5.65026e-18
1.81166e-18
1.55557e-18
1.95295e-18
3.22778e-18
1.26746e-18
1.59551e-18
3.16863e-18
1.34201e-18
1.13581e-18
8.01896e-19
1.69069e-18
9.0562e-19
2.70767e-18
2.10975e-18
8.71441e-19
1.28392e-18
2.07985e-18
2.15797e-18
3.05802e-18
4.17449e-18
2.37003e-18
3.3081e-18
3.76357e-18
3.28563e-18
1.58128e-18
2.46252e-18
1.75632e-18
3.10462e-18
3.06674e-18
1.46441e-18
1.26692e-18
2.53736e-18
1.45396e-18
1.01794e-18
1.65313e-18
8.3741e-19
7.22189e-19
1.36277e-18
1.68402e-18
1.81851e-18
1.38163e-18
1.39665e-18
2.61461e-18
1.59151e-18
2.18913e-18
3.27491e-18
2.3875e-18
2.00698e-18
1.33634e-18
2.13251e-18
2.92751e-18
1.91257e-18
2.01484e-18
1.51393e-18
1.13047e-18
1.92343e-18
1.65172e-18
1.86251e-18
2.29806e-18
2.2075e-18
1.80698e-18
1.26506e-18
1.33758e-18
1.60797e-18
1.40167e-18
1.33154e-18
1.31163e-18
1.19268e-18
1.66545e-18
1.65149e-18
1.2149e-18
1.77997e-18
3.42158e-18
3.47584e-18
2.32933e-18
2.04927e-18
1.74229e-18
2.18275e-18
2.23048e-18
1.52448e-18
1.64593e-18
3.22377e-18
5.27698e-18
2.69526e-18
2.54253e-18
3.16924e-18
1.90621e-18
1.8303e-18
2.08089e-18
1.81279e-18
1.46414e-18
2.19739e-18
1.46126e-18
1.91991e-18
4.36056e-18
3.47999e-18
1.34218e-18
2.09982e-18
1.90994e-18
1.55073e-18
1.3912e-18
1.04712e-18
1.95165e-18
1.85796e-18
1.97473e-18
1.88009e-18
1.92965e-18
1.7607e-18
1.35094e-18
2.06749e-18
3.50822e-18
3.38539e-18
3.18195e-18
2.37845e-18
1.4018e-18
7.74207e-19
1.73121e-18
3.05041e-18
2.52363e-18
1.48623e-18
1.67264e-18
1.31369e-18
8.83043e-19
1.0353e-18
1.36773e-18
9.10929e-19
7.92549e-19
7.66141e-19
1.24441e-18
2.51534e-18
8.46557e-18
6.13464e-18
3.87714e-18
3.01704e-18
2.63622e-18
2.43451e-18
2.31507e-18
2.75016e-18
3.39983e-18
4.39009e-18
3.7188e-18
2.52298e-18
1.73995e-18
1.65245e-18
1.98561e-18
2.29452e-18
2.28824e-18
1.94375e-18
1.61562e-18
1.51669e-18
1.3368e-18
1.09235e-18
9.27929e-19
1.03347e-18
1.07716e-18
1.02765e-18
1.09952e-18
1.34612e-18
1.36357e-18
1.03778e-18
8.27786e-19
1.08373e-18
1.52306e-18
1.64213e-18
1.64345e-18
1.66595e-18
1.4606e-18
1.12522e-18
1.34787e-18
2.09921e-18
1.6693e-18
1.43661e-18
2.25784e-18
2.478e-18
1.25201e-18
1.2935e-18
1.7687e-18
1.15794e-18
9.04046e-19
1.17393e-18
2.08366e-18
2.40039e-18
1.68474e-18
1.38463e-18
6.96565e-19
9.60768e-19
1.45541e-18
4.6002e-18
1.31722e-17
9.97223e-18
5.04768e-18
2.62536e-18
1.84621e-18
1.53974e-18
1.24016e-18
1.02039e-18
9.11261e-19
9.54549e-19
1.23173e-18
1.69409e-18
1.83134e-18
1.34225e-18
1.0954e-18
1.33191e-18
1.68801e-18
1.74472e-18
1.28775e-18
1.09327e-18
1.5813e-18
2.37871e-18
1.65244e-18
1.21439e-18
1.64189e-18
2.03088e-18
1.78585e-18
1.55818e-18
1.55319e-18
2.27129e-18
2.3494e-18
1.83682e-18
2.02223e-18
2.55228e-18
2.92489e-18
2.59965e-18
1.78059e-18
1.12738e-18
9.73983e-19
1.09476e-18
1.159e-18
1.19098e-18
1.11371e-18
8.89285e-19
6.20536e-19
4.25505e-19
4.73108e-19
1.03312e-18
3.14161e-18
1.97765e-18
1.05392e-18
2.9367e-18
6.84367e-18
1.29645e-17
7.71615e-18
3.73433e-18
2.31209e-18
1.75135e-18
1.60863e-18
1.54458e-18
1.36171e-18
1.08353e-18
9.86389e-19
1.12395e-18
1.32405e-18
1.50494e-18
1.69321e-18
1.46884e-18
9.21597e-19
6.82711e-19
8.32038e-19
1.01933e-18
8.54993e-19
8.94296e-19
2.10143e-18
6.98269e-18
8.3435e-18
5.20277e-18
2.65139e-18
1.85394e-18
1.54377e-18
1.40109e-18
1.28106e-18
1.33112e-18
1.49103e-18
1.41712e-18
1.17172e-18
1.01467e-18
9.47302e-19
1.05761e-18
1.37115e-18
1.46953e-18
1.45788e-18
1.47944e-18
1.37104e-18
1.48687e-18
1.96095e-18
2.44282e-18
2.65197e-18
2.87507e-18
2.49811e-18
1.48047e-18
9.68689e-19
9.95511e-19
1.43513e-18
2.09128e-18
2.2062e-18
1.42014e-18
1.02768e-18
1.22948e-18
1.64802e-18
1.29823e-18
7.98293e-19
7.9819e-19
1.29409e-18
2.05332e-18
2.47727e-18
2.71623e-18
1.48664e-18
1.33351e-18
1.57473e-18
1.12177e-18
9.94991e-19
1.52451e-18
2.40069e-18
2.65877e-18
2.45757e-18
2.24919e-18
1.83008e-18
1.54826e-18
9.90212e-19
8.31121e-19
1.35675e-18
9.69847e-19
1.17116e-18
1.72612e-18
2.06351e-18
1.32131e-18
9.34776e-19
1.65742e-18
1.90274e-18
2.07865e-18
1.4771e-18
8.16557e-19
1.82113e-18
1.82859e-18
1.34882e-18
1.84063e-18
1.40071e-18
7.04311e-19
2.36567e-18
3.02494e-18
2.09844e-18
4.56014e-18
4.42135e-18
4.86678e-18
5.34845e-18
5.78821e-18
5.27628e-18
3.44581e-18
5.28731e-18
3.20854e-18
4.31352e-18
1.93526e-18
2.14668e-18
2.31154e-18
1.85283e-18
5.29632e-18
3.01546e-18
4.11385e-18
3.39414e-18
2.75969e-18
2.89276e-18
1.57812e-18
4.9736e-18
1.43005e-18
2.76103e-18
5.42037e-18
1.41288e-18
1.98908e-18
3.1512e-18
1.65705e-18
5.57743e-19
1.14834e-18
1.54342e-18
2.39999e-18
3.06547e-18
3.49963e-18
3.05274e-18
3.21644e-18
8.82875e-19
2.02929e-18
4.98423e-18
4.77489e-18
2.88974e-18
2.35124e-18
2.59024e-18
3.34976e-18
2.38856e-18
2.39927e-18
1.78964e-18
2.12677e-18
1.71794e-18
4.18624e-18
2.66701e-18
9.55568e-19
2.63709e-18
2.05913e-18
1.47531e-18
1.33691e-18
1.9271e-18
1.80774e-18
2.81792e-18
2.24693e-18
3.57701e-18
1.93354e-18
1.4708e-18
1.82511e-18
2.22739e-18
1.94723e-18
1.67436e-18
2.94241e-18
2.74281e-18
9.24854e-19
9.78807e-19
1.4469e-18
3.21184e-18
5.03137e-18
3.0523e-18
1.56199e-18
2.92549e-18
1.69527e-18
9.01627e-19
3.33198e-18
2.53428e-18
1.87658e-18
1.79961e-18
3.9366e-18
3.93543e-18
3.6468e-18
3.65044e-18
2.35503e-18
3.66396e-18
1.57193e-18
2.72919e-18
1.98953e-18
1.67717e-18
1.48094e-18
2.67026e-18
1.13733e-18
1.17121e-18
2.13838e-18
3.46463e-18
1.81109e-18
1.98831e-18
2.35344e-18
2.15521e-18
3.39677e-18
3.85157e-18
2.7246e-18
2.23108e-18
2.45174e-18
2.35857e-18
1.75681e-18
2.85243e-18
1.97703e-18
1.31495e-18
1.58864e-18
2.14074e-18
2.44779e-18
3.17161e-18
2.80935e-18
1.64779e-18
1.514e-18
1.621e-18
1.71272e-18
1.04899e-18
2.18019e-18
2.66439e-18
2.43096e-18
1.56154e-18
1.43338e-18
1.74558e-18
1.77323e-18
2.39647e-18
1.90828e-18
2.07294e-18
1.87277e-18
1.4935e-18
2.16677e-18
2.08033e-18
1.75983e-18
2.10957e-18
2.37534e-18
1.17017e-18
1.83707e-18
2.7278e-18
3.04566e-18
3.27006e-18
2.01508e-18
1.50207e-18
1.45477e-18
2.71142e-18
1.76819e-18
1.70822e-18
1.22367e-18
1.26017e-18
1.61826e-18
1.80628e-18
2.91785e-18
2.30247e-18
1.41494e-18
1.91758e-18
2.07386e-18
2.32559e-18
2.61591e-18
2.16601e-18
1.31609e-18
1.43246e-18
1.91773e-18
2.80443e-18
3.93894e-18
5.98069e-18
3.5579e-18
1.90694e-18
2.18683e-18
2.77515e-18
2.2232e-18
2.39814e-18
2.30062e-18
1.34741e-18
1.14205e-18
1.77403e-18
1.71036e-18
6.86552e-19
5.91797e-19
1.07468e-18
1.07012e-18
9.89084e-19
1.13143e-18
3.94487e-18
7.429e-18
6.13047e-18
4.9837e-18
3.41589e-18
3.01612e-18
2.85457e-18
2.25127e-18
1.62468e-18
1.43725e-18
1.80171e-18
2.53272e-18
2.73181e-18
2.01427e-18
1.1943e-18
1.24875e-18
1.5502e-18
2.24453e-18
2.26353e-18
1.91841e-18
1.7289e-18
1.62766e-18
1.44439e-18
1.29951e-18
1.4407e-18
1.67813e-18
1.6825e-18
1.52394e-18
1.30891e-18
1.1068e-18
9.33549e-19
8.70936e-19
1.05402e-18
1.61658e-18
2.36333e-18
2.89639e-18
2.63329e-18
1.9697e-18
1.55174e-18
1.14777e-18
9.89791e-19
1.005e-18
1.07005e-18
1.21971e-18
1.12189e-18
7.42392e-19
6.54736e-19
8.03304e-19
1.12574e-18
1.50304e-18
1.66812e-18
1.33141e-18
1.19936e-18
9.86545e-19
7.16929e-19
8.04773e-19
8.53451e-19
1.49828e-18
3.25408e-18
5.89061e-18
9.37954e-18
4.83054e-18
2.26032e-18
1.50074e-18
1.31603e-18
1.1832e-18
9.88331e-19
1.00207e-18
1.20572e-18
1.47361e-18
1.86757e-18
1.8383e-18
1.41161e-18
1.07782e-18
1.16205e-18
1.67021e-18
2.11973e-18
2.22683e-18
1.56539e-18
1.11722e-18
1.32936e-18
1.67237e-18
2.54583e-18
3.29028e-18
3.1474e-18
1.77715e-18
9.25348e-19
7.79481e-19
1.3624e-18
1.99176e-18
2.10968e-18
2.47304e-18
2.19657e-18
1.83459e-18
1.47625e-18
1.25245e-18
1.27754e-18
1.30378e-18
1.09444e-18
9.31874e-19
1.088e-18
1.44655e-18
1.30316e-18
6.72111e-19
3.69629e-19
5.15332e-19
1.33661e-18
3.37114e-18
4.11484e-18
5.25215e-18
4.89229e-18
5.64188e-18
5.70521e-18
3.84541e-18
2.17027e-18
1.91723e-18
2.05733e-18
2.36483e-18
2.23647e-18
1.93675e-18
1.69282e-18
1.489e-18
1.44586e-18
1.44011e-18
1.33509e-18
1.38214e-18
1.43796e-18
1.45113e-18
1.17902e-18
9.4039e-19
7.32989e-19
6.92464e-19
1.08156e-18
1.72901e-18
3.19673e-18
3.61156e-18
2.73993e-18
1.72811e-18
1.19759e-18
1.00616e-18
1.05866e-18
1.30585e-18
1.48384e-18
1.34509e-18
1.16528e-18
1.13086e-18
1.32211e-18
1.69471e-18
1.99931e-18
2.72841e-18
3.59679e-18
3.49298e-18
2.38205e-18
1.61904e-18
1.2431e-18
1.17675e-18
1.55764e-18
2.29317e-18
2.87871e-18
1.86778e-18
1.22358e-18
9.71725e-19
8.90442e-19
9.01984e-19
9.61527e-19
1.06609e-18
1.26857e-18
1.29813e-18
1.30096e-18
1.21643e-18
1.24539e-18
1.46413e-18
1.70032e-18
1.72967e-18
1.72105e-18
1.55645e-18
1.37078e-18
1.54404e-18
1.02686e-18
8.1292e-19
9.60559e-19
1.13793e-18
1.43495e-18
1.65874e-18
1.45169e-18
1.72494e-18
1.77642e-18
1.78394e-18
1.75444e-18
1.04737e-18
6.36283e-19
1.0248e-18
1.72255e-18
1.46454e-18
6.93748e-19
2.22236e-18
3.05733e-18
1.87218e-18
1.17424e-18
1.40427e-18
1.97716e-18
1.07245e-18
1.94177e-18
1.40096e-18
8.04219e-19
5.79843e-19
1.13573e-18
9.18805e-19
8.00865e-19
8.03118e-19
1.68805e-18
3.30909e-18
4.20214e-18
3.67066e-18
4.31932e-18
5.26579e-18
2.78289e-18
2.40524e-18
2.22759e-18
1.34562e-18
3.06585e-18
2.5021e-18
1.36814e-18
1.53472e-18
5.37756e-19
4.28276e-18
6.36454e-18
1.80291e-18
1.21619e-18
3.53432e-18
3.31538e-18
4.98441e-18
5.76532e-18
1.97439e-18
1.58726e-18
1.02471e-18
1.64046e-18
1.58518e-18
9.21252e-19
2.79635e-18
3.93188e-18
2.08867e-18
3.40331e-18
2.67724e-18
1.38959e-18
2.50242e-18
4.02189e-18
2.12377e-18
9.4724e-19
1.54091e-18
2.40278e-18
4.70834e-18
3.40847e-18
2.05455e-18
3.80977e-18
1.97351e-18
1.40178e-18
1.62946e-18
2.29709e-18
1.78287e-18
3.47011e-18
5.57327e-18
2.50712e-18
2.64526e-18
2.5307e-18
1.95619e-18
1.46381e-18
2.14568e-18
2.32557e-18
1.46535e-18
2.43749e-18
2.20726e-18
1.27377e-18
1.67291e-18
1.86803e-18
1.99208e-18
1.33031e-18
1.79029e-18
3.48555e-18
2.93949e-18
2.25739e-18
1.61179e-18
1.9398e-18
1.18402e-18
1.3277e-18
2.33218e-18
2.26993e-18
3.48472e-18
3.63125e-18
2.00914e-18
2.2937e-18
2.7227e-18
4.11242e-18
1.38829e-18
1.67832e-18
2.02088e-18
1.89037e-18
2.65817e-18
3.12943e-18
2.0909e-18
2.02783e-18
1.95804e-18
1.90633e-18
1.58851e-18
1.46339e-18
1.87136e-18
1.70715e-18
1.57691e-18
2.67102e-18
2.30353e-18
1.59179e-18
1.66055e-18
3.42346e-18
3.78255e-18
1.6283e-18
1.09324e-18
2.35504e-18
2.33774e-18
3.00348e-18
3.27551e-18
2.19117e-18
2.23786e-18
2.09456e-18
1.64481e-18
2.07196e-18
3.88897e-18
4.61538e-18
2.53982e-18
1.10927e-18
1.68085e-18
3.30429e-18
2.17436e-18
1.69238e-18
2.11316e-18
1.70932e-18
1.77665e-18
2.22027e-18
3.14873e-18
2.01323e-18
1.22147e-18
1.32057e-18
1.66459e-18
2.01856e-18
1.9091e-18
2.94719e-18
2.91339e-18
2.49363e-18
1.40828e-18
1.38741e-18
1.11125e-18
1.52344e-18
2.38234e-18
3.12986e-18
2.94525e-18
2.64438e-18
2.98742e-18
1.89902e-18
2.294e-18
2.42106e-18
1.48459e-18
1.38554e-18
1.82555e-18
1.623e-18
1.48289e-18
1.7717e-18
2.39336e-18
2.87014e-18
2.87397e-18
3.08024e-18
2.40517e-18
1.19402e-18
1.02094e-18
1.85201e-18
2.40942e-18
2.46167e-18
2.41266e-18
1.67035e-18
1.23228e-18
1.80518e-18
4.06555e-18
2.73212e-18
2.24114e-18
2.11712e-18
1.89323e-18
2.02131e-18
1.79287e-18
1.54417e-18
2.11516e-18
2.08473e-18
1.82852e-18
1.6289e-18
1.46335e-18
1.52593e-18
1.84023e-18
1.85309e-18
1.14349e-18
7.24472e-19
8.33288e-19
3.71703e-18
9.54278e-18
9.30719e-18
6.69957e-18
4.5682e-18
2.73383e-18
2.19621e-18
1.95384e-18
1.66022e-18
1.28659e-18
1.07647e-18
1.41298e-18
2.53155e-18
3.24843e-18
3.22311e-18
2.66875e-18
1.56458e-18
1.61013e-18
1.76999e-18
1.72191e-18
2.13772e-18
1.75328e-18
1.55134e-18
1.68075e-18
2.06209e-18
2.59887e-18
3.16542e-18
2.78703e-18
1.99665e-18
1.4631e-18
1.17902e-18
1.18286e-18
1.35424e-18
1.5558e-18
1.74755e-18
1.93789e-18
2.01439e-18
2.30335e-18
2.22307e-18
1.57811e-18
1.14014e-18
1.08149e-18
1.20641e-18
1.39114e-18
1.38718e-18
1.44025e-18
1.17576e-18
9.31087e-19
1.1312e-18
1.07522e-18
1.28029e-18
1.11168e-18
8.46334e-19
8.48729e-19
1.35718e-18
1.85248e-18
1.63804e-18
1.36359e-18
1.78089e-18
4.16339e-18
7.36686e-18
7.95031e-18
5.30423e-18
2.62276e-18
1.52939e-18
1.12454e-18
1.06369e-18
1.10075e-18
1.18494e-18
1.34779e-18
1.66263e-18
1.85006e-18
1.82527e-18
1.61013e-18
1.23613e-18
9.68558e-19
9.53516e-19
1.20366e-18
1.64694e-18
1.76579e-18
1.7672e-18
2.33222e-18
2.87074e-18
3.05457e-18
2.15738e-18
1.75897e-18
1.42963e-18
9.76097e-19
1.04264e-18
1.74517e-18
2.59247e-18
3.47159e-18
2.85573e-18
2.03444e-18
1.488e-18
1.21123e-18
1.1581e-18
1.16911e-18
1.03896e-18
9.84608e-19
1.29106e-18
1.73953e-18
1.72503e-18
1.28758e-18
7.76867e-19
4.43575e-19
4.35345e-19
1.07167e-18
3.66912e-18
8.72756e-18
7.89823e-18
5.27157e-18
3.59605e-18
2.96113e-18
2.29505e-18
1.73305e-18
1.49274e-18
1.78867e-18
1.88739e-18
2.33706e-18
1.92999e-18
1.42711e-18
1.09296e-18
1.06276e-18
1.38183e-18
1.84665e-18
2.45469e-18
3.0775e-18
3.01285e-18
2.22858e-18
1.73863e-18
1.42104e-18
1.43468e-18
1.71488e-18
2.52079e-18
3.95717e-18
4.20154e-18
3.16073e-18
2.01798e-18
1.32212e-18
9.82348e-19
1.09322e-18
1.41954e-18
2.0777e-18
1.92404e-18
1.46567e-18
1.30564e-18
1.36163e-18
1.70509e-18
1.42836e-18
1.30789e-18
1.47496e-18
1.74823e-18
2.14649e-18
1.67169e-18
1.54068e-18
2.0773e-18
2.84538e-18
2.69565e-18
1.90335e-18
1.24574e-18
9.60459e-19
8.74792e-19
8.41396e-19
8.4247e-19
1.07967e-18
1.50151e-18
1.72883e-18
1.53164e-18
1.28078e-18
1.18173e-18
1.31923e-18
1.41305e-18
1.34389e-18
1.36803e-18
1.36895e-18
1.61659e-18
1.72276e-18
1.91231e-18
2.24636e-18
2.3666e-18
2.27733e-18
1.34633e-18
1.32774e-18
1.10008e-18
1.05918e-18
1.52166e-18
1.80809e-18
1.20946e-18
6.2619e-19
6.82733e-19
1.34744e-18
1.09984e-18
1.29317e-18
1.8771e-18
1.98531e-18
1.77766e-18
2.60258e-18
2.24501e-18
9.46992e-19
9.00561e-19
1.53013e-18
3.05346e-18
2.14516e-18
1.46394e-18
1.74669e-18
1.63493e-18
1.99661e-18
9.08456e-19
4.54387e-19
1.15114e-18
1.48913e-18
2.21247e-18
6.29446e-19
3.5359e-18
1.25595e-18
1.29954e-18
4.6938e-18
3.04826e-18
1.82542e-18
2.83155e-18
1.25485e-18
1.45178e-18
7.66809e-19
1.79262e-18
3.10531e-18
1.66104e-18
4.4549e-18
3.85632e-18
4.44042e-18
5.8251e-18
1.80009e-18
1.94174e-18
2.53413e-18
4.0393e-18
3.65249e-18
4.20832e-18
2.0141e-18
1.0028e-18
1.69028e-18
1.67748e-18
7.57662e-19
1.69005e-18
1.29919e-18
5.14467e-18
2.27496e-18
2.35147e-18
2.68871e-18
2.80928e-18
2.96693e-18
1.52549e-18
1.62603e-18
2.41088e-18
3.43704e-18
3.84284e-18
2.61577e-18
2.70729e-18
1.54514e-18
1.64699e-18
2.33537e-18
2.35153e-18
2.00968e-18
2.13024e-18
2.875e-18
5.292e-18
2.97009e-18
1.54288e-18
2.46559e-18
2.54685e-18
1.71831e-18
2.42286e-18
2.84455e-18
2.07704e-18
1.60321e-18
2.03081e-18
1.6409e-18
1.46429e-18
2.90343e-18
1.9126e-18
3.05999e-18
5.44974e-18
3.42817e-18
1.90741e-18
2.65452e-18
3.44509e-18
2.88717e-18
4.25874e-18
3.68703e-18
1.99036e-18
2.44751e-18
4.27419e-18
2.68856e-18
1.90867e-18
1.48811e-18
1.58865e-18
2.42405e-18
2.36765e-18
1.76917e-18
1.97411e-18
2.84908e-18
3.12422e-18
3.21595e-18
4.88943e-18
3.66062e-18
2.21462e-18
1.43953e-18
2.49965e-18
3.27853e-18
1.90214e-18
1.62995e-18
1.66088e-18
8.68739e-19
1.15409e-18
1.6928e-18
1.13664e-18
1.51861e-18
1.5831e-18
2.41781e-18
2.45055e-18
1.75797e-18
1.63568e-18
1.47682e-18
2.45391e-18
3.45451e-18
3.05854e-18
1.77174e-18
1.23875e-18
1.41079e-18
2.0296e-18
1.63251e-18
1.20067e-18
1.2032e-18
1.60768e-18
3.029e-18
2.70893e-18
2.51029e-18
3.1938e-18
2.48497e-18
3.41358e-18
2.90761e-18
2.38462e-18
2.67654e-18
2.53627e-18
2.30161e-18
2.42655e-18
3.01407e-18
3.13023e-18
1.9184e-18
1.52357e-18
1.57432e-18
2.16924e-18
1.50256e-18
1.54584e-18
1.92674e-18
2.20125e-18
1.98146e-18
2.11643e-18
3.03774e-18
2.85041e-18
1.86147e-18
1.83807e-18
2.65204e-18
2.86158e-18
2.14547e-18
1.45831e-18
1.46374e-18
1.73025e-18
2.16595e-18
1.87324e-18
2.07112e-18
1.50351e-18
1.36321e-18
1.77211e-18
2.13527e-18
2.97571e-18
3.02623e-18
3.1595e-18
2.36808e-18
2.48282e-18
2.30817e-18
2.17185e-18
2.15076e-18
1.12642e-18
9.21453e-19
1.1084e-18
1.14823e-18
1.28343e-18
2.23243e-18
2.58575e-18
2.08288e-18
1.68378e-18
1.98627e-18
1.87717e-18
2.10482e-18
2.73725e-18
1.95983e-18
9.06874e-19
5.10937e-19
7.19704e-19
4.10494e-18
1.18361e-17
9.10893e-18
6.66383e-18
3.98738e-18
2.32904e-18
1.88247e-18
1.8976e-18
1.88584e-18
1.81541e-18
1.68403e-18
1.6536e-18
2.0185e-18
2.69265e-18
3.17523e-18
3.12666e-18
2.69666e-18
1.59546e-18
1.57651e-18
1.67561e-18
1.66356e-18
2.13301e-18
1.90702e-18
1.81241e-18
1.93357e-18
2.15062e-18
2.35774e-18
2.52888e-18
2.21613e-18
1.87428e-18
1.68039e-18
1.58049e-18
1.62207e-18
1.77106e-18
1.65873e-18
1.24796e-18
9.84356e-19
9.41492e-19
1.2751e-18
1.66875e-18
1.53264e-18
1.19902e-18
1.16691e-18
1.42017e-18
1.65378e-18
1.5063e-18
1.01597e-18
7.91896e-19
9.62104e-19
1.65195e-18
1.02363e-18
8.66869e-19
7.91906e-19
8.61231e-19
1.24411e-18
1.58503e-18
1.29683e-18
1.16232e-18
1.77274e-18
3.32382e-18
5.28087e-18
6.28879e-18
4.86884e-18
2.98838e-18
1.93847e-18
1.30714e-18
1.06379e-18
1.15826e-18
1.35876e-18
1.70983e-18
1.748e-18
1.62109e-18
1.47241e-18
1.32574e-18
1.14109e-18
1.09483e-18
1.4093e-18
1.77002e-18
1.88056e-18
1.89806e-18
2.12365e-18
2.90979e-18
4.44269e-18
3.63956e-18
2.31999e-18
1.56676e-18
1.28769e-18
1.16116e-18
1.20047e-18
1.59684e-18
2.36678e-18
2.79648e-18
3.21001e-18
2.30186e-18
1.63919e-18
1.51834e-18
1.76895e-18
2.04594e-18
2.09443e-18
1.9733e-18
1.82544e-18
1.66302e-18
1.44312e-18
1.25115e-18
1.09383e-18
8.15864e-19
6.16189e-19
9.14675e-19
2.11455e-18
5.73857e-18
6.42472e-18
4.15501e-18
2.69514e-18
2.23862e-18
1.85259e-18
1.21443e-18
1.30324e-18
1.35905e-18
1.60441e-18
1.6045e-18
1.63551e-18
1.71717e-18
1.45414e-18
1.26408e-18
1.55904e-18
2.21498e-18
3.18838e-18
4.16406e-18
4.13314e-18
3.17488e-18
1.94589e-18
1.12598e-18
8.03763e-19
9.20361e-19
1.20453e-18
1.5972e-18
1.83277e-18
1.76105e-18
1.45392e-18
1.16939e-18
1.08585e-18
1.28642e-18
1.50704e-18
1.47481e-18
1.64568e-18
1.60584e-18
1.30622e-18
1.12731e-18
1.09861e-18
1.42831e-18
1.3865e-18
1.41865e-18
1.44776e-18
1.46337e-18
1.58891e-18
1.39637e-18
1.63212e-18
1.75934e-18
1.66186e-18
1.74238e-18
1.97237e-18
1.90597e-18
1.47111e-18
1.18559e-18
1.35114e-18
1.70271e-18
1.77526e-18
1.84984e-18
2.43884e-18
2.31977e-18
1.80631e-18
1.53004e-18
1.46395e-18
1.53885e-18
1.42901e-18
1.22792e-18
1.30116e-18
1.71467e-18
1.94684e-18
2.14617e-18
2.40891e-18
2.01508e-18
1.33949e-18
7.02896e-19
9.43364e-19
1.63961e-18
1.93148e-18
1.55255e-18
1.7844e-18
2.02922e-18
1.85304e-18
1.97375e-18
2.60302e-18
1.60309e-18
1.27213e-18
1.59701e-18
1.92746e-18
1.52627e-18
7.02764e-19
9.00332e-19
7.64462e-19
4.31561e-19
8.69493e-19
1.4822e-18
1.31766e-18
1.77592e-18
1.94313e-18
1.15576e-18
1.52783e-18
7.06554e-19
9.19404e-19
3.41358e-18
4.93639e-18
3.25842e-18
1.96125e-18
2.49603e-18
1.9627e-18
1.82272e-18
2.39372e-18
3.23951e-18
3.80892e-18
8.60244e-18
3.95277e-18
3.11394e-18
1.98029e-18
2.36428e-18
1.58748e-18
3.18194e-18
4.31087e-18
3.27632e-18
2.16568e-18
2.28819e-18
1.49818e-18
2.26426e-18
1.74956e-18
4.96994e-18
7.50836e-18
2.3661e-18
1.5845e-18
1.82132e-18
3.76008e-18
3.7344e-18
1.82785e-18
2.93372e-18
1.90289e-18
3.86343e-18
3.19855e-18
2.9448e-18
1.39027e-18
2.29234e-18
1.72036e-18
3.91068e-18
3.48757e-18
3.42013e-18
1.82481e-18
2.40681e-18
4.3914e-18
3.82028e-18
1.89389e-18
1.90249e-18
2.70996e-18
1.69838e-18
1.35459e-18
1.97057e-18
1.91185e-18
3.20837e-18
3.5075e-18
1.81628e-18
2.62288e-18
3.07011e-18
1.99229e-18
2.01107e-18
2.72813e-18
1.82371e-18
1.65951e-18
1.39081e-18
1.2104e-18
2.02411e-18