/*--------------------------------*- C++ -*----------------------------------*\
  =========                 |
  \\      /  F ield         | OpenFOAM: The Open Source CFD Toolbox
   \\    /   O peration     | Website:  https://openfoam.org
    \\  /    A nd           | Version:  7
     \\/     M anipulation  |
\*---------------------------------------------------------------------------*/
FoamFile
{
    version     2.0;
    format      ascii;
    class       volScalarField;
    location    "6000";
    object      k2Write;
}
// * * * * * * * * * * * * * * * * * * * * * * * * * * * * * * * * * * * * * //

dimensions      [0 2 0 0 0 0 0];

internalField   nonuniform List<scalar> 
160000
(
1.43524e-18
2.02402e-18
1.70239e-18
2.53706e-18
3.63513e-18
1.72335e-18
2.78205e-18
1.20677e-18
1.85138e-18
3.92381e-18
3.00907e-18
2.07018e-18
3.85682e-18
3.5424e-18
1.215e-18
1.74019e-18
1.19634e-18
1.25892e-18
2.66992e-18
2.46774e-18
2.14341e-18
2.0117e-18
2.48809e-18
3.44874e-18
2.69295e-18
4.09863e-18
4.2546e-18
2.66043e-18
3.23132e-18
1.82415e-18
1.61142e-18
2.3982e-18
5.19285e-18
2.59119e-18
2.19712e-18
3.23675e-18
3.65022e-18
5.2457e-18
1.49835e-18
2.26144e-18
2.24402e-18
2.21913e-18
3.36611e-18
1.89772e-18
3.57211e-18
3.50421e-18
2.39851e-18
1.35236e-18
2.52886e-18
1.51998e-18
2.677e-18
6.13207e-18
3.96136e-18
2.97219e-18
5.38602e-18
1.92506e-18
4.44442e-18
1.30744e-18
1.17405e-18
1.85065e-18
7.49141e-18
2.12454e-18
1.98261e-18
1.54457e-18
1.21222e-18
4.4493e-18
2.97186e-18
3.63883e-18
9.46365e-19
5.72449e-19
4.97585e-18
1.64066e-18
4.27586e-18
2.13452e-18
3.17592e-18
2.37025e-18
3.15605e-18
2.11252e-18
4.05894e-18
2.43172e-18
4.47399e-18
5.74712e-18
2.94361e-18
2.36752e-18
2.3547e-18
2.06451e-18
2.02257e-18
1.31997e-18
2.05066e-18
3.24235e-18
1.31712e-18
4.41738e-18
5.32679e-18
4.35064e-18
2.90541e-18
1.466e-18
2.61111e-18
1.80411e-18
1.86211e-18
1.23092e-18
2.17824e-18
9.44031e-19
3.53057e-18
1.91435e-18
1.25106e-18
2.87262e-18
1.16439e-18
2.82076e-18
3.44419e-18
3.3045e-18
3.80996e-18
1.38639e-18
4.0035e-18
1.99036e-18
1.7838e-18
2.43371e-18
1.56077e-18
2.39074e-18
4.39393e-18
2.74369e-18
2.08698e-18
1.54896e-18
2.79755e-18
3.40783e-18
4.33498e-18
6.84265e-18
4.5643e-18
1.95201e-18
2.55313e-18
2.63523e-18
1.843e-18
1.61617e-18
3.17546e-18
6.36464e-18
3.59184e-18
2.88132e-18
1.7437e-18
2.34106e-18
1.50027e-18
1.05715e-18
3.05454e-18
3.85369e-18
8.19232e-19
3.02291e-18
5.87744e-18
2.98395e-18
3.21134e-18
2.99656e-18
2.35043e-18
1.43366e-18
1.23992e-18
2.07431e-18
1.33859e-18
3.14977e-18
1.12664e-18
2.68642e-18
2.79925e-18
4.84528e-18
3.13766e-18
3.46987e-18
2.00038e-18
2.40763e-18
1.79283e-18
3.76375e-18
1.16078e-18
3.33178e-18
3.19033e-18
1.88792e-18
2.58684e-18
1.82854e-18
5.24286e-18
5.32963e-18
2.10874e-18
5.48178e-18
2.91892e-18
1.73907e-18
2.44102e-18
2.63741e-18
5.62907e-18
4.64515e-18
1.13178e-18
3.74369e-18
1.52811e-18
1.19404e-18
1.37236e-18
1.55648e-18
1.88594e-18
1.70763e-18
1.42048e-18
2.78134e-18
2.96601e-18
1.8421e-18
2.17149e-18
3.62094e-18
4.56093e-18
1.20845e-18
2.97453e-18
1.03614e-17
8.14949e-18
5.23303e-18
2.88676e-18
1.58608e-18
1.34293e-18
1.56491e-18
2.30632e-18
4.32281e-18
4.32451e-18
2.34696e-18
1.78291e-18
1.69782e-18
1.8474e-18
1.78629e-18
1.56232e-18
1.68409e-18
2.086e-18
1.90394e-18
1.76916e-18
3.26934e-18
6.27484e-18
7.69367e-18
5.73449e-18
2.55598e-18
7.86746e-19
7.84398e-19
1.05419e-18
1.5912e-18
2.83661e-18
1.19476e-18
3.01908e-18
2.03642e-18
6.9311e-19
1.85288e-18
1.43406e-18
2.62003e-18
2.51895e-18
3.00521e-18
1.5584e-18
2.26268e-18
1.1973e-18
2.04177e-18
1.45815e-18
1.26506e-18
2.04638e-18
1.81312e-18
3.07032e-18
3.11973e-18
4.49433e-18
3.94545e-18
7.44476e-18
4.50618e-18
3.02094e-18
1.64604e-18
9.08758e-19
7.9791e-19
1.05725e-18
1.87709e-18
1.67464e-18
1.11855e-18
2.54598e-18
1.1088e-17
1.53032e-17
4.52886e-18
1.51273e-18
8.92199e-19
1.39172e-18
3.38024e-18
3.14885e-18
1.13827e-18
2.36361e-18
8.62235e-18
2.28611e-18
1.35836e-18
1.99399e-18
1.60491e-18
1.03723e-18
1.04063e-18
2.35436e-18
7.42738e-18
3.41101e-18
2.31337e-18
1.50814e-18
1.9049e-18
2.47356e-18
3.36965e-18
3.36003e-18
2.31484e-18
2.97264e-18
1.71514e-18
2.21664e-18
2.91221e-18
2.44656e-18
8.39694e-19
1.79213e-18
2.36996e-18
2.59573e-18
2.91898e-18
3.4337e-18
1.22036e-18
4.06173e-18
2.95745e-18
9.11017e-18
3.13571e-17
1.03316e-17
6.39877e-18
3.35589e-18
1.84713e-18
1.23242e-18
1.26981e-18
1.4334e-18
1.83276e-18
2.11207e-18
1.73334e-18
1.77221e-18
3.44784e-18
5.31157e-18
6.92962e-18
5.63344e-18
1.98677e-18
9.86783e-19
1.33705e-18
1.16916e-18
1.33202e-18
1.56402e-18
5.96151e-18
1.36223e-17
1.37384e-17
8.47284e-18
5.15461e-18
3.67213e-18
2.77623e-18
1.99067e-18
2.04652e-18
2.0885e-18
1.89085e-18
1.99834e-18
2.03888e-18
2.0263e-18
2.9478e-18
6.10739e-18
3.97239e-18
1.23254e-18
1.22701e-18
1.73331e-18
1.98209e-18
4.53739e-18
3.31756e-18
3.90976e-18
6.85264e-18
5.34539e-18
4.07506e-18
2.65197e-18
1.55527e-18
1.89264e-18
2.0514e-18
2.84359e-18
3.01861e-18
2.75918e-18
2.83289e-18
2.58321e-18
1.60092e-18
1.23653e-18
1.40737e-18
2.06683e-18
1.82044e-18
3.79503e-18
4.85295e-18
3.28112e-18
8.07924e-18
8.21443e-18
3.19248e-18
2.03588e-18
2.44292e-18
2.57107e-18
5.42138e-18
2.13593e-18
3.7314e-18
1.80422e-18
1.86171e-18
1.39331e-18
1.6556e-18
2.09239e-18
1.80842e-18
1.68746e-18
2.9455e-18
3.45335e-18
3.3521e-18
3.98251e-18
3.59083e-18
2.50145e-18
2.31295e-18
3.04615e-18
2.38223e-18
3.6331e-18
2.69645e-18
1.7351e-18
5.80891e-18
2.46615e-18
5.37359e-19
9.92378e-19
5.93564e-19
5.34051e-18
1.2106e-18
1.94332e-18
1.52798e-18
1.38811e-18
1.88034e-18
3.10816e-18
2.19931e-18
2.23862e-18
2.55631e-18
2.95023e-18
1.83234e-18
2.25882e-18
2.74141e-18
4.09379e-18
1.53286e-18
1.59056e-18
5.69768e-18
5.04014e-18
3.26162e-18
1.87142e-18
2.30008e-18
3.17907e-18
2.9807e-18
1.20775e-18
2.3988e-18
6.72612e-18
5.44039e-18
2.80223e-18
3.77141e-18
2.80285e-18
1.88139e-18
2.29779e-18
1.6972e-18
1.25386e-18
3.62694e-18
4.85557e-18
5.98206e-19
3.14873e-18
4.77038e-18
2.33307e-18
1.59301e-18
2.98111e-18
1.4878e-18
3.63364e-18
5.46418e-18
2.62897e-18
1.34756e-18
2.41667e-18
3.85141e-18
1.98756e-18
2.85948e-18
2.07842e-18
5.85352e-18
1.09312e-18
2.78112e-18
3.16459e-18
1.61595e-18
2.10266e-18
2.19292e-18
2.40975e-18
2.74528e-18
1.57769e-18
1.50023e-18
2.52091e-18
2.09342e-18
1.42287e-18
4.14868e-18
4.04343e-18
5.82537e-18
4.97739e-18
3.03517e-18
1.42611e-18
2.23182e-18
1.97414e-18
2.91273e-18
1.90532e-18
1.98856e-18
2.10864e-18
4.17108e-18
3.11012e-18
2.5239e-18
2.64677e-18
2.82129e-18
6.44805e-18
5.60438e-18
1.69739e-18
2.04774e-18
2.42143e-18
3.54281e-18
4.3286e-18
3.29517e-18
5.87749e-18
3.8261e-18
1.86034e-18
3.0224e-18
2.32794e-18
2.83227e-18
2.41263e-18
1.52277e-18
2.94752e-18
2.10803e-18
1.58282e-18
5.94027e-18
2.81477e-18
1.77517e-18
3.49365e-18
4.08509e-18
2.82837e-18
3.10617e-18
2.42097e-18
1.35046e-18
1.79447e-18
1.76252e-18
2.22217e-18
2.4727e-18
2.54539e-18
3.10096e-18
3.508e-18
5.14446e-18
4.38473e-18
2.2887e-18
2.18792e-18
2.18867e-18
2.11125e-18
2.44015e-18
2.21762e-18
1.77016e-18
2.41781e-18
1.84856e-18
1.43778e-18
1.10898e-18
5.4782e-18
6.77757e-18
3.41189e-18
1.81674e-18
5.74933e-18
1.9775e-18
1.29413e-18
1.88583e-18
3.07792e-18
3.99819e-18
3.30613e-18
3.9698e-18
3.58022e-18
1.7158e-18
2.64983e-18
2.05213e-18
1.6825e-18
1.44054e-18
4.52235e-18
1.32506e-18
1.56206e-18
2.44336e-18
2.62003e-18
3.71977e-18
2.29535e-18
3.37962e-18
1.89558e-18
3.27478e-18
2.97764e-18
3.58036e-18
2.47579e-18
2.0232e-18
1.98522e-18
3.32211e-18
4.68093e-18
2.55333e-18
3.23361e-18
2.61418e-18
2.38448e-18
1.86879e-18
1.39096e-18
4.85515e-18
2.59669e-18
2.7587e-18
2.87629e-18
2.1712e-18
2.71647e-18
2.06482e-18
1.80493e-18
2.40763e-18
1.4092e-18
1.06432e-18
3.1384e-18
2.56077e-18
2.81032e-18
1.78845e-18
3.5151e-18
8.54688e-18
5.6964e-18
2.27055e-18
2.05961e-18
3.39582e-18
4.66251e-18
6.41721e-18
1.33547e-17
1.71085e-17
6.19343e-18
4.09803e-18
2.44788e-18
2.02582e-18
2.1903e-18
2.99992e-18
4.45401e-18
4.70286e-18
3.78098e-18
2.66603e-18
1.9974e-18
1.82904e-18
1.64684e-18
1.46806e-18
1.50124e-18
1.65564e-18
1.64071e-18
1.59334e-18
1.84781e-18
2.28205e-18
2.34985e-18
1.97598e-18
1.47358e-18
1.00816e-18
9.19689e-19
1.15584e-18
1.76151e-18
2.38036e-18
2.893e-18
1.9224e-18
2.98781e-18
2.6294e-18
2.532e-18
2.51649e-18
5.46625e-18
4.53058e-18
1.46069e-18
1.63538e-18
2.13788e-18
2.21961e-18
1.30158e-18
1.56e-18
1.23161e-18
1.49661e-18
3.594e-18
3.68599e-18
2.01997e-18
6.17401e-18
9.33405e-18
1.32348e-17
8.57286e-18
5.09604e-18
3.03614e-18
1.96016e-18
2.01767e-18
1.77811e-18
1.65406e-18
1.77975e-18
1.74843e-18
2.32434e-18
4.71562e-18
6.59381e-18
3.82569e-18
1.74032e-18
1.41169e-18
1.82438e-18
3.05561e-18
3.20879e-18
1.37863e-18
1.81752e-18
6.11784e-18
5.01886e-18
2.03117e-18
1.80007e-18
2.07252e-18
1.23417e-18
1.13102e-18
1.78289e-18
4.09483e-18
5.60073e-18
3.03983e-18
2.03687e-18
2.21825e-18
2.81869e-18
3.49804e-18
4.06961e-18
3.4841e-18
2.12042e-18
1.32365e-18
1.02497e-18
1.20645e-18
1.45702e-18
1.26972e-18
1.75026e-18
2.5775e-18
2.62907e-18
1.28458e-18
3.32416e-18
5.03357e-18
3.68866e-18
4.9637e-18
2.49836e-17
5.3997e-17
1.80447e-17
5.17379e-18
2.4995e-18
1.42736e-18
1.26499e-18
1.30063e-18
1.38786e-18
1.48948e-18
1.68607e-18
1.8418e-18
1.98759e-18
2.71409e-18
3.54933e-18
3.80835e-18
2.89267e-18
1.51251e-18
9.86476e-19
1.24507e-18
1.61011e-18
1.62835e-18
2.00925e-18
5.77643e-18
1.75687e-17
1.19073e-17
6.32571e-18
3.82874e-18
3.42014e-18
2.92142e-18
2.2014e-18
2.19898e-18
2.34678e-18
2.07729e-18
2.06591e-18
2.19868e-18
1.99179e-18
2.11261e-18
2.71779e-18
2.50056e-18
1.72214e-18
1.65528e-18
2.46944e-18
2.37984e-18
3.06425e-18
3.86619e-18
4.59875e-18
4.70547e-18
3.18823e-18
2.62385e-18
2.0301e-18
1.37065e-18
1.23425e-18
1.56262e-18
2.32423e-18
2.39147e-18
1.78409e-18
1.64067e-18
1.8203e-18
1.75184e-18
1.495e-18
1.50881e-18
1.89026e-18
2.13106e-18
2.68909e-18
4.3333e-18
4.25464e-18
3.82387e-18
3.97596e-18
2.05443e-18
1.22978e-18
1.29096e-18
1.17071e-18
1.4453e-18
1.46579e-18
1.96295e-18
1.49053e-18
1.88375e-18
2.54323e-18
1.4823e-18
1.99248e-18
3.44106e-18
9.85788e-19
3.96535e-18
2.29542e-18
1.18465e-18
2.97792e-18
2.00543e-18
1.70802e-18
2.55052e-18
4.22977e-18
2.01991e-18
3.17052e-18
4.48045e-18
2.36035e-18
2.0103e-18
5.16722e-18
1.09017e-18
1.57263e-18
3.23076e-19
5.20628e-19
9.53069e-19
7.96653e-19
2.6655e-18
1.03526e-18
3.59785e-18
1.05902e-18
2.25032e-18
3.5429e-18
1.45154e-18
3.6153e-18
5.83323e-18
3.24683e-18
2.04603e-18
3.9929e-18
6.65527e-18
3.06361e-18
5.7339e-18
3.67982e-18
1.96806e-18
3.665e-18
2.32023e-18
2.50973e-18
1.57793e-18
1.27134e-18
1.44314e-18
1.98428e-18
2.37412e-18
2.75826e-18
5.79446e-18
2.42166e-18
2.17715e-18
2.96373e-18
2.74395e-18
2.81047e-18
1.27183e-18
2.00958e-18
2.38402e-18
1.61233e-18
1.6529e-18
2.16258e-18
2.76091e-18
2.63958e-18
2.48622e-18
2.30458e-18
5.71683e-18
1.71343e-18
1.38566e-18
1.52219e-18
3.18512e-18
5.35154e-18
2.41695e-18
1.55394e-18
1.66668e-18
2.33609e-18
2.93811e-18
3.27526e-18
5.28426e-18
4.08842e-18
5.38121e-18
1.76535e-18
1.97401e-18
2.48258e-18
3.36333e-18
1.33235e-18
1.68137e-18
3.3219e-18
1.40939e-18
1.20481e-18
9.66004e-19
2.03868e-18
1.10276e-18
3.30274e-18
2.47853e-18
1.0255e-18
1.59378e-18
2.58621e-18
2.68788e-18
3.81528e-18
5.21719e-18
2.63251e-18
3.41124e-18
3.83392e-18
3.3527e-18
1.67901e-18
2.82223e-18
2.20788e-18
3.74422e-18
3.39013e-18
1.62148e-18
1.49867e-18
3.00644e-18
1.71741e-18
1.234e-18
2.00729e-18
1.01975e-18
1.00299e-18
1.89561e-18
2.34616e-18
2.40599e-18
1.78002e-18
1.84011e-18
2.91188e-18
1.96392e-18
3.00373e-18
3.72983e-18
2.40449e-18
2.01448e-18
1.53447e-18
2.45241e-18
3.37193e-18
2.2063e-18
2.32778e-18
1.6935e-18
1.3902e-18
2.36886e-18
2.06653e-18
2.48735e-18
2.78527e-18
2.2879e-18
1.8548e-18
1.513e-18
1.67407e-18
2.01543e-18
1.74114e-18
1.50659e-18
1.56615e-18
1.54993e-18
2.16731e-18
2.13945e-18
1.55038e-18
2.14713e-18
3.58127e-18
3.6433e-18
2.4664e-18
2.49022e-18
2.24748e-18
2.81959e-18
2.88528e-18
1.9746e-18
2.13473e-18
3.79859e-18
6.09776e-18
3.1187e-18
3.34523e-18
4.17558e-18
2.5149e-18
2.38218e-18
2.32316e-18
2.02644e-18
1.96242e-18
2.94902e-18
1.9636e-18
2.58315e-18
5.46117e-18
4.36404e-18
1.68667e-18
2.68143e-18
2.27419e-18
1.84878e-18
1.66706e-18
1.48394e-18
2.7692e-18
2.6395e-18
2.36561e-18
2.25483e-18
2.32896e-18
2.5327e-18
2.67608e-18
4.06685e-18
4.47363e-18
3.18847e-18
3.00024e-18
2.24522e-18
1.32476e-18
9.94673e-19
2.32514e-18
4.10161e-18
3.39718e-18
2.00295e-18
1.93466e-18
1.46903e-18
1.13424e-18
1.63669e-18
2.60323e-18
2.57029e-18
3.22774e-18
3.61325e-18
5.87518e-18
1.1889e-17
9.70793e-18
2.63935e-18
1.87505e-18
2.2403e-18
3.18801e-18
4.55494e-18
5.93437e-18
7.09227e-18
7.88004e-18
5.43297e-18
3.29332e-18
2.4311e-18
2.44741e-18
2.79694e-18
3.05303e-18
2.77591e-18
2.33677e-18
1.98685e-18
1.79906e-18
1.73227e-18
1.52812e-18
1.22126e-18
1.27314e-18
1.42424e-18
1.48569e-18
1.41865e-18
1.51908e-18
1.65614e-18
1.45714e-18
1.10989e-18
1.15032e-18
1.64798e-18
2.31795e-18
2.50118e-18
2.35887e-18
2.03275e-18
1.95138e-18
1.77968e-18
2.18325e-18
2.93736e-18
1.99516e-18
1.61523e-18
2.36601e-18
2.59879e-18
1.60271e-18
2.09981e-18
2.34675e-18
1.41501e-18
1.22788e-18
1.63235e-18
2.89937e-18
3.34239e-18
2.70074e-18
3.70313e-18
3.22954e-18
4.88604e-18
7.40677e-18
2.3433e-17
1.72193e-17
4.83936e-18
2.45024e-18
1.27557e-18
1.64395e-18
1.93511e-18
1.83686e-18
1.65552e-18
1.63447e-18
1.77638e-18
2.29356e-18
2.75155e-18
2.12743e-18
1.59183e-18
1.76673e-18
2.28744e-18
2.81854e-18
2.83336e-18
2.4433e-18
2.3954e-18
3.33046e-18
2.98354e-18
1.68081e-18
1.49857e-18
2.10271e-18
2.60221e-18
2.28936e-18
2.29013e-18
2.84259e-18
4.20466e-18
4.35199e-18
3.02879e-18
2.39828e-18
2.5034e-18
2.87016e-18
2.55226e-18
1.7489e-18
1.24638e-18
1.31039e-18
1.3856e-18
1.35513e-18
1.5777e-18
2.02794e-18
2.49594e-18
2.65273e-18
2.55035e-18
3.23253e-18
7.06345e-18
2.14837e-17
1.35317e-17
7.21299e-18
2.0111e-17
2.96548e-17
9.15112e-18
3.23429e-18
1.566e-18
1.48816e-18
1.88108e-18
2.12993e-18
2.04578e-18
1.73976e-18
1.6603e-18
1.90679e-18
2.22622e-18
2.36019e-18
2.3953e-18
2.17542e-18
1.64739e-18
1.22786e-18
1.30833e-18
1.96153e-18
2.68042e-18
2.74436e-18
3.2103e-18
5.50113e-18
7.59577e-18
7.38497e-18
4.60638e-18
2.34812e-18
1.73697e-18
1.81211e-18
1.69904e-18
1.68687e-18
2.05264e-18
2.29985e-18
1.83151e-18
1.51466e-18
1.45164e-18
1.4567e-18
1.79338e-18
2.32556e-18
2.49298e-18
2.27947e-18
2.17066e-18
2.24945e-18
2.87847e-18
3.79725e-18
3.27011e-18
2.77726e-18
2.9846e-18
2.59276e-18
1.53743e-18
1.00611e-18
1.30344e-18
1.89331e-18
2.71765e-18
2.86739e-18
1.8461e-18
1.51074e-18
1.99073e-18
2.3152e-18
1.69981e-18
1.04536e-18
1.22862e-18
2.0893e-18
3.31569e-18
3.98601e-18
3.06235e-18
1.6761e-18
1.53407e-18
1.89258e-18
1.53684e-18
1.7321e-18
2.65413e-18
3.11562e-18
2.60727e-18
2.41036e-18
2.20603e-18
1.79526e-18
1.51887e-18
1.12857e-18
1.26285e-18
2.0617e-18
1.47383e-18
1.78001e-18
2.62341e-18
3.13668e-18
1.96015e-18
1.47396e-18
2.61362e-18
3.00067e-18
3.19021e-18
2.33367e-18
1.74208e-18
3.88548e-18
3.9016e-18
2.88125e-18
3.73544e-18
2.64502e-18
1.30623e-18
1.85804e-18
5.25032e-19
2.5485e-19
4.49945e-18
3.90536e-18
4.39304e-18
4.80378e-18
5.01292e-18
4.6685e-18
3.28519e-18
5.0503e-18
3.21988e-18
4.1892e-18
1.88292e-18
2.09237e-18
2.35846e-18
1.9658e-18
5.62598e-18
3.2676e-18
4.44018e-18
3.67775e-18
2.9899e-18
3.04875e-18
1.70912e-18
5.49873e-18
1.58975e-18
2.81927e-18
5.11002e-18
1.33439e-18
1.93693e-18
3.09271e-18
1.6424e-18
6.87333e-19
1.41766e-18
1.90874e-18
2.95984e-18
3.78749e-18
4.17538e-18
2.89011e-18
3.0506e-18
9.40933e-19
2.33196e-18
5.83694e-18
5.62191e-18
3.40856e-18
2.77482e-18
2.95008e-18
3.41374e-18
2.45472e-18
2.47009e-18
1.86084e-18
2.28416e-18
1.97966e-18
4.87255e-18
3.15582e-18
1.13268e-18
3.06418e-18
2.39694e-18
1.72148e-18
1.61985e-18
2.34616e-18
2.28176e-18
3.57187e-18
2.85309e-18
4.53886e-18
1.94542e-18
1.68217e-18
2.0909e-18
2.54052e-18
2.56549e-18
2.57803e-18
3.10262e-18
2.89725e-18
9.94744e-19
1.36241e-18
2.11553e-18
3.65271e-18
5.2451e-18
3.18627e-18
1.63293e-18
3.06091e-18
1.77675e-18
1.12208e-18
4.15358e-18
3.16459e-18
2.34723e-18
2.25464e-18
4.94019e-18
4.9472e-18
4.59212e-18
4.60446e-18
2.63606e-18
4.10788e-18
1.86258e-18
3.21719e-18
2.34912e-18
2.06581e-18
1.95595e-18
3.02662e-18
1.34655e-18
1.63168e-18
2.98375e-18
4.84202e-18
2.54942e-18
3.50943e-18
4.16058e-18
3.328e-18
4.09696e-18
3.82881e-18
2.67701e-18
2.19545e-18
2.41443e-18
2.32624e-18
1.96564e-18
3.18592e-18
2.2115e-18
1.70197e-18
2.11526e-18
2.85462e-18
3.26894e-18
4.24212e-18
3.10404e-18
1.84442e-18
1.85086e-18
1.98457e-18
2.09995e-18
1.3859e-18
2.88462e-18
3.53051e-18
3.16175e-18
2.02803e-18
1.8642e-18
2.16585e-18
2.17666e-18
2.92598e-18
2.56943e-18
3.0726e-18
3.0138e-18
1.98906e-18
2.64123e-18
2.3377e-18
1.94052e-18
2.11371e-18
2.29925e-18
1.35219e-18
2.41375e-18
3.58903e-18
4.01265e-18
4.31429e-18
2.66207e-18
1.69043e-18
1.75866e-18
3.28203e-18
2.1431e-18
2.07305e-18
1.53232e-18
1.798e-18
2.39008e-18
2.67118e-18
4.32046e-18
3.41363e-18
2.10037e-18
2.89147e-18
2.93906e-18
3.0302e-18
2.95118e-18
2.25645e-18
1.68989e-18
2.49344e-18
3.8911e-18
5.77106e-18
8.02164e-18
6.25867e-18
3.35095e-18
2.00424e-18
2.56011e-18
3.06748e-18
2.46014e-18
2.65669e-18
2.55156e-18
1.76325e-18
1.77581e-18
2.42571e-18
1.93232e-18
1.00299e-18
1.39404e-18
3.15661e-18
3.78317e-18
4.23066e-18
5.33639e-18
9.70437e-18
4.79963e-18
2.01061e-18
1.72565e-18
1.82378e-18
2.34102e-18
2.46009e-18
2.37454e-18
2.73893e-18
3.58267e-18
4.4839e-18
4.74497e-18
3.6885e-18
2.72026e-18
2.79154e-18
2.92158e-18
3.39452e-18
2.89783e-18
2.3116e-18
1.96091e-18
1.8611e-18
1.77707e-18
1.57839e-18
1.61511e-18
1.98374e-18
2.31265e-18
2.0713e-18
1.62172e-18
1.39406e-18
1.22854e-18
1.13277e-18
1.2012e-18
1.60147e-18
2.45823e-18
3.59672e-18
3.64666e-18
2.70537e-18
2.02521e-18
1.59671e-18
1.41316e-18
1.39236e-18
1.44323e-18
1.53779e-18
1.75423e-18
1.42429e-18
9.98599e-19
1.26577e-18
1.68473e-18
1.63758e-18
1.72666e-18
1.79193e-18
1.43122e-18
1.43975e-18
1.52951e-18
1.75236e-18
3.22239e-18
4.33713e-18
7.61945e-18
1.65635e-17
1.84883e-17
4.54877e-18
2.34334e-18
1.09753e-18
1.26095e-18
1.60101e-18
1.70207e-18
1.71577e-18
1.85661e-18
2.23529e-18
2.73366e-18
2.72472e-18
2.27744e-18
1.65593e-18
1.51789e-18
1.99455e-18
2.86842e-18
3.6425e-18
3.00361e-18
2.41425e-18
2.44785e-18
2.96279e-18
3.28206e-18
2.9075e-18
3.39525e-18
3.24949e-18
1.83572e-18
1.0609e-18
1.42234e-18
2.52082e-18
3.68744e-18
3.90479e-18
2.6522e-18
2.08157e-18
1.73937e-18
1.56845e-18
1.6029e-18
1.71723e-18
1.75326e-18
1.47243e-18
1.29245e-18
1.53182e-18
2.19928e-18
2.47694e-18
2.1715e-18
2.26468e-18
3.51956e-18
9.13397e-18
2.3045e-17
1.9373e-17
6.45573e-18
3.63932e-18
3.42847e-18
3.46829e-18
2.33881e-18
2.25453e-18
2.15369e-18
2.49555e-18
2.53745e-18
2.40048e-18
2.07954e-18
1.81911e-18
1.89192e-18
2.09327e-18
2.17574e-18
2.24521e-18
2.34087e-18
2.39405e-18
1.82219e-18
1.52383e-18
1.5036e-18
1.60538e-18
2.14893e-18
3.47163e-18
5.29781e-18
4.71258e-18
3.19578e-18
2.42518e-18
1.53002e-18
1.40947e-18
1.62706e-18
1.90424e-18
2.04417e-18
1.93043e-18
1.92733e-18
2.12029e-18
2.40675e-18
2.81444e-18
3.60853e-18
4.25804e-18
3.90959e-18
3.63924e-18
3.17261e-18
2.16409e-18
1.6055e-18
1.74046e-18
2.16837e-18
3.01608e-18
3.99623e-18
2.98786e-18
1.93869e-18
1.27042e-18
1.0537e-18
1.03204e-18
1.18617e-18
1.30607e-18
1.46907e-18
1.74837e-18
1.78337e-18
1.89281e-18
2.03658e-18
2.24074e-18
2.63472e-18
3.06013e-18
2.4666e-18
2.07383e-18
2.1673e-18
2.31561e-18
2.60861e-18
1.75142e-18
1.64186e-18
2.05695e-18
1.91584e-18
2.49807e-18
2.75615e-18
2.15414e-18
1.98254e-18
1.74222e-18
1.74982e-18
1.72094e-18
1.03638e-18
8.31676e-19
1.55714e-18
2.61706e-18
2.22544e-18
1.05432e-18
3.37791e-18
4.6469e-18
2.63129e-18
1.4944e-18
1.78724e-18
2.51646e-18
1.64597e-18
2.98036e-18
2.00779e-18
1.44273e-18
1.36498e-18
2.67384e-18
2.16302e-18
1.88562e-18
1.60129e-18
1.44598e-18
5.91052e-19
5.10171e-19
3.2861e-18
3.69262e-18
4.8017e-18
2.57174e-18
2.25228e-18
2.13377e-18
1.38274e-18
3.09856e-18
2.52345e-18
1.41962e-18
1.56019e-18
5.63767e-19
4.36946e-18
6.62025e-18
1.90878e-18
1.31787e-18
3.71321e-18
3.59968e-18
5.35096e-18
6.07624e-18
2.13851e-18
1.67593e-18
1.13915e-18
1.80075e-18
1.80736e-18
1.05225e-18
3.18648e-18
4.61412e-18
2.45033e-18
3.18354e-18
2.50891e-18
1.33748e-18
2.29743e-18
3.72834e-18
2.71699e-18
1.23157e-18
2.02828e-18
3.16344e-18
5.15157e-18
3.18946e-18
2.20999e-18
3.53939e-18
1.87622e-18
1.53659e-18
1.84495e-18
2.60554e-18
2.02585e-18
3.89169e-18
6.10661e-18
2.81036e-18
2.97679e-18
2.87087e-18
2.25767e-18
1.76524e-18
2.5921e-18
2.81443e-18
1.77651e-18
2.66734e-18
2.44752e-18
1.59844e-18
2.09622e-18
1.81407e-18
1.74296e-18
1.16592e-18
1.57339e-18
3.04982e-18
2.59982e-18
3.48751e-18
2.50835e-18
3.02521e-18
1.84972e-18
2.07652e-18
3.63751e-18
2.94166e-18
4.08151e-18
3.79348e-18
2.16606e-18
2.47661e-18
2.87365e-18
4.3481e-18
1.48828e-18
2.09568e-18
2.52766e-18
2.28448e-18
3.05703e-18
3.60514e-18
2.43887e-18
2.58538e-18
2.54626e-18
2.48308e-18
2.07272e-18
1.98465e-18
2.5421e-18
2.32281e-18
2.08271e-18
2.71309e-18
2.34352e-18
1.62192e-18
1.6946e-18
3.49912e-18
3.8723e-18
2.87401e-18
1.9327e-18
4.1701e-18
4.14624e-18
5.18203e-18
3.26557e-18
2.24288e-18
2.44912e-18
2.24699e-18
1.8403e-18
2.32164e-18
4.35005e-18
5.17052e-18
2.84963e-18
1.29333e-18
2.24468e-18
4.41944e-18
2.75543e-18
2.27666e-18
2.61368e-18
2.22042e-18
2.44916e-18
2.88472e-18
4.00135e-18
2.56216e-18
1.63228e-18
1.7672e-18
2.17018e-18
1.9299e-18
1.8278e-18
2.82556e-18
2.79717e-18
2.39751e-18
2.64693e-18
2.61149e-18
2.09461e-18
2.87562e-18
4.46902e-18
3.28375e-18
2.85097e-18
2.56312e-18
2.90335e-18
2.24632e-18
3.001e-18
3.17151e-18
2.03732e-18
1.99081e-18
2.62642e-18
2.33804e-18
2.13895e-18
2.55884e-18
2.95916e-18
3.28035e-18
3.28896e-18
3.52942e-18
2.75943e-18
1.60037e-18
1.68339e-18
3.05764e-18
3.98284e-18
4.07446e-18
3.24504e-18
1.54292e-18
1.13956e-18
2.44247e-18
4.25671e-18
5.62229e-18
4.61773e-18
4.16826e-18
2.27752e-18
2.21483e-18
2.09889e-18
2.07431e-18
2.71831e-18
2.41706e-18
2.19807e-18
2.22401e-18
2.31208e-18
2.64721e-18
3.19611e-18
2.73342e-18
1.99832e-18
1.73741e-18
1.79516e-18
4.38117e-18
5.10787e-18
2.47175e-18
1.78115e-18
1.38503e-18
1.40394e-18
1.90287e-18
2.03405e-18
1.63072e-18
1.3525e-18
1.63554e-18
2.29781e-18
2.8778e-18
3.69659e-18
3.67133e-18
3.04293e-18
3.6569e-18
3.76719e-18
4.14509e-18
4.0367e-18
2.2794e-18
1.79216e-18
1.8872e-18
2.21593e-18
2.72482e-18
3.43715e-18
3.50234e-18
2.96077e-18
2.12294e-18
1.55694e-18
1.54606e-18
1.78059e-18
2.04028e-18
2.3459e-18
2.63724e-18
2.54356e-18
2.60661e-18
2.72088e-18
2.28392e-18
1.62259e-18
1.39361e-18
1.50414e-18
1.67925e-18
1.62499e-18
1.6217e-18
1.68488e-18
1.37656e-18
1.14918e-18
1.72443e-18
2.98163e-18
2.25309e-18
1.63686e-18
1.61038e-18
2.005e-18
3.40661e-18
4.61095e-18
4.59812e-18
5.4841e-18
8.57748e-18
1.2175e-17
8.79791e-18
4.46595e-18
2.57184e-18
1.2727e-18
1.17059e-18
1.43846e-18
1.71551e-18
1.90768e-18
2.0571e-18
2.22965e-18
2.23401e-18
2.2388e-18
2.21017e-18
1.95086e-18
1.62355e-18
1.51143e-18
1.62922e-18
1.89295e-18
2.03669e-18
2.18482e-18
2.5295e-18
3.60955e-18
6.39828e-18
6.81179e-18
4.81374e-18
2.792e-18
1.49594e-18
1.32516e-18
1.90154e-18
3.18447e-18
4.29464e-18
3.28496e-18
2.70363e-18
1.92693e-18
1.41009e-18
1.3221e-18
1.46178e-18
1.48957e-18
1.39006e-18
1.47084e-18
1.92947e-18
2.60085e-18
2.48475e-18
1.85544e-18
1.63258e-18
1.86628e-18
2.97174e-18
7.32042e-18
1.56969e-17
1.06145e-17
4.29763e-18
2.86877e-18
1.95826e-18
1.61286e-18
1.76234e-18
2.46703e-18
3.57926e-18
4.29053e-18
4.52904e-18
2.99382e-18
2.07158e-18
1.53227e-18
1.47201e-18
1.7976e-18
2.33804e-18
3.12579e-18
4.15605e-18
5.21329e-18
5.1044e-18
3.77772e-18
2.69509e-18
2.81812e-18
3.39546e-18
4.24371e-18
5.0029e-18
4.60447e-18
3.71679e-18
2.79686e-18
1.78616e-18
1.40643e-18
1.67819e-18
2.14711e-18
2.74831e-18
2.55596e-18
2.22677e-18
1.69706e-18
1.51208e-18
2.18373e-18
2.73538e-18
3.0414e-18
2.78558e-18
3.14209e-18
3.72553e-18
2.43528e-18
1.77306e-18
1.95712e-18
2.63947e-18
2.95305e-18
2.79682e-18
1.97522e-18
1.29295e-18
1.18997e-18
1.29921e-18
1.29902e-18
1.31656e-18
1.71246e-18
2.24327e-18
2.14928e-18
1.90443e-18
1.63772e-18
1.86527e-18
2.3188e-18
2.5398e-18
2.41831e-18
2.46213e-18
2.3722e-18
1.8813e-18
2.0052e-18
2.22582e-18
2.6152e-18
3.0202e-18
2.6524e-18
2.95193e-18
2.91169e-18
2.41241e-18
2.32331e-18
2.16948e-18
1.82457e-18
1.18619e-18
6.99975e-19
1.0372e-18
2.04708e-18
1.67113e-18
1.9649e-18
2.85261e-18
3.01699e-18
2.70192e-18
3.58281e-18
3.09119e-18
1.41858e-18
1.5638e-18
2.65736e-18
4.15894e-18
2.92191e-18
2.15044e-18
2.50329e-18
2.34317e-18
2.86162e-18
1.38255e-18
1.06975e-18
2.52817e-18
2.13974e-18
1.51641e-18
1.92502e-19
4.29142e-19
1.2457e-18
1.18722e-18
4.50339e-18
3.04357e-18
1.89116e-18
2.93897e-18
1.30487e-18
1.5124e-18
8.00266e-19
1.86001e-18
3.24973e-18
1.74141e-18
4.61112e-18
4.00319e-18
4.38949e-18
5.63162e-18
1.80694e-18
2.10824e-18
2.74931e-18
4.39203e-18
3.97896e-18
4.19096e-18
2.00943e-18
1.10676e-18
1.8629e-18
1.8389e-18
8.88696e-19
1.98423e-18
1.55184e-18
5.49468e-18
2.15525e-18
2.22288e-18
2.4685e-18
2.64736e-18
3.82498e-18
2.03532e-18
2.17334e-18
3.19897e-18
4.43035e-18
3.56842e-18
2.33765e-18
2.43466e-18
1.59775e-18
1.84921e-18
2.63377e-18
2.51389e-18
2.17581e-18
2.43977e-18
3.32696e-18
5.87457e-18
3.30314e-18
1.85403e-18
2.96804e-18
3.07134e-18
2.07583e-18
2.92253e-18
2.98794e-18
2.18558e-18
1.81348e-18
2.3061e-18
1.8227e-18
1.56378e-18
2.54172e-18
1.67669e-18
2.67602e-18
4.76848e-18
3.02582e-18
2.73441e-18
4.1225e-18
5.3728e-18
3.44831e-18
4.14422e-18
3.59409e-18
2.12902e-18
2.86667e-18
4.60878e-18
2.8986e-18
2.06013e-18
1.71497e-18
1.97595e-18
3.02046e-18
2.95523e-18
2.21265e-18
2.48016e-18
3.58544e-18
3.93836e-18
4.06085e-18
5.35109e-18
4.01297e-18
2.45096e-18
1.9491e-18
3.38997e-18
4.13129e-18
2.20771e-18
1.87381e-18
1.80996e-18
1.10796e-18
1.39693e-18
1.72755e-18
1.16178e-18
1.6597e-18
2.79413e-18
4.27438e-18
4.33947e-18
2.49731e-18
1.78007e-18
1.70772e-18
2.84189e-18
4.0069e-18
3.27596e-18
1.90055e-18
1.35581e-18
1.81237e-18
2.57966e-18
1.88346e-18
1.38728e-18
1.44319e-18
2.20686e-18
4.16429e-18
3.72997e-18
3.46157e-18
4.41065e-18
3.43676e-18
4.72805e-18
3.82152e-18
3.14545e-18
3.10813e-18
2.41819e-18
2.19745e-18
2.32003e-18
2.88565e-18
3.00113e-18
1.84186e-18
1.52334e-18
2.95892e-18
4.08305e-18
2.83232e-18
2.91797e-18
2.52359e-18
2.38495e-18
2.1542e-18
2.42884e-18
3.36221e-18
3.15916e-18
2.18026e-18
2.45362e-18
3.5449e-18
3.50501e-18
2.63132e-18
1.82259e-18
2.09057e-18
2.499e-18
3.13232e-18
2.6297e-18
2.41708e-18
1.90029e-18
2.08616e-18
2.91832e-18
3.52085e-18
4.9128e-18
5.00274e-18
3.05516e-18
2.18473e-18
2.29335e-18
2.1344e-18
2.01077e-18
1.99362e-18
2.31801e-18
1.89858e-18
1.90952e-18
1.53817e-18
1.72121e-18
2.99728e-18
3.47464e-18
2.50127e-18
2.00651e-18
2.52758e-18
2.7162e-18
3.48209e-18
4.61105e-18
3.66698e-18
2.67139e-18
2.74043e-18
3.56883e-18
7.03261e-18
5.5574e-18
2.41662e-18
1.76987e-18
1.09123e-18
1.45307e-18
2.20737e-18
2.60294e-18
2.59191e-18
2.13934e-18
1.77038e-18
1.87602e-18
2.36145e-18
3.06093e-18
3.61305e-18
3.56145e-18
3.07457e-18
3.72912e-18
3.68834e-18
3.92426e-18
3.8997e-18
2.41374e-18
1.96238e-18
2.08848e-18
2.45006e-18
2.84182e-18
3.04958e-18
2.68418e-18
2.35425e-18
1.9928e-18
1.8142e-18
2.03362e-18
2.44165e-18
2.5138e-18
2.0857e-18
1.57048e-18
1.24021e-18
1.39203e-18
1.9192e-18
2.51374e-18
2.31058e-18
1.80445e-18
1.59664e-18
1.68139e-18
1.93192e-18
1.76084e-18
1.18861e-18
1.05205e-18
1.9304e-18
2.92493e-18
3.44848e-18
2.20563e-18
1.90917e-18
2.42939e-18
3.41263e-18
4.0043e-18
3.52765e-18
3.99123e-18
6.15661e-18
7.56203e-18
6.21609e-18
4.36913e-18
2.93756e-18
1.90967e-18
1.42683e-18
1.44072e-18
1.71094e-18
2.02837e-18
2.36408e-18
2.23342e-18
2.11278e-18
1.9605e-18
1.78183e-18
1.60528e-18
1.59466e-18
1.88026e-18
2.42174e-18
3.04335e-18
2.91761e-18
2.34713e-18
2.62764e-18
4.49055e-18
6.85979e-18
8.11191e-18
5.17387e-18
2.81794e-18
1.68291e-18
1.51827e-18
1.91323e-18
2.91226e-18
4.31872e-18
4.92756e-18
3.03758e-18
2.17919e-18
1.74907e-18
1.83291e-18
2.17323e-18
2.5148e-18
2.57547e-18
2.42771e-18
2.24673e-18
2.04781e-18
2.0379e-18
2.26664e-18
2.48787e-18
2.71399e-18
3.45042e-18
6.24449e-18
1.21069e-17
8.95808e-18
3.49447e-18
2.2605e-18
1.46707e-18
1.2614e-18
1.24004e-18
1.93998e-18
2.27338e-18
3.25864e-18
3.84847e-18
3.85019e-18
2.97093e-18
1.84311e-18
1.56494e-18
1.92892e-18
2.637e-18
3.74791e-18
4.41239e-18
4.34205e-18
4.3107e-18
3.31277e-18
2.03084e-18
1.53177e-18
1.73483e-18
2.27676e-18
2.98072e-18
3.03589e-18
2.43577e-18
1.76025e-18
1.41647e-18
1.48566e-18
1.9017e-18
2.52588e-18
2.95979e-18
2.89727e-18
2.25829e-18
1.85891e-18
1.51211e-18
1.30554e-18
1.77436e-18
2.30726e-18
2.95226e-18
3.02139e-18
3.08426e-18
2.7049e-18
1.72208e-18
1.77042e-18
2.07323e-18
2.23534e-18
2.01911e-18
2.11738e-18
2.39737e-18
1.98258e-18
1.525e-18
1.64434e-18
2.14242e-18
2.7002e-18
2.81645e-18
2.93452e-18
3.04286e-18
2.8844e-18
2.2463e-18
1.96391e-18
2.12969e-18
2.37209e-18
2.30666e-18
1.951e-18
1.7071e-18
1.99554e-18
2.26538e-18
2.49825e-18
2.80386e-18
2.34622e-18
1.5598e-18
1.54125e-18
2.06862e-18
3.5962e-18
4.23626e-18
2.70855e-18
2.26708e-18
1.99012e-18
1.67039e-18
1.77914e-18
2.34681e-18
1.53419e-18
1.44332e-18
1.94201e-18
2.21312e-18
1.75257e-18
9.61392e-19
1.35708e-18
1.14518e-18
7.18548e-19
1.51001e-18
2.57424e-18
2.28868e-18
3.08481e-18
3.37532e-18
2.00769e-18
2.65399e-18
1.47113e-18
2.16439e-18
6.26055e-18
3.51268e-18
8.64732e-19
2.38031e-19
3.02836e-19
1.71263e-18
1.8848e-18
2.38526e-18
3.34179e-18
3.93646e-18
8.10622e-18
3.73173e-18
3.11008e-18
2.06675e-18
2.27295e-18
1.6522e-18
3.25585e-18
4.23016e-18
3.22107e-18
2.14143e-18
2.21216e-18
1.61897e-18
2.4513e-18
1.89397e-18
4.98531e-18
7.23889e-18
2.37784e-18
1.74565e-18
2.0101e-18
3.9865e-18
4.0938e-18
2.14403e-18
3.42987e-18
2.27299e-18
4.15624e-18
2.97566e-18
2.78492e-18
1.35233e-18
2.15941e-18
2.19417e-18
4.94393e-18
4.62576e-18
3.95059e-18
2.0072e-18
2.52861e-18
3.92168e-18
3.41788e-18
1.86098e-18
2.00857e-18
2.68885e-18
1.70602e-18
1.59504e-18
2.32448e-18
2.25927e-18
3.76306e-18
4.20733e-18
2.18255e-18
3.13421e-18
3.51667e-18
2.27179e-18
2.25959e-18
2.8656e-18
1.92162e-18
1.84407e-18
1.62248e-18
1.47579e-18
2.37449e-18
3.57376e-18
2.94888e-18
1.25684e-18
2.11529e-18
3.56901e-18