/*--------------------------------*- C++ -*----------------------------------*\
  =========                 |
  \\      /  F ield         | OpenFOAM: The Open Source CFD Toolbox
   \\    /   O peration     | Website:  https://openfoam.org
    \\  /    A nd           | Version:  7
     \\/     M anipulation  |
\*---------------------------------------------------------------------------*/
FoamFile
{
    version     2.0;
    format      ascii;
    class       volScalarField;
    location    "6000";
    object      mu1;
}
// * * * * * * * * * * * * * * * * * * * * * * * * * * * * * * * * * * * * * //

dimensions      [1 -1 -1 0 0 0 0];

internalField   nonuniform List<scalar> 
160000
(
0.000914558
0.000913079
0.000911611
0.000910134
0.000908613
0.00090711
0.000905618
0.00090415
0.000902715
0.000901218
0.000899693
0.000898216
0.00089673
0.000895191
0.000893697
0.000892242
0.000890797
0.000889357
0.000887868
0.000886365
0.000884906
0.000883474
0.000882042
0.000880601
0.000879188
0.000877768
0.000876281
0.000874802
0.000873341
0.000871907
0.000870522
0.000869145
0.000867718
0.000866294
0.000864928
0.000863535
0.000862096
0.000860655
0.000859267
0.000857893
0.0008565
0.000855129
0.00085374
0.000852361
0.000850977
0.00084954
0.000848147
0.000846832
0.000845512
0.000844175
0.000842845
0.000841453
0.000840054
0.000838701
0.000837331
0.000835988
0.000834642
0.000833318
0.000832058
0.000830786
0.000829432
0.000828078
0.000826802
0.000825547
0.000824315
0.000823034
0.000821721
0.000820411
0.000819137
0.000817934
0.000816654
0.000815348
0.000814083
0.000812818
0.00081158
0.000810342
0.000809114
0.0008079
0.000806678
0.000805449
0.000804225
0.00080297
0.00080174
0.000800545
0.000799335
0.000798116
0.000796917
0.000795755
0.000794603
0.000793417
0.000792259
0.000791104
0.000789894
0.000788697
0.000787544
0.000786439
0.000785328
0.000784205
0.000783094
0.000782
0.000780897
0.000779801
0.000778692
0.000777542
0.000776438
0.000775337
0.000774256
0.000773187
0.000772087
0.000770995
0.000769912
0.00076888
0.000767848
0.000766802
0.000765783
0.000764749
0.000763719
0.000762691
0.000761625
0.000760566
0.000759547
0.00075856
0.000757577
0.000756578
0.000755577
0.000754558
0.000753541
0.000752577
0.000751631
0.000750676
0.000749741
0.000748826
0.000747881
0.000746872
0.000745871
0.000744916
0.000743982
0.000743055
0.000742149
0.000741277
0.00074038
0.000739433
0.000738539
0.000737663
0.000736726
0.00073581
0.000734928
0.000734049
0.000733186
0.000732348
0.000731516
0.000730674
0.000729844
0.000729001
0.000728163
0.00072734
0.000726501
0.000725658
0.000724825
0.000724008
0.000723202
0.000722405
0.000721619
0.000720833
0.000720069
0.000719305
0.0007185
0.000717713
0.000716933
0.000716164
0.000715394
0.000714618
0.000713892
0.000713161
0.000712418
0.000711706
0.000710992
0.000710274
0.000709543
0.0007088
0.000708106
0.000707415
0.000706716
0.000706042
0.00070536
0.000704668
0.000703976
0.000703291
0.000702617
0.000701929
0.00070125
0.000700623
0.000700024
0.000699409
0.000698764
0.000698131
0.000697488
0.000696782
0.000696102
0.000695482
0.000694885
0.000694308
0.000693737
0.000693155
0.000692558
0.000691946
0.000691333
0.000690754
0.000690204
0.000689662
0.000689124
0.000688589
0.000688059
0.000687535
0.00068701
0.00068649
0.000685979
0.000685465
0.00068494
0.000684409
0.000683882
0.000683373
0.000682893
0.000682425
0.00068195
0.000681469
0.000680976
0.000680496
0.00068002
0.000679537
0.000679085
0.000678639
0.000678182
0.000677722
0.000677263
0.00067681
0.000676366
0.000675931
0.000675506
0.000675084
0.000674661
0.000674245
0.000673817
0.000673381
0.00067294
0.000672482
0.000672006
0.000671542
0.000671113
0.000670718
0.000670346
0.000669984
0.000669632
0.000669283
0.000668931
0.000668572
0.00066821
0.000667858
0.000667505
0.000667132
0.000666744
0.000666379
0.000666043
0.000665719
0.000665391
0.000665048
0.000664699
0.00066437
0.000664044
0.000663691
0.000663354
0.000663052
0.000662753
0.000662454
0.000662166
0.00066188
0.000661584
0.000661266
0.000660953
0.000660665
0.000660391
0.00066012
0.000659845
0.000659568
0.000659293
0.000659029
0.000658772
0.000658521
0.000658272
0.000658016
0.000657756
0.000657506
0.000657257
0.000656999
0.000656743
0.000656488
0.000656233
0.000655992
0.000655751
0.000655498
0.000655234
0.000654947
0.000654705
0.000654503
0.000654303
0.000654108
0.000653917
0.000653727
0.000653536
0.000653343
0.000653147
0.000652954
0.000652765
0.000652574
0.000652382
0.000652192
0.000652008
0.000651833
0.000651666
0.000651499
0.00065133
0.000651163
0.000650997
0.000650824
0.00065064
0.000650459
0.000650291
0.000650136
0.000649989
0.000649845
0.000649703
0.000649563
0.000649424
0.000649287
0.000649152
0.000649018
0.000648887
0.000648755
0.000648622
0.000648491
0.000648371
0.000648256
0.000648142
0.000648027
0.000647909
0.000647793
0.00064768
0.000647569
0.000647461
0.00064736
0.000647262
0.000647169
0.000647076
0.000646983
0.00064689
0.000646799
0.00064671
0.000646624
0.00064654
0.000646459
0.000646383
0.000646308
0.000646233
0.000646159
0.000646087
0.000646014
0.000645946
0.000645878
0.00064581
0.000645748
0.000645691
0.000645636
0.000645582
0.000645529
0.000645479
0.000645431
0.000645385
0.000645342
0.0006453
0.000645261
0.000645222
0.000645186
0.000645152
0.000645118
0.000645087
0.000645057
0.00064503
0.000645004
0.00064498
0.000644958
0.000644938
0.00064492
0.000644904
0.000644889
0.000644877
0.000644866
0.000644857
0.000644851
0.000644847
0.000644845
0.000914529
0.000913054
0.000911599
0.000910114
0.000908625
0.000907138
0.00090564
0.000904145
0.000902684
0.000901205
0.000899692
0.000898208
0.000896741
0.000895244
0.000893718
0.00089224
0.000890821
0.000889354
0.000887835
0.000886338
0.000884887
0.000883458
0.000882018
0.000880576
0.000879178
0.000877788
0.000876315
0.000874807
0.000873347
0.000871919
0.000870512
0.000869121
0.000867712
0.000866299
0.000864932
0.000863538
0.000862062
0.000860674
0.000859324
0.000857896
0.000856481
0.000855114
0.000853733
0.000852363
0.000850985
0.000849547
0.000848153
0.00084684
0.000845524
0.000844155
0.000842792
0.000841426
0.00084007
0.000838696
0.000837343
0.000836023
0.000834662
0.00083334
0.000832049
0.000830749
0.00082943
0.000828099
0.000826806
0.000825556
0.000824301
0.000823011
0.000821737
0.000820457
0.00081917
0.000817903
0.000816611
0.000815324
0.000814069
0.000812827
0.000811588
0.000810346
0.000809112
0.000807898
0.00080668
0.000805444
0.000804205
0.000802978
0.000801764
0.000800573
0.000799357
0.000798109
0.000796911
0.00079575
0.000794589
0.000793421
0.000792243
0.000791073
0.000789888
0.000788698
0.000787565
0.000786455
0.000785338
0.000784222
0.000783102
0.000782007
0.000780905
0.000779792
0.000778697
0.000777558
0.000776414
0.000775326
0.000774249
0.000773161
0.000772077
0.000770995
0.000769919
0.00076888
0.000767851
0.000766818
0.000765791
0.000764754
0.000763719
0.000762677
0.000761625
0.000760578
0.000759546
0.000758546
0.000757558
0.000756562
0.000755564
0.00075456
0.000753561
0.000752591
0.000751632
0.000750677
0.000749745
0.00074883
0.000747877
0.000746863
0.000745873
0.000744937
0.000743991
0.000743046
0.000742153
0.000741276
0.000740375
0.000739447
0.000738537
0.000737636
0.00073671
0.000735811
0.000734932
0.000734055
0.000733202
0.000732368
0.000731514
0.000730663
0.000729845
0.000729006
0.000728161
0.000727321
0.000726486
0.000725652
0.00072483
0.000724021
0.00072321
0.000722404
0.000721608
0.000720833
0.000720074
0.000719307
0.00071851
0.000717718
0.000716929
0.000716142
0.000715374
0.000714622
0.0007139
0.000713167
0.000712429
0.000711713
0.000710988
0.000710264
0.000709539
0.000708815
0.000708115
0.000707419
0.000706729
0.000706056
0.000705365
0.000704662
0.000703969
0.000703289
0.000702608
0.0007019
0.000701223
0.000700615
0.000700027
0.000699421
0.00069879
0.000698147
0.000697477
0.000696763
0.000696098
0.00069549
0.0006949
0.000694321
0.000693741
0.000693148
0.00069254
0.00069193
0.000691336
0.000690762
0.000690208
0.000689663
0.000689124
0.00068859
0.000688059
0.000687531
0.000687006
0.000686487
0.000685971
0.000685453
0.000684933
0.000684413
0.000683898
0.000683394
0.000682905
0.000682425
0.000681945
0.000681461
0.000680973
0.000680495
0.00068002
0.000679545
0.000679087
0.000678638
0.00067818
0.000677712
0.000677258
0.000676814
0.000676371
0.000675934
0.000675507
0.000675086
0.000674665
0.000674249
0.000673819
0.000673374
0.000672937
0.000672484
0.000671995
0.000671522
0.000671105
0.000670722
0.000670354
0.000669996
0.000669639
0.000669282
0.000668927
0.000668568
0.00066821
0.000667853
0.00066749
0.000667117
0.000666746
0.000666394
0.000666058
0.000665726
0.000665388
0.000665041
0.000664702
0.000664374
0.000664033
0.000663684
0.000663361
0.000663055
0.000662753
0.000662456
0.000662168
0.000661879
0.000661577
0.00066126
0.000660953
0.000660667
0.000660392
0.000660117
0.000659841
0.000659566
0.000659294
0.00065903
0.000658774
0.000658523
0.000658274
0.00065802
0.000657764
0.000657511
0.000657255
0.000656997
0.000656744
0.000656488
0.000656227
0.000655983
0.000655747
0.000655491
0.000655203
0.000654938
0.000654717
0.000654512
0.000654311
0.000654114
0.00065392
0.000653727
0.000653535
0.000653342
0.000653147
0.000652954
0.000652761
0.000652569
0.000652378
0.000652192
0.000652012
0.00065184
0.00065167
0.000651499
0.000651328
0.00065116
0.000650989
0.000650808
0.000650628
0.000650459
0.000650298
0.000650144
0.000649994
0.000649849
0.000649706
0.000649564
0.000649424
0.000649287
0.000649152
0.000649018
0.000648885
0.000648752
0.00064862
0.000648493
0.000648373
0.000648257
0.000648141
0.000648025
0.000647907
0.000647791
0.000647677
0.000647567
0.000647463
0.000647362
0.000647265
0.00064717
0.000647077
0.000646983
0.000646889
0.000646799
0.000646711
0.000646624
0.00064654
0.00064646
0.000646383
0.000646307
0.000646232
0.000646158
0.000646085
0.000646013
0.000645944
0.000645877
0.000645811
0.00064575
0.000645692
0.000645635
0.000645581
0.000645529
0.000645479
0.000645431
0.000645386
0.000645342
0.000645301
0.000645261
0.000645222
0.000645186
0.000645151
0.000645117
0.000645086
0.000645057
0.00064503
0.000645004
0.00064498
0.000644958
0.000644938
0.00064492
0.000644904
0.000644889
0.000644877
0.000644866
0.000644857
0.000644851
0.000644847
0.000644845
0.000914553
0.000913089
0.000911603
0.000910114
0.000908616
0.000907119
0.000905652
0.000904139
0.000902668
0.000901207
0.000899691
0.000898199
0.000896751
0.00089528
0.000893748
0.000892257
0.000890797
0.000889301
0.000887829
0.000886347
0.000884875
0.000883425
0.000881988
0.000880578
0.000879169
0.000877753
0.000876311
0.000874845
0.000873364
0.000871925
0.000870538
0.000869138
0.000867724
0.000866301
0.000864906
0.000863512
0.00086208
0.00086069
0.000859325
0.00085792
0.000856496
0.000855095
0.000853715
0.000852355
0.000850951
0.00084954
0.000848193
0.000846872
0.000845533
0.000844138
0.00084275
0.000841396
0.000840064
0.000838722
0.000837369
0.000836035
0.00083469
0.000833358
0.000832032
0.000830724
0.000829434
0.00082812
0.000826807
0.000825546
0.000824306
0.000823011
0.000821714
0.00082044
0.00081917
0.000817886
0.000816616
0.000815352
0.000814065
0.000812823
0.000811596
0.000810348
0.000809115
0.000807893
0.000806651
0.000805428
0.000804216
0.000802984
0.000801761
0.000800572
0.000799371
0.000798147
0.000796935
0.000795726
0.000794554
0.000793403
0.000792227
0.000791045
0.000789885
0.000788719
0.000787579
0.000786474
0.000785363
0.000784245
0.000783125
0.000782014
0.000780913
0.000779798
0.000778682
0.000777556
0.000776412
0.0007753
0.000774219
0.000773153
0.000772086
0.000771002
0.000769933
0.000768886
0.000767845
0.000766822
0.000765794
0.000764757
0.000763719
0.000762664
0.00076161
0.000760576
0.000759561
0.000758559
0.000757556
0.000756554
0.000755558
0.000754561
0.000753572
0.000752597
0.00075163
0.000750685
0.000749754
0.00074881
0.000747841
0.000746864
0.000745895
0.000744946
0.000744002
0.000743059
0.00074215
0.000741263
0.000740365
0.000739443
0.000738535
0.000737636
0.000736718
0.000735812
0.000734931
0.000734064
0.000733214
0.000732371
0.000731515
0.000730669
0.000729846
0.000729001
0.00072814
0.000727308
0.000726482
0.000725646
0.000724828
0.00072402
0.000723217
0.00072241
0.000721606
0.000720828
0.00072007
0.000719308
0.000718528
0.000717737
0.000716932
0.000716129
0.000715362
0.000714619
0.000713886
0.000713159
0.000712446
0.000711732
0.000710998
0.000710262
0.00070954
0.000708825
0.000708119
0.000707431
0.000706749
0.000706056
0.000705355
0.000704652
0.000703956
0.000703265
0.000702552
0.000701854
0.000701221
0.000700625
0.000700029
0.000699419
0.000698791
0.000698144
0.000697476
0.000696787
0.000696125
0.00069551
0.00069492
0.000694334
0.000693737
0.000693129
0.00069252
0.000691922
0.000691341
0.000690773
0.000690216
0.000689667
0.000689127
0.000688592
0.000688057
0.000687525
0.000687001
0.000686481
0.000685963
0.000685446
0.000684935
0.000684427
0.000683919
0.00068341
0.000682907
0.000682414
0.000681929
0.000681449
0.00068097
0.000680495
0.000680017
0.000679545
0.000679089
0.000678636
0.000678179
0.000677723
0.000677269
0.000676813
0.00067637
0.000675939
0.000675515
0.00067509
0.000674663
0.000674243
0.000673813
0.000673372
0.000672927
0.000672468
0.000671973
0.0006715
0.0006711
0.00067073
0.00067037
0.000670012
0.000669649
0.000669285
0.000668924
0.000668564
0.000668203
0.000667841
0.000667475
0.000667111
0.000666757
0.000666411
0.000666069
0.000665727
0.000665385
0.000665045
0.000664707
0.000664366
0.00066402
0.000663685
0.000663368
0.000663059
0.000662755
0.000662458
0.000662166
0.000661871
0.000661565
0.000661253
0.000660952
0.000660667
0.000660391
0.000660116
0.00065984
0.000659567
0.0006593
0.000659038
0.000658781
0.000658528
0.000658278
0.000658025
0.00065777
0.000657513
0.000657256
0.000656999
0.000656739
0.000656466
0.000656198
0.000655962
0.000655723
0.000655453
0.000655194
0.000654959
0.000654739
0.000654528
0.000654322
0.00065412
0.000653921
0.000653727
0.000653534
0.000653341
0.000653145
0.00065295
0.000652756
0.000652564
0.000652376
0.000652195
0.00065202
0.000651846
0.000651672
0.000651497
0.000651323
0.000651147
0.000650972
0.000650798
0.000650627
0.000650463
0.000650305
0.000650151
0.000649999
0.000649853
0.000649709
0.000649567
0.000649426
0.000649288
0.000649152
0.000649017
0.000648883
0.00064875
0.000648619
0.000648494
0.000648373
0.000648256
0.000648139
0.000648021
0.000647903
0.000647789
0.000647678
0.000647569
0.000647465
0.000647365
0.000647268
0.000647172
0.000647077
0.000646981
0.000646889
0.0006468
0.000646712
0.000646625
0.00064654
0.00064646
0.000646383
0.000646307
0.000646231
0.000646156
0.000646082
0.000646012
0.000645944
0.000645878
0.000645814
0.000645752
0.000645692
0.000645635
0.00064558
0.000645528
0.000645478
0.000645431
0.000645386
0.000645343
0.000645302
0.000645261
0.000645222
0.000645186
0.000645151
0.000645117
0.000645086
0.000645057
0.00064503
0.000645004
0.00064498
0.000644958
0.000644938
0.00064492
0.000644904
0.000644889
0.000644876
0.000644866
0.000644857
0.000644851
0.000644847
0.000644845
0.000914557
0.000913085
0.0009116
0.000910099
0.000908598
0.000907098
0.000905623
0.00090413
0.000902639
0.000901156
0.000899675
0.00089823
0.000896767
0.000895283
0.000893767
0.00089227
0.0008908
0.000889307
0.000887826
0.000886334
0.000884879
0.000883417
0.000881978
0.000880585
0.000879136
0.000877714
0.000876309
0.000874834
0.000873356
0.000871948
0.000870562
0.000869165
0.00086776
0.000866331
0.000864896
0.000863487
0.00086208
0.000860707
0.000859347
0.00085792
0.000856476
0.000855069
0.000853697
0.000852335
0.000850951
0.000849568
0.000848214
0.000846873
0.000845516
0.000844146
0.00084276
0.000841367
0.000840045
0.00083872
0.00083736
0.000836023
0.000834702
0.00083338
0.000832059
0.000830743
0.000829434
0.000828112
0.00082681
0.000825561
0.000824312
0.00082303
0.000821737
0.000820445
0.000819151
0.000817849
0.00081659
0.000815357
0.000814096
0.000812836
0.00081157
0.000810305
0.000809087
0.000807869
0.000806637
0.000805442
0.00080423
0.00080299
0.000801779
0.000800596
0.000799391
0.000798156
0.000796937
0.000795726
0.000794548
0.000793379
0.000792214
0.000791052
0.000789882
0.000788729
0.000787596
0.000786466
0.000785353
0.000784264
0.000783161
0.000782033
0.000780918
0.000779808
0.000778674
0.00077754
0.000776407
0.000775287
0.0007742
0.000773138
0.000772074
0.000771004
0.000769953
0.000768904
0.000767853
0.000766818
0.000765789
0.00076476
0.000763727
0.000762667
0.000761605
0.000760578
0.000759569
0.000758563
0.000757555
0.000756562
0.000755565
0.000754553
0.000753556
0.000752584
0.00075163
0.000750684
0.000749746
0.000748799
0.000747839
0.000746876
0.000745904
0.000744947
0.000744003
0.000743063
0.000742143
0.00074124
0.000740337
0.000739443
0.000738552
0.000737645
0.000736732
0.000735821
0.00073493
0.000734071
0.000733227
0.00073237
0.000731511
0.000730665
0.000729829
0.000728993
0.000728149
0.000727315
0.00072648
0.000725645
0.000724834
0.000724026
0.000723208
0.000722395
0.000721594
0.00072082
0.000720073
0.000719323
0.000718547
0.000717747
0.000716924
0.000716116
0.000715353
0.000714623
0.000713897
0.000713166
0.000712443
0.000711724
0.000710999
0.000710279
0.000709564
0.000708844
0.000708125
0.000707432
0.000706748
0.000706043
0.000705324
0.000704613
0.000703908
0.000703197
0.00070251
0.000701868
0.000701249
0.000700638
0.000700022
0.000699399
0.000698775
0.000698141
0.000697488
0.000696821
0.000696165
0.00069554
0.000694944
0.000694348
0.00069374
0.000693123
0.000692509
0.000691916
0.000691343
0.00069078
0.000690224
0.000689675
0.000689133
0.000688593
0.000688052
0.000687517
0.000686994
0.000686477
0.000685962
0.000685449
0.00068494
0.000684433
0.000683926
0.000683415
0.000682905
0.000682405
0.000681918
0.000681439
0.000680964
0.00068049
0.000680018
0.000679551
0.00067909
0.000678634
0.000678185
0.000677735
0.000677275
0.000676816
0.000676373
0.000675938
0.00067551
0.000675084
0.000674659
0.000674237
0.000673805
0.000673358
0.000672902
0.000672427
0.000671936
0.000671501
0.000671118
0.000670751
0.00067039
0.000670025
0.000669657
0.00066929
0.000668925
0.000668561
0.000668195
0.00066783
0.000667467
0.000667111
0.000666764
0.000666419
0.000666074
0.000665728
0.000665386
0.000665049
0.000664711
0.000664367
0.000664019
0.000663684
0.000663364
0.000663054
0.000662752
0.000662459
0.000662166
0.000661864
0.000661556
0.000661247
0.00066095
0.000660668
0.000660391
0.000660117
0.000659844
0.000659573
0.000659306
0.000659043
0.000658786
0.000658532
0.000658279
0.000658025
0.00065777
0.000657514
0.000657254
0.000656985
0.000656703
0.000656421
0.000656169
0.000655939
0.000655705
0.000655462
0.000655219
0.000654985
0.000654758
0.000654539
0.000654327
0.000654122
0.000653923
0.000653728
0.000653535
0.00065334
0.000653144
0.000652949
0.000652755
0.000652562
0.000652375
0.000652196
0.000652021
0.000651847
0.000651672
0.000651494
0.000651313
0.000651134
0.000650963
0.000650795
0.000650631
0.000650471
0.000650312
0.000650156
0.000650002
0.000649855
0.000649711
0.00064957
0.000649431
0.000649292
0.000649153
0.000649015
0.000648879
0.000648745
0.000648616
0.000648492
0.000648373
0.000648255
0.000648138
0.00064802
0.000647902
0.000647787
0.000647678
0.000647571
0.000647468
0.000647368
0.00064727
0.000647172
0.000647076
0.000646982
0.00064689
0.0006468
0.000646713
0.000646626
0.000646542
0.00064646
0.00064638
0.000646304
0.00064623
0.000646156
0.000646082
0.000646012
0.000645945
0.000645879
0.000645814
0.000645752
0.000645692
0.000645634
0.000645579
0.000645527
0.000645478
0.000645431
0.000645386
0.000645343
0.000645302
0.000645261
0.000645222
0.000645186
0.000645151
0.000645117
0.000645085
0.000645057
0.00064503
0.000645004
0.00064498
0.000644958
0.000644938
0.00064492
0.000644904
0.000644889
0.000644876
0.000644866
0.000644857
0.000644851
0.000644847
0.000644845
0.000914568
0.000913103
0.000911597
0.000910078
0.000908584
0.000907082
0.000905606
0.000904121
0.000902618
0.000901149
0.00089968
0.00089826
0.000896811
0.000895248
0.000893726
0.000892277
0.000890818
0.000889337
0.000887854
0.000886333
0.000884845
0.000883396
0.000881977
0.000880573
0.000879136
0.000877727
0.000876318
0.000874841
0.000873382
0.000871954
0.000870531
0.000869148
0.000867769
0.000866345
0.000864897
0.000863497
0.000862122
0.000860726
0.000859302
0.000857868
0.000856468
0.000855066
0.000853683
0.000852333
0.000850971
0.000849595
0.000848244
0.000846899
0.000845507
0.000844116
0.000842743
0.000841376
0.000840036
0.000838708
0.000837371
0.000836024
0.000834697
0.000833379
0.000832052
0.000830743
0.000829435
0.000828126
0.000826833
0.000825573
0.000824328
0.000823045
0.000821752
0.000820454
0.000819148
0.000817849
0.000816579
0.000815339
0.000814073
0.000812811
0.000811559
0.000810295
0.000809066
0.000807858
0.000806646
0.000805422
0.000804209
0.000803008
0.000801797
0.000800598
0.000799391
0.00079816
0.000796943
0.000795741
0.000794549
0.000793374
0.000792215
0.000791061
0.000789892
0.000788731
0.000787597
0.000786471
0.000785351
0.000784252
0.000783162
0.000782055
0.000780934
0.000779806
0.000778679
0.000777545
0.000776402
0.000775279
0.00077419
0.000773135
0.00077207
0.000771001
0.000769955
0.000768925
0.000767878
0.000766812
0.00076576
0.00076475
0.000763743
0.000762687
0.000761622
0.000760592
0.000759575
0.000758565
0.000757563
0.00075656
0.000755544
0.000754531
0.000753549
0.000752585
0.000751625
0.000750675
0.00074974
0.000748794
0.000747837
0.00074689
0.00074593
0.000744955
0.000744003
0.000743069
0.000742132
0.000741216
0.000740324
0.000739436
0.00073854
0.000737641
0.00073674
0.000735835
0.000734949
0.000734087
0.000733228
0.00073237
0.000731519
0.00073067
0.000729821
0.000728975
0.000728135
0.000727302
0.000726473
0.000725656
0.000724851
0.000724033
0.0007232
0.000722377
0.000721576
0.000720809
0.000720072
0.000719324
0.000718551
0.000717748
0.000716928
0.000716124
0.000715362
0.000714632
0.000713904
0.000713174
0.000712446
0.000711726
0.000711013
0.000710301
0.000709588
0.000708868
0.000708143
0.000707428
0.000706718
0.000705996
0.00070527
0.00070455
0.000703846
0.000703173
0.000702524
0.000701893
0.000701272
0.000700647
0.000700013
0.000699382
0.000698758
0.000698132
0.00069749
0.000696842
0.000696201
0.000695574
0.000694971
0.000694368
0.000693751
0.000693131
0.000692507
0.000691909
0.000691344
0.000690788
0.000690234
0.000689683
0.000689133
0.000688586
0.000688046
0.000687515
0.000686996
0.000686482
0.000685966
0.000685449
0.000684936
0.000684426
0.000683919
0.000683415
0.000682909
0.000682407
0.000681916
0.000681435
0.000680959
0.000680485
0.000680015
0.000679551
0.000679093
0.000678641
0.000678196
0.000677747
0.00067728
0.000676813
0.000676371
0.000675939
0.000675509
0.000675077
0.000674644
0.000674215
0.000673779
0.000673323
0.000672849
0.000672383
0.000671941
0.000671528
0.000671144
0.000670774
0.000670407
0.000670036
0.000669663
0.000669292
0.000668922
0.000668555
0.00066819
0.000667826
0.000667467
0.000667113
0.000666765
0.000666418
0.000666072
0.00066573
0.000665393
0.000665057
0.000664718
0.000664369
0.000664015
0.000663675
0.000663355
0.000663052
0.000662758
0.000662463
0.000662161
0.00066185
0.000661542
0.000661244
0.000660953
0.000660671
0.000660396
0.000660121
0.000659847
0.000659577
0.000659312
0.00065905
0.000658789
0.000658531
0.000658276
0.000658024
0.000657769
0.000657508
0.000657232
0.000656939
0.000656658
0.000656405
0.000656167
0.000655936
0.000655707
0.000655474
0.00065524
0.000655005
0.000654773
0.000654546
0.000654329
0.000654124
0.000653926
0.000653731
0.000653536
0.00065334
0.000653143
0.000652948
0.000652754
0.000652561
0.000652375
0.000652196
0.000652021
0.000651845
0.000651666
0.000651485
0.000651305
0.000651131
0.000650961
0.000650797
0.000650636
0.000650477
0.000650317
0.000650158
0.000650003
0.000649855
0.000649711
0.000649572
0.000649433
0.000649294
0.000649154
0.000649015
0.000648878
0.000648743
0.000648613
0.000648491
0.000648372
0.000648253
0.000648135
0.000648017
0.000647901
0.000647789
0.000647681
0.000647575
0.000647472
0.000647371
0.000647271
0.000647172
0.000647075
0.000646981
0.000646889
0.0006468
0.000646713
0.000646626
0.000646541
0.000646459
0.000646379
0.000646303
0.000646228
0.000646155
0.000646083
0.000646013
0.000645945
0.00064588
0.000645815
0.000645752
0.000645691
0.000645633
0.000645578
0.000645527
0.000645478
0.000645432
0.000645387
0.000645343
0.000645302
0.000645261
0.000645222
0.000645185
0.00064515
0.000645117
0.000645086
0.000645057
0.00064503
0.000645004
0.000644979
0.000644957
0.000644937
0.000644919
0.000644903
0.000644889
0.000644877
0.000644866
0.000644857
0.000644851
0.000644847
0.000644845
0.000914574
0.000913131
0.000911635
0.000910094
0.000908593
0.000907075
0.00090557
0.000904089
0.000902625
0.000901179
0.000899699
0.000898251
0.000896778
0.000895243
0.000893741
0.000892246
0.000890783
0.00088934
0.000887878
0.000886382
0.000884874
0.000883393
0.000881957
0.000880565
0.000879149
0.000877703
0.000876286
0.000874854
0.000873419
0.000871968
0.000870522
0.000869139
0.000867755
0.000866358
0.000864926
0.000863506
0.000862119
0.000860715
0.000859284
0.000857855
0.000856458
0.000855065
0.000853693
0.000852343
0.000850971
0.000849594
0.000848243
0.000846896
0.000845526
0.000844123
0.000842725
0.000841382
0.00084005
0.000838697
0.000837365
0.000836036
0.000834697
0.000833372
0.000832063
0.000830751
0.000829442
0.000828151
0.000826855
0.00082558
0.00082433
0.000823043
0.000821744
0.000820455
0.000819154
0.000817846
0.000816567
0.000815304
0.00081403
0.000812788
0.000811558
0.0008103
0.000809054
0.00080784
0.000806639
0.000805436
0.000804221
0.000803003
0.000801802
0.000800606
0.000799393
0.00079817
0.000796956
0.000795744
0.000794541
0.000793371
0.00079223
0.000791076
0.000789888
0.000788724
0.000787596
0.000786476
0.000785362
0.000784253
0.000783143
0.000782048
0.000780956
0.000779831
0.000778674
0.000777509
0.000776372
0.000775279
0.000774217
0.000773159
0.000772076
0.000770993
0.000769944
0.000768921
0.000767884
0.00076682
0.000765766
0.00076475
0.000763743
0.000762709
0.00076165
0.000760601
0.00075958
0.000758567
0.000757563
0.000756551
0.000755531
0.000754531
0.000753547
0.000752575
0.000751617
0.000750673
0.000749733
0.000748785
0.000747838
0.000746908
0.000745951
0.000744958
0.000743986
0.000743041
0.000742115
0.000741215
0.000740327
0.000739439
0.00073854
0.000737634
0.000736739
0.000735854
0.00073497
0.000734093
0.000733228
0.000732375
0.000731525
0.00073067
0.000729811
0.000728954
0.000728116
0.000727298
0.000726489
0.000725674
0.000724853
0.000724019
0.000723174
0.000722359
0.000721581
0.000720818
0.000720062
0.000719305
0.00071854
0.000717747
0.000716936
0.000716143
0.000715381
0.000714649
0.000713915
0.000713173
0.000712443
0.000711734
0.00071103
0.000710324
0.000709612
0.000708888
0.00070816
0.000707441
0.000706714
0.000705959
0.000705191
0.000704469
0.000703805
0.000703165
0.000702537
0.000701917
0.000701289
0.000700652
0.00070001
0.000699372
0.000698744
0.000698119
0.000697487
0.000696851
0.000696217
0.000695594
0.00069499
0.000694384
0.000693765
0.000693145
0.000692519
0.000691915
0.000691344
0.000690787
0.000690234
0.000689681
0.00068913
0.000688585
0.000688049
0.000687521
0.000687002
0.000686486
0.000685966
0.000685444
0.000684927
0.000684418
0.000683918
0.000683421
0.00068292
0.000682416
0.000681917
0.000681429
0.000680952
0.000680481
0.000680013
0.000679549
0.000679096
0.000678653
0.000678207
0.000677749
0.000677278
0.000676813
0.00067637
0.000675933
0.000675492
0.000675051
0.000674618
0.000674189
0.000673746
0.000673286
0.000672826
0.000672382
0.000671957
0.000671552
0.000671167
0.000670792
0.000670419
0.000670044
0.000669667
0.000669293
0.000668922
0.000668553
0.000668187
0.000667825
0.000667468
0.000667115
0.000666765
0.000666416
0.00066607
0.000665731
0.000665397
0.00066506
0.000664715
0.000664362
0.000664008
0.000663672
0.000663358
0.000663057
0.000662761
0.000662462
0.000662154
0.000661841
0.000661536
0.000661244
0.000660957
0.000660677
0.0006604
0.000660124
0.00065985
0.000659579
0.000659312
0.00065905
0.000658791
0.000658533
0.000658277
0.000658021
0.000657761
0.000657489
0.000657193
0.0006569
0.000656642
0.000656403
0.00065617
0.00065594
0.000655713
0.000655482
0.000655249
0.000655015
0.000654782
0.000654554
0.000654335
0.000654129
0.000653931
0.000653734
0.000653535
0.000653336
0.000653138
0.000652944
0.000652751
0.00065256
0.000652376
0.000652197
0.000652021
0.000651843
0.000651662
0.000651481
0.000651303
0.00065113
0.000650964
0.000650801
0.000650641
0.000650479
0.000650318
0.000650158
0.000650004
0.000649856
0.000649712
0.000649573
0.000649434
0.000649295
0.000649154
0.000649014
0.000648876
0.00064874
0.000648613
0.000648491
0.000648371
0.000648251
0.000648133
0.000648017
0.000647902
0.00064779
0.000647683
0.000647579
0.000647475
0.000647372
0.000647271
0.000647171
0.000647074
0.00064698
0.000646888
0.000646799
0.000646712
0.000646625
0.000646541
0.000646459
0.000646379
0.000646303
0.000646228
0.000646154
0.000646082
0.000646012
0.000645945
0.00064588
0.000645815
0.000645752
0.000645691
0.000645633
0.000645578
0.000645527
0.000645478
0.000645432
0.000645387
0.000645343
0.000645301
0.000645261
0.000645222
0.000645185
0.00064515
0.000645117
0.000645086
0.000645057
0.00064503
0.000645004
0.000644979
0.000644957
0.000644937
0.000644919
0.000644903
0.000644889
0.000644876
0.000644866
0.000644857
0.00064485
0.000644846
0.000644845
0.000914576
0.00091312
0.000911643
0.000910138
0.000908625
0.000907086
0.000905562
0.000904075
0.000902602
0.000901144
0.000899693
0.000898242
0.000896741
0.000895216
0.000893728
0.000892258
0.000890798
0.000889332
0.000887879
0.000886415
0.000884891
0.000883405
0.000881986
0.000880585
0.000879161
0.000877701
0.000876265
0.000874831
0.000873402
0.000871964
0.000870526
0.000869126
0.000867747
0.000866361
0.000864951
0.000863529
0.0008621
0.00086068
0.000859275
0.00085788
0.000856476
0.000855068
0.000853694
0.00085234
0.00085096
0.000849587
0.000848243
0.000846887
0.000845517
0.000844133
0.000842737
0.000841386
0.000840052
0.000838696
0.000837361
0.000836044
0.000834711
0.000833384
0.000832074
0.000830761
0.000829463
0.000828171
0.000826863
0.000825564
0.000824309
0.00082305