/*--------------------------------*- C++ -*----------------------------------*\
  =========                 |
  \\      /  F ield         | OpenFOAM: The Open Source CFD Toolbox
   \\    /   O peration     | Website:  https://openfoam.org
    \\  /    A nd           | Version:  7
     \\/     M anipulation  |
\*---------------------------------------------------------------------------*/
FoamFile
{
    version     2.0;
    format      ascii;
    class       volScalarField;
    location    "6000";
    object      mu2;
}
// * * * * * * * * * * * * * * * * * * * * * * * * * * * * * * * * * * * * * //

dimensions      [1 -1 -1 0 0 0 0];

internalField   nonuniform List<scalar> 
160000
(
1.84553e-05
1.84587e-05
1.8462e-05
1.84654e-05
1.84689e-05
1.84723e-05
1.84757e-05
1.84791e-05
1.84824e-05
1.84858e-05
1.84893e-05
1.84927e-05
1.84961e-05
1.84997e-05
1.85031e-05
1.85065e-05
1.85098e-05
1.85132e-05
1.85166e-05
1.85201e-05
1.85235e-05
1.85269e-05
1.85302e-05
1.85336e-05
1.85369e-05
1.85402e-05
1.85437e-05
1.85471e-05
1.85506e-05
1.85539e-05
1.85572e-05
1.85605e-05
1.85638e-05
1.85672e-05
1.85704e-05
1.85737e-05
1.85771e-05
1.85805e-05
1.85838e-05
1.85871e-05
1.85904e-05
1.85937e-05
1.8597e-05
1.86003e-05
1.86036e-05
1.86071e-05
1.86104e-05
1.86136e-05
1.86167e-05
1.862e-05
1.86232e-05
1.86265e-05
1.86299e-05
1.86332e-05
1.86365e-05
1.86398e-05
1.8643e-05
1.86463e-05
1.86493e-05
1.86524e-05
1.86557e-05
1.8659e-05
1.86622e-05
1.86652e-05
1.86682e-05
1.86714e-05
1.86746e-05
1.86778e-05
1.8681e-05
1.86839e-05
1.86871e-05
1.86903e-05
1.86935e-05
1.86966e-05
1.86997e-05
1.87027e-05
1.87058e-05
1.87088e-05
1.87119e-05
1.87149e-05
1.8718e-05
1.87211e-05
1.87242e-05
1.87272e-05
1.87302e-05
1.87333e-05
1.87363e-05
1.87392e-05
1.87421e-05
1.87451e-05
1.87481e-05
1.8751e-05
1.8754e-05
1.87571e-05
1.876e-05
1.87628e-05
1.87656e-05
1.87685e-05
1.87713e-05
1.87741e-05
1.8777e-05
1.87798e-05
1.87826e-05
1.87855e-05
1.87884e-05
1.87912e-05
1.8794e-05
1.87967e-05
1.87996e-05
1.88024e-05
1.88052e-05
1.88079e-05
1.88105e-05
1.88133e-05
1.88159e-05
1.88186e-05
1.88213e-05
1.88239e-05
1.88267e-05
1.88295e-05
1.88321e-05
1.88347e-05
1.88373e-05
1.88399e-05
1.88425e-05
1.88452e-05
1.88479e-05
1.88504e-05
1.88529e-05
1.88554e-05
1.88579e-05
1.88603e-05
1.88628e-05
1.88655e-05
1.88682e-05
1.88707e-05
1.88732e-05
1.88756e-05
1.8878e-05
1.88804e-05
1.88828e-05
1.88853e-05
1.88877e-05
1.889e-05
1.88925e-05
1.8895e-05
1.88974e-05
1.88997e-05
1.8902e-05
1.89043e-05
1.89065e-05
1.89088e-05
1.8911e-05
1.89133e-05
1.89156e-05
1.89178e-05
1.89201e-05
1.89224e-05
1.89246e-05
1.89269e-05
1.8929e-05
1.89312e-05
1.89334e-05
1.89355e-05
1.89376e-05
1.89397e-05
1.89419e-05
1.8944e-05
1.89462e-05
1.89483e-05
1.89504e-05
1.89525e-05
1.89545e-05
1.89565e-05
1.89586e-05
1.89605e-05
1.89625e-05
1.89645e-05
1.89665e-05
1.89686e-05
1.89705e-05
1.89724e-05
1.89743e-05
1.89762e-05
1.89781e-05
1.898e-05
1.89819e-05
1.89839e-05
1.89857e-05
1.89877e-05
1.89896e-05
1.89913e-05
1.8993e-05
1.89947e-05
1.89965e-05
1.89983e-05
1.90001e-05
1.90021e-05
1.9004e-05
1.90057e-05
1.90074e-05
1.9009e-05
1.90106e-05
1.90123e-05
1.9014e-05
1.90157e-05
1.90174e-05
1.90191e-05
1.90206e-05
1.90221e-05
1.90237e-05
1.90252e-05
1.90267e-05
1.90282e-05
1.90297e-05
1.90312e-05
1.90326e-05
1.90341e-05
1.90356e-05
1.90371e-05
1.90386e-05
1.904e-05
1.90414e-05
1.90427e-05
1.90441e-05
1.90455e-05
1.90469e-05
1.90483e-05
1.90496e-05
1.9051e-05
1.90523e-05
1.90536e-05
1.90549e-05
1.90562e-05
1.90576e-05
1.90589e-05
1.90601e-05
1.90614e-05
1.90626e-05
1.90638e-05
1.90651e-05
1.90663e-05
1.90675e-05
1.90688e-05
1.907e-05
1.90714e-05
1.90727e-05
1.90741e-05
1.90753e-05
1.90765e-05
1.90776e-05
1.90786e-05
1.90796e-05
1.90807e-05
1.90817e-05
1.90827e-05
1.90838e-05
1.90848e-05
1.90858e-05
1.90869e-05
1.9088e-05
1.90891e-05
1.90901e-05
1.9091e-05
1.9092e-05
1.9093e-05
1.9094e-05
1.9095e-05
1.90959e-05
1.9097e-05
1.9098e-05
1.90989e-05
1.90997e-05
1.91006e-05
1.91015e-05
1.91023e-05
1.91032e-05
1.91041e-05
1.9105e-05
1.91059e-05
1.91067e-05
1.91075e-05
1.91083e-05
1.91091e-05
1.91099e-05
1.91107e-05
1.91114e-05
1.91122e-05
1.91129e-05
1.91137e-05
1.91144e-05
1.91152e-05
1.91159e-05
1.91167e-05
1.91174e-05
1.91182e-05
1.9119e-05
1.91197e-05
1.91204e-05
1.91211e-05
1.91219e-05
1.91228e-05
1.91235e-05
1.91241e-05
1.91247e-05
1.91253e-05
1.91258e-05
1.91264e-05
1.9127e-05
1.91275e-05
1.91281e-05
1.91287e-05
1.91293e-05
1.91298e-05
1.91304e-05
1.9131e-05
1.91315e-05
1.9132e-05
1.91325e-05
1.9133e-05
1.91335e-05
1.9134e-05
1.91345e-05
1.9135e-05
1.91356e-05
1.91361e-05
1.91366e-05
1.91371e-05
1.91375e-05
1.9138e-05
1.91384e-05
1.91388e-05
1.91392e-05
1.91396e-05
1.914e-05
1.91404e-05
1.91408e-05
1.91412e-05
1.91416e-05
1.9142e-05
1.91424e-05
1.91427e-05
1.91431e-05
1.91434e-05
1.91438e-05
1.91441e-05
1.91444e-05
1.91448e-05
1.91451e-05
1.91454e-05
1.91457e-05
1.9146e-05
1.91463e-05
1.91465e-05
1.91468e-05
1.91471e-05
1.91474e-05
1.91476e-05
1.91479e-05
1.91481e-05
1.91483e-05
1.91486e-05
1.91488e-05
1.9149e-05
1.91492e-05
1.91494e-05
1.91496e-05
1.91498e-05
1.91501e-05
1.91502e-05
1.91504e-05
1.91506e-05
1.91507e-05
1.91509e-05
1.91511e-05
1.91512e-05
1.91513e-05
1.91515e-05
1.91516e-05
1.91517e-05
1.91518e-05
1.91519e-05
1.9152e-05
1.91521e-05
1.91522e-05
1.91523e-05
1.91524e-05
1.91525e-05
1.91525e-05
1.91526e-05
1.91527e-05
1.91527e-05
1.91528e-05
1.91528e-05
1.91529e-05
1.91529e-05
1.91529e-05
1.91529e-05
1.9153e-05
1.9153e-05
1.84554e-05
1.84587e-05
1.8462e-05
1.84654e-05
1.84688e-05
1.84722e-05
1.84757e-05
1.84791e-05
1.84824e-05
1.84858e-05
1.84893e-05
1.84927e-05
1.84961e-05
1.84996e-05
1.85031e-05
1.85065e-05
1.85098e-05
1.85132e-05
1.85167e-05
1.85202e-05
1.85236e-05
1.85269e-05
1.85303e-05
1.85336e-05
1.85369e-05
1.85401e-05
1.85436e-05
1.85471e-05
1.85506e-05
1.85539e-05
1.85572e-05
1.85605e-05
1.85638e-05
1.85672e-05
1.85704e-05
1.85737e-05
1.85772e-05
1.85805e-05
1.85837e-05
1.85871e-05
1.85905e-05
1.85937e-05
1.8597e-05
1.86003e-05
1.86036e-05
1.86071e-05
1.86104e-05
1.86136e-05
1.86167e-05
1.862e-05
1.86233e-05
1.86266e-05
1.86299e-05
1.86332e-05
1.86365e-05
1.86397e-05
1.8643e-05
1.86462e-05
1.86493e-05
1.86525e-05
1.86557e-05
1.8659e-05
1.86621e-05
1.86652e-05
1.86683e-05
1.86714e-05
1.86746e-05
1.86777e-05
1.86809e-05
1.8684e-05
1.86872e-05
1.86904e-05
1.86935e-05
1.86966e-05
1.86996e-05
1.87027e-05
1.87058e-05
1.87088e-05
1.87119e-05
1.87149e-05
1.8718e-05
1.87211e-05
1.87241e-05
1.87271e-05
1.87302e-05
1.87333e-05
1.87363e-05
1.87393e-05
1.87422e-05
1.87451e-05
1.87481e-05
1.87511e-05
1.87541e-05
1.87571e-05
1.876e-05
1.87628e-05
1.87656e-05
1.87685e-05
1.87713e-05
1.87741e-05
1.87769e-05
1.87798e-05
1.87826e-05
1.87855e-05
1.87884e-05
1.87912e-05
1.8794e-05
1.87968e-05
1.87996e-05
1.88024e-05
1.88052e-05
1.88079e-05
1.88105e-05
1.88132e-05
1.88159e-05
1.88186e-05
1.88213e-05
1.8824e-05
1.88267e-05
1.88294e-05
1.88321e-05
1.88348e-05
1.88373e-05
1.884e-05
1.88426e-05
1.88452e-05
1.88478e-05
1.88504e-05
1.88529e-05
1.88554e-05
1.88579e-05
1.88603e-05
1.88628e-05
1.88655e-05
1.88681e-05
1.88706e-05
1.88731e-05
1.88757e-05
1.8878e-05
1.88804e-05
1.88828e-05
1.88853e-05
1.88877e-05
1.88901e-05
1.88926e-05
1.8895e-05
1.88973e-05
1.88997e-05
1.8902e-05
1.89042e-05
1.89065e-05
1.89088e-05
1.8911e-05
1.89133e-05
1.89156e-05
1.89179e-05
1.89201e-05
1.89224e-05
1.89246e-05
1.89268e-05
1.8929e-05
1.89312e-05
1.89334e-05
1.89355e-05
1.89376e-05
1.89397e-05
1.89418e-05
1.8944e-05
1.89462e-05
1.89483e-05
1.89504e-05
1.89525e-05
1.89545e-05
1.89565e-05
1.89585e-05
1.89605e-05
1.89625e-05
1.89645e-05
1.89665e-05
1.89685e-05
1.89705e-05
1.89724e-05
1.89743e-05
1.89762e-05
1.89781e-05
1.898e-05
1.8982e-05
1.89839e-05
1.89858e-05
1.89877e-05
1.89896e-05
1.89913e-05
1.8993e-05
1.89947e-05
1.89964e-05
1.89982e-05
1.90001e-05
1.90021e-05
1.9004e-05
1.90057e-05
1.90074e-05
1.9009e-05
1.90106e-05
1.90123e-05
1.9014e-05
1.90157e-05
1.90174e-05
1.9019e-05
1.90206e-05
1.90221e-05
1.90237e-05
1.90252e-05
1.90267e-05
1.90282e-05
1.90297e-05
1.90312e-05
1.90326e-05
1.90341e-05
1.90356e-05
1.90371e-05
1.90385e-05
1.904e-05
1.90414e-05
1.90427e-05
1.90441e-05
1.90455e-05
1.90469e-05
1.90483e-05
1.90496e-05
1.9051e-05
1.90523e-05
1.90536e-05
1.90549e-05
1.90563e-05
1.90576e-05
1.90588e-05
1.90601e-05
1.90614e-05
1.90626e-05
1.90638e-05
1.9065e-05
1.90662e-05
1.90675e-05
1.90688e-05
1.907e-05
1.90714e-05
1.90728e-05
1.90741e-05
1.90754e-05
1.90765e-05
1.90775e-05
1.90786e-05
1.90796e-05
1.90807e-05
1.90817e-05
1.90827e-05
1.90838e-05
1.90848e-05
1.90859e-05
1.9087e-05
1.9088e-05
1.90891e-05
1.90901e-05
1.9091e-05
1.9092e-05
1.9093e-05
1.9094e-05
1.9095e-05
1.9096e-05
1.9097e-05
1.90979e-05
1.90988e-05
1.90997e-05
1.91006e-05
1.91014e-05
1.91023e-05
1.91032e-05
1.91041e-05
1.9105e-05
1.91059e-05
1.91067e-05
1.91075e-05
1.91083e-05
1.91091e-05
1.91099e-05
1.91107e-05
1.91114e-05
1.91122e-05
1.91129e-05
1.91137e-05
1.91144e-05
1.91152e-05
1.91159e-05
1.91167e-05
1.91174e-05
1.91182e-05
1.9119e-05
1.91197e-05
1.91204e-05
1.91212e-05
1.9122e-05
1.91228e-05
1.91235e-05
1.91241e-05
1.91247e-05
1.91252e-05
1.91258e-05
1.91264e-05
1.9127e-05
1.91275e-05
1.91281e-05
1.91287e-05
1.91293e-05
1.91298e-05
1.91304e-05
1.9131e-05
1.91315e-05
1.9132e-05
1.91325e-05
1.9133e-05
1.91335e-05
1.9134e-05
1.91345e-05
1.91351e-05
1.91356e-05
1.91361e-05
1.91366e-05
1.91371e-05
1.91375e-05
1.91379e-05
1.91384e-05
1.91388e-05
1.91392e-05
1.91396e-05
1.914e-05
1.91404e-05
1.91408e-05
1.91412e-05
1.91416e-05
1.9142e-05
1.91424e-05
1.91427e-05
1.91431e-05
1.91434e-05
1.91438e-05
1.91441e-05
1.91444e-05
1.91448e-05
1.91451e-05
1.91454e-05
1.91457e-05
1.9146e-05
1.91462e-05
1.91465e-05
1.91468e-05
1.91471e-05
1.91473e-05
1.91476e-05
1.91479e-05
1.91481e-05
1.91483e-05
1.91486e-05
1.91488e-05
1.9149e-05
1.91492e-05
1.91494e-05
1.91496e-05
1.91499e-05
1.915e-05
1.91502e-05
1.91504e-05
1.91506e-05
1.91507e-05
1.91509e-05
1.9151e-05
1.91512e-05
1.91513e-05
1.91515e-05
1.91516e-05
1.91517e-05
1.91518e-05
1.91519e-05
1.9152e-05
1.91521e-05
1.91522e-05
1.91523e-05
1.91524e-05
1.91525e-05
1.91525e-05
1.91526e-05
1.91527e-05
1.91527e-05
1.91528e-05
1.91528e-05
1.91529e-05
1.91529e-05
1.91529e-05
1.91529e-05
1.9153e-05
1.9153e-05
1.84553e-05
1.84586e-05
1.8462e-05
1.84654e-05
1.84688e-05
1.84723e-05
1.84756e-05
1.84791e-05
1.84825e-05
1.84858e-05
1.84893e-05
1.84927e-05
1.84961e-05
1.84995e-05
1.8503e-05
1.85065e-05
1.85098e-05
1.85133e-05
1.85167e-05
1.85202e-05
1.85236e-05
1.8527e-05
1.85303e-05
1.85336e-05
1.85369e-05
1.85402e-05
1.85436e-05
1.8547e-05
1.85505e-05
1.85539e-05
1.85572e-05
1.85605e-05
1.85638e-05
1.85672e-05
1.85705e-05
1.85738e-05
1.85772e-05
1.85805e-05
1.85837e-05
1.8587e-05
1.85904e-05
1.85938e-05
1.85971e-05
1.86003e-05
1.86037e-05
1.86071e-05
1.86103e-05
1.86135e-05
1.86167e-05
1.86201e-05
1.86234e-05
1.86267e-05
1.86299e-05
1.86331e-05
1.86364e-05
1.86397e-05
1.86429e-05
1.86462e-05
1.86494e-05
1.86526e-05
1.86557e-05
1.86589e-05
1.86621e-05
1.86652e-05
1.86683e-05
1.86714e-05
1.86746e-05
1.86778e-05
1.86809e-05
1.86841e-05
1.86872e-05
1.86903e-05
1.86935e-05
1.86966e-05
1.86996e-05
1.87027e-05
1.87058e-05
1.87088e-05
1.87119e-05
1.8715e-05
1.8718e-05
1.87211e-05
1.87241e-05
1.87271e-05
1.87301e-05
1.87332e-05
1.87363e-05
1.87393e-05
1.87423e-05
1.87452e-05
1.87481e-05
1.87511e-05
1.87541e-05
1.8757e-05
1.87599e-05
1.87627e-05
1.87656e-05
1.87684e-05
1.87713e-05
1.87741e-05
1.87769e-05
1.87798e-05
1.87826e-05
1.87855e-05
1.87884e-05
1.87913e-05
1.87941e-05
1.87968e-05
1.87996e-05
1.88024e-05
1.88051e-05
1.88079e-05
1.88105e-05
1.88132e-05
1.88159e-05
1.88186e-05
1.88213e-05
1.8824e-05
1.88268e-05
1.88295e-05
1.88321e-05
1.88347e-05
1.88374e-05
1.884e-05
1.88426e-05
1.88452e-05
1.88478e-05
1.88504e-05
1.88529e-05
1.88554e-05
1.88579e-05
1.88604e-05
1.88629e-05
1.88655e-05
1.88681e-05
1.88706e-05
1.88731e-05
1.88756e-05
1.8878e-05
1.88804e-05
1.88828e-05
1.88853e-05
1.88877e-05
1.88901e-05
1.88926e-05
1.8895e-05
1.88973e-05
1.88997e-05
1.8902e-05
1.89042e-05
1.89065e-05
1.89088e-05
1.8911e-05
1.89133e-05
1.89156e-05
1.89179e-05
1.89201e-05
1.89224e-05
1.89246e-05
1.89268e-05
1.8929e-05
1.89312e-05
1.89334e-05
1.89355e-05
1.89376e-05
1.89397e-05
1.89418e-05
1.8944e-05
1.89462e-05
1.89484e-05
1.89505e-05
1.89525e-05
1.89545e-05
1.89565e-05
1.89585e-05
1.89605e-05
1.89625e-05
1.89645e-05
1.89665e-05
1.89685e-05
1.89704e-05
1.89724e-05
1.89742e-05
1.89762e-05
1.89781e-05
1.89801e-05
1.8982e-05
1.89839e-05
1.89859e-05
1.89879e-05
1.89896e-05
1.89913e-05
1.8993e-05
1.89947e-05
1.89964e-05
1.89982e-05
1.90001e-05
1.9002e-05
1.90039e-05
1.90056e-05
1.90073e-05
1.90089e-05
1.90106e-05
1.90123e-05
1.90141e-05
1.90158e-05
1.90174e-05
1.9019e-05
1.90206e-05
1.90221e-05
1.90237e-05
1.90252e-05
1.90267e-05
1.90282e-05
1.90297e-05
1.90312e-05
1.90327e-05
1.90341e-05
1.90356e-05
1.9037e-05
1.90385e-05
1.90399e-05
1.90414e-05
1.90428e-05
1.90442e-05
1.90455e-05
1.90469e-05
1.90483e-05
1.90496e-05
1.9051e-05
1.90523e-05
1.90536e-05
1.90549e-05
1.90562e-05
1.90575e-05
1.90589e-05
1.90601e-05
1.90614e-05
1.90626e-05
1.90638e-05
1.90651e-05
1.90663e-05
1.90675e-05
1.90688e-05
1.90701e-05
1.90714e-05
1.90728e-05
1.90742e-05
1.90754e-05
1.90764e-05
1.90775e-05
1.90785e-05
1.90796e-05
1.90806e-05
1.90817e-05
1.90827e-05
1.90838e-05
1.90848e-05
1.90859e-05
1.9087e-05
1.9088e-05
1.9089e-05
1.909e-05
1.9091e-05
1.9092e-05
1.9093e-05
1.9094e-05
1.9095e-05
1.9096e-05
1.9097e-05
1.90979e-05
1.90988e-05
1.90997e-05
1.91006e-05
1.91015e-05
1.91023e-05
1.91032e-05
1.91041e-05
1.9105e-05
1.91059e-05
1.91067e-05
1.91075e-05
1.91083e-05
1.91091e-05
1.91099e-05
1.91107e-05
1.91114e-05
1.91122e-05
1.91129e-05
1.91137e-05
1.91144e-05
1.91152e-05
1.91159e-05
1.91167e-05
1.91175e-05
1.91183e-05
1.91191e-05
1.91198e-05
1.91205e-05
1.91213e-05
1.9122e-05
1.91227e-05
1.91234e-05
1.9124e-05
1.91246e-05
1.91252e-05
1.91258e-05
1.91264e-05
1.9127e-05
1.91275e-05
1.91281e-05
1.91287e-05
1.91293e-05
1.91299e-05
1.91304e-05
1.91309e-05
1.91315e-05
1.9132e-05
1.91325e-05
1.9133e-05
1.91335e-05
1.91341e-05
1.91346e-05
1.91351e-05
1.91356e-05
1.91361e-05
1.91366e-05
1.9137e-05
1.91375e-05
1.91379e-05
1.91384e-05
1.91388e-05
1.91392e-05
1.91396e-05
1.914e-05
1.91404e-05
1.91408e-05
1.91412e-05
1.91416e-05
1.9142e-05
1.91424e-05
1.91427e-05
1.91431e-05
1.91434e-05
1.91438e-05
1.91441e-05
1.91444e-05
1.91448e-05
1.91451e-05
1.91454e-05
1.91457e-05
1.9146e-05
1.91462e-05
1.91465e-05
1.91468e-05
1.91471e-05
1.91473e-05
1.91476e-05
1.91479e-05
1.91481e-05
1.91483e-05
1.91486e-05
1.91488e-05
1.9149e-05
1.91492e-05
1.91494e-05
1.91496e-05
1.91498e-05
1.915e-05
1.91502e-05
1.91504e-05
1.91506e-05
1.91507e-05
1.91509e-05
1.91511e-05
1.91512e-05
1.91513e-05
1.91515e-05
1.91516e-05
1.91517e-05
1.91518e-05
1.91519e-05
1.9152e-05
1.91521e-05
1.91522e-05
1.91523e-05
1.91524e-05
1.91525e-05
1.91525e-05
1.91526e-05
1.91527e-05
1.91527e-05
1.91528e-05
1.91528e-05
1.91529e-05
1.91529e-05
1.91529e-05
1.91529e-05
1.9153e-05
1.9153e-05
1.84553e-05
1.84587e-05
1.8462e-05
1.84655e-05
1.84689e-05
1.84723e-05
1.84757e-05
1.84791e-05
1.84825e-05
1.84859e-05
1.84893e-05
1.84927e-05
1.8496e-05
1.84995e-05
1.8503e-05
1.85064e-05
1.85098e-05
1.85133e-05
1.85167e-05
1.85202e-05
1.85236e-05
1.8527e-05
1.85303e-05
1.85336e-05
1.8537e-05
1.85403e-05
1.85436e-05
1.85471e-05
1.85505e-05
1.85538e-05
1.85571e-05
1.85604e-05
1.85637e-05
1.85671e-05
1.85705e-05
1.85738e-05
1.85772e-05
1.85804e-05
1.85837e-05
1.8587e-05
1.85905e-05
1.85938e-05
1.85971e-05
1.86004e-05
1.86037e-05
1.8607e-05
1.86103e-05
1.86135e-05
1.86167e-05
1.862e-05
1.86234e-05
1.86267e-05
1.86299e-05
1.86331e-05
1.86364e-05
1.86397e-05
1.86429e-05
1.86461e-05
1.86493e-05
1.86525e-05
1.86557e-05
1.86589e-05
1.86621e-05
1.86652e-05
1.86683e-05
1.86714e-05
1.86746e-05
1.86778e-05
1.86809e-05
1.86842e-05
1.86873e-05
1.86903e-05
1.86934e-05
1.86965e-05
1.86997e-05
1.87028e-05
1.87059e-05
1.87089e-05
1.8712e-05
1.87149e-05
1.8718e-05
1.87211e-05
1.87241e-05
1.87271e-05
1.87301e-05
1.87332e-05
1.87363e-05
1.87393e-05
1.87423e-05
1.87452e-05
1.87482e-05
1.87511e-05
1.87541e-05
1.8757e-05
1.87599e-05
1.87627e-05
1.87656e-05
1.87684e-05
1.87712e-05
1.8774e-05
1.87769e-05
1.87797e-05
1.87826e-05
1.87855e-05
1.87885e-05
1.87913e-05
1.87941e-05
1.87969e-05
1.87996e-05
1.88024e-05
1.88051e-05
1.88078e-05
1.88105e-05
1.88132e-05
1.88159e-05
1.88186e-05
1.88212e-05
1.8824e-05
1.88268e-05
1.88294e-05
1.88321e-05
1.88347e-05
1.88374e-05
1.884e-05
1.88426e-05
1.88452e-05
1.88479e-05
1.88504e-05
1.88529e-05
1.88554e-05
1.88579e-05
1.88604e-05
1.88629e-05
1.88655e-05
1.88681e-05
1.88706e-05
1.88731e-05
1.88756e-05
1.88781e-05
1.88805e-05
1.88829e-05
1.88853e-05
1.88876e-05
1.88901e-05
1.88925e-05
1.8895e-05
1.88973e-05
1.88997e-05
1.89019e-05
1.89042e-05
1.89065e-05
1.89088e-05
1.89111e-05
1.89133e-05
1.89156e-05
1.89179e-05
1.89201e-05
1.89224e-05
1.89246e-05
1.89268e-05
1.8929e-05
1.89312e-05
1.89334e-05
1.89355e-05
1.89376e-05
1.89396e-05
1.89417e-05
1.89439e-05
1.89462e-05
1.89484e-05
1.89505e-05
1.89525e-05
1.89545e-05
1.89565e-05
1.89585e-05
1.89605e-05
1.89625e-05
1.89645e-05
1.89664e-05
1.89684e-05
1.89704e-05
1.89724e-05
1.89742e-05
1.89762e-05
1.89782e-05
1.89802e-05
1.89821e-05
1.89841e-05
1.8986e-05
1.89878e-05
1.89896e-05
1.89913e-05
1.8993e-05
1.89947e-05
1.89965e-05
1.89982e-05
1.90001e-05
1.9002e-05
1.90038e-05
1.90056e-05
1.90072e-05
1.90089e-05
1.90106e-05
1.90124e-05
1.90141e-05
1.90158e-05
1.90174e-05
1.9019e-05
1.90206e-05
1.90221e-05
1.90236e-05
1.90252e-05
1.90267e-05
1.90282e-05
1.90297e-05
1.90312e-05
1.90327e-05
1.90341e-05
1.90356e-05
1.9037e-05
1.90385e-05
1.90399e-05
1.90414e-05
1.90428e-05
1.90442e-05
1.90456e-05
1.90469e-05
1.90483e-05
1.90496e-05
1.9051e-05
1.90523e-05
1.90536e-05
1.90549e-05
1.90562e-05
1.90575e-05
1.90588e-05
1.90601e-05
1.90614e-05
1.90626e-05
1.90638e-05
1.90651e-05
1.90663e-05
1.90675e-05
1.90688e-05
1.90701e-05
1.90715e-05
1.90729e-05
1.90742e-05
1.90753e-05
1.90764e-05
1.90774e-05
1.90785e-05
1.90796e-05
1.90806e-05
1.90817e-05
1.90828e-05
1.90838e-05
1.90849e-05
1.90859e-05
1.9087e-05
1.9088e-05
1.9089e-05
1.909e-05
1.9091e-05
1.9092e-05
1.9093e-05
1.9094e-05
1.9095e-05
1.9096e-05
1.9097e-05
1.90979e-05
1.90988e-05
1.90997e-05
1.91006e-05
1.91015e-05
1.91023e-05
1.91032e-05
1.91042e-05
1.9105e-05
1.91059e-05
1.91067e-05
1.91075e-05
1.91083e-05
1.91091e-05
1.91099e-05
1.91106e-05
1.91114e-05
1.91122e-05
1.91129e-05
1.91137e-05
1.91144e-05
1.91152e-05
1.91159e-05
1.91167e-05
1.91176e-05
1.91184e-05
1.91191e-05
1.91198e-05
1.91205e-05
1.91212e-05
1.9122e-05
1.91227e-05
1.91233e-05
1.9124e-05
1.91246e-05
1.91252e-05
1.91258e-05
1.91264e-05
1.9127e-05
1.91275e-05
1.91281e-05
1.91287e-05
1.91293e-05
1.91299e-05
1.91304e-05
1.91309e-05
1.91315e-05
1.9132e-05
1.91325e-05
1.9133e-05
1.91336e-05
1.91341e-05
1.91346e-05
1.91351e-05
1.91356e-05
1.91361e-05
1.91366e-05
1.9137e-05
1.91375e-05
1.91379e-05
1.91384e-05
1.91388e-05
1.91392e-05
1.91396e-05
1.914e-05
1.91404e-05
1.91409e-05
1.91412e-05
1.91416e-05
1.9142e-05
1.91424e-05
1.91427e-05
1.91431e-05
1.91434e-05
1.91438e-05
1.91441e-05
1.91444e-05
1.91448e-05
1.91451e-05
1.91454e-05
1.91457e-05
1.9146e-05
1.91463e-05
1.91465e-05
1.91468e-05
1.91471e-05
1.91473e-05
1.91476e-05
1.91479e-05
1.91481e-05
1.91483e-05
1.91486e-05
1.91488e-05
1.9149e-05
1.91492e-05
1.91494e-05
1.91496e-05
1.91498e-05
1.915e-05
1.91502e-05
1.91504e-05
1.91506e-05
1.91507e-05
1.91509e-05
1.91511e-05
1.91512e-05
1.91513e-05
1.91515e-05
1.91516e-05
1.91517e-05
1.91518e-05
1.91519e-05
1.9152e-05
1.91521e-05
1.91522e-05
1.91523e-05
1.91524e-05
1.91525e-05
1.91526e-05
1.91526e-05
1.91527e-05
1.91527e-05
1.91528e-05
1.91528e-05
1.91529e-05
1.91529e-05
1.91529e-05
1.91529e-05
1.9153e-05
1.9153e-05
1.84553e-05
1.84586e-05
1.8462e-05
1.84655e-05
1.84689e-05
1.84724e-05
1.84757e-05
1.84791e-05
1.84826e-05
1.8486e-05
1.84893e-05
1.84926e-05
1.84959e-05
1.84995e-05
1.85031e-05
1.85064e-05
1.85098e-05
1.85132e-05
1.85167e-05
1.85202e-05
1.85237e-05
1.8527e-05
1.85303e-05
1.85336e-05
1.8537e-05
1.85403e-05
1.85436e-05
1.8547e-05
1.85505e-05
1.85538e-05
1.85572e-05
1.85604e-05
1.85637e-05
1.85671e-05
1.85705e-05
1.85738e-05
1.85771e-05
1.85804e-05
1.85838e-05
1.85872e-05
1.85905e-05
1.85939e-05
1.85972e-05
1.86004e-05
1.86036e-05
1.86069e-05
1.86102e-05
1.86134e-05
1.86168e-05
1.86201e-05
1.86234e-05
1.86267e-05
1.863e-05
1.86332e-05
1.86364e-05
1.86397e-05
1.86429e-05
1.86461e-05
1.86493e-05
1.86525e-05
1.86557e-05
1.86589e-05
1.86621e-05
1.86652e-05
1.86682e-05
1.86714e-05
1.86745e-05
1.86777e-05
1.86809e-05
1.86842e-05
1.86873e-05
1.86904e-05
1.86935e-05
1.86966e-05
1.86997e-05
1.87029e-05
1.87059e-05
1.87089e-05
1.87119e-05
1.8715e-05
1.8718e-05
1.8721e-05
1.87241e-05
1.87271e-05
1.87301e-05
1.87332e-05
1.87362e-05
1.87393e-05
1.87423e-05
1.87452e-05
1.87482e-05
1.87511e-05
1.87541e-05
1.8757e-05
1.87599e-05
1.87627e-05
1.87656e-05
1.87684e-05
1.87712e-05
1.8774e-05
1.87769e-05
1.87797e-05
1.87826e-05
1.87855e-05
1.87885e-05
1.87914e-05
1.87942e-05
1.87969e-05
1.87996e-05
1.88024e-05
1.88051e-05
1.88078e-05
1.88105e-05
1.88132e-05
1.8816e-05
1.88186e-05
1.88212e-05
1.88239e-05
1.88267e-05
1.88294e-05
1.88321e-05
1.88347e-05
1.88373e-05
1.884e-05
1.88426e-05
1.88453e-05
1.88479e-05
1.88504e-05
1.88529e-05
1.88554e-05
1.88579e-05
1.88604e-05
1.88629e-05
1.88654e-05
1.8868e-05
1.88706e-05
1.88731e-05
1.88756e-05
1.88781e-05
1.88805e-05
1.88829e-05
1.88853e-05
1.88877e-05
1.88901e-05
1.88925e-05
1.88949e-05
1.88973e-05
1.88996e-05
1.89019e-05
1.89042e-05
1.89065e-05
1.89088e-05
1.89111e-05
1.89134e-05
1.89157e-05
1.89179e-05
1.89202e-05
1.89224e-05
1.89246e-05
1.89268e-05
1.8929e-05
1.89313e-05
1.89335e-05
1.89356e-05
1.89376e-05
1.89396e-05
1.89417e-05
1.89439e-05
1.89462e-05
1.89484e-05
1.89505e-05
1.89525e-05
1.89545e-05
1.89565e-05
1.89585e-05
1.89605e-05
1.89624e-05
1.89644e-05
1.89664e-05
1.89684e-05
1.89704e-05
1.89724e-05
1.89743e-05
1.89763e-05
1.89784e-05
1.89804e-05
1.89823e-05
1.89842e-05
1.8986e-05
1.89878e-05
1.89895e-05
1.89912e-05
1.8993e-05
1.89948e-05
1.89965e-05
1.89983e-05
1.90001e-05
1.90019e-05
1.90037e-05
1.90055e-05
1.90072e-05
1.90089e-05
1.90106e-05
1.90123e-05
1.90141e-05
1.90158e-05
1.90174e-05
1.9019e-05
1.90205e-05
1.90221e-05
1.90236e-05
1.90252e-05
1.90267e-05
1.90282e-05
1.90297e-05
1.90312e-05
1.90326e-05
1.90341e-05
1.90356e-05
1.9037e-05
1.90385e-05
1.90399e-05
1.90414e-05
1.90428e-05
1.90442e-05
1.90456e-05
1.90469e-05
1.90483e-05
1.90496e-05
1.9051e-05
1.90523e-05
1.90536e-05
1.90549e-05
1.90562e-05
1.90575e-05
1.90589e-05
1.90601e-05
1.90614e-05
1.90626e-05
1.90639e-05
1.90651e-05
1.90663e-05
1.90676e-05
1.90689e-05
1.90703e-05
1.90716e-05
1.90729e-05
1.90741e-05
1.90752e-05
1.90763e-05
1.90774e-05
1.90785e-05
1.90795e-05
1.90806e-05
1.90817e-05
1.90828e-05
1.90838e-05
1.90849e-05
1.90859e-05
1.9087e-05
1.9088e-05
1.9089e-05
1.909e-05
1.9091e-05
1.9092e-05
1.9093e-05
1.9094e-05
1.9095e-05
1.9096e-05
1.9097e-05
1.9098e-05
1.90989e-05
1.90997e-05
1.91006e-05
1.91015e-05
1.91024e-05
1.91033e-05
1.91042e-05
1.9105e-05
1.91059e-05
1.91067e-05
1.91075e-05
1.91083e-05
1.91091e-05
1.91099e-05
1.91106e-05
1.91114e-05
1.91122e-05
1.91129e-05
1.91137e-05
1.91144e-05
1.91152e-05
1.9116e-05
1.91169e-05
1.91177e-05
1.91184e-05
1.91192e-05
1.91198e-05
1.91205e-05
1.91212e-05
1.91219e-05
1.91226e-05
1.91233e-05
1.9124e-05
1.91246e-05
1.91252e-05
1.91258e-05
1.91264e-05
1.9127e-05
1.91275e-05
1.91281e-05
1.91287e-05
1.91293e-05
1.91299e-05
1.91304e-05
1.91309e-05
1.91315e-05
1.9132e-05
1.91325e-05
1.91331e-05
1.91336e-05
1.91341e-05
1.91346e-05
1.91351e-05
1.91356e-05
1.91361e-05
1.91366e-05
1.9137e-05
1.91375e-05
1.91379e-05
1.91384e-05
1.91388e-05
1.91392e-05
1.91396e-05
1.914e-05
1.91404e-05
1.91409e-05
1.91413e-05
1.91416e-05
1.9142e-05
1.91424e-05
1.91427e-05
1.91431e-05
1.91434e-05
1.91438e-05
1.91441e-05
1.91444e-05
1.91448e-05
1.91451e-05
1.91454e-05
1.91457e-05
1.9146e-05
1.91463e-05
1.91465e-05
1.91468e-05
1.91471e-05
1.91473e-05
1.91476e-05
1.91479e-05
1.91481e-05
1.91483e-05
1.91486e-05
1.91488e-05
1.9149e-05
1.91492e-05
1.91494e-05
1.91496e-05
1.91498e-05
1.915e-05
1.91502e-05
1.91504e-05
1.91506e-05
1.91508e-05
1.91509e-05
1.91511e-05
1.91512e-05
1.91513e-05
1.91515e-05
1.91516e-05
1.91517e-05
1.91518e-05
1.91519e-05
1.9152e-05
1.91521e-05
1.91522e-05
1.91523e-05
1.91524e-05
1.91525e-05
1.91526e-05
1.91526e-05
1.91527e-05
1.91527e-05
1.91528e-05
1.91528e-05
1.91529e-05
1.91529e-05
1.91529e-05
1.91529e-05
1.9153e-05
1.9153e-05
1.84553e-05
1.84586e-05
1.8462e-05
1.84655e-05
1.84689e-05
1.84724e-05
1.84758e-05
1.84792e-05
1.84826e-05
1.84859e-05
1.84893e-05
1.84926e-05
1.8496e-05
1.84996e-05
1.8503e-05
1.85065e-05
1.85099e-05
1.85132e-05
1.85166e-05
1.85201e-05
1.85236e-05
1.8527e-05
1.85304e-05
1.85336e-05
1.8537e-05
1.85403e-05
1.85437e-05
1.8547e-05
1.85504e-05
1.85538e-05
1.85572e-05
1.85605e-05
1.85637e-05
1.8567e-05
1.85704e-05
1.85738e-05
1.85771e-05
1.85804e-05
1.85838e-05
1.85872e-05
1.85905e-05
1.85939e-05
1.85971e-05
1.86004e-05
1.86036e-05
1.86069e-05
1.86102e-05
1.86134e-05
1.86167e-05
1.86201e-05
1.86235e-05
1.86267e-05
1.86299e-05
1.86332e-05
1.86364e-05
1.86396e-05
1.86429e-05
1.86461e-05
1.86493e-05
1.86525e-05
1.86557e-05
1.86589e-05
1.8662e-05
1.86651e-05
1.86682e-05
1.86714e-05
1.86746e-05
1.86777e-05
1.86809e-05
1.86842e-05
1.86873e-05
1.86904e-05
1.86936e-05
1.86967e-05
1.86997e-05
1.87028e-05
1.87059e-05
1.8709e-05
1.8712e-05
1.8715e-05
1.8718e-05
1.8721e-05
1.8724e-05
1.8727e-05
1.87301e-05
1.87332e-05
1.87362e-05
1.87393e-05
1.87423e-05
1.87453e-05
1.87481e-05
1.87511e-05
1.87541e-05
1.8757e-05
1.87599e-05
1.87627e-05
1.87656e-05
1.87684e-05
1.87712e-05
1.8774e-05
1.87768e-05
1.87797e-05
1.87826e-05
1.87856e-05
1.87885e-05
1.87914e-05
1.87941e-05
1.87968e-05
1.87996e-05
1.88024e-05
1.88051e-05
1.88078e-05
1.88104e-05
1.88132e-05
1.88159e-05
1.88186e-05
1.88212e-05
1.88239e-05
1.88266e-05
1.88294e-05
1.88321e-05
1.88347e-05
1.88373e-05
1.884e-05
1.88427e-05
1.88453e-05
1.88479e-05
1.88504e-05
1.8853e-05
1.88554e-05
1.88579e-05
1.88604e-05
1.88629e-05
1.88654e-05
1.88679e-05
1.88706e-05
1.88732e-05
1.88757e-05
1.88781e-05
1.88805e-05
1.88829e-05
1.88853e-05
1.88877e-05
1.88901e-05
1.88925e-05
1.88949e-05
1.88972e-05
1.88996e-05
1.89019e-05
1.89042e-05
1.89065e-05
1.89088e-05
1.89111e-05
1.89134e-05
1.89157e-05
1.89179e-05
1.89201e-05
1.89223e-05
1.89246e-05
1.89268e-05
1.89291e-05
1.89313e-05
1.89335e-05
1.89355e-05
1.89376e-05
1.89397e-05
1.89418e-05
1.89439e-05
1.89462e-05
1.89483e-05
1.89504e-05
1.89524e-05
1.89544e-05
1.89565e-05
1.89585e-05
1.89605e-05
1.89624e-05
1.89643e-05
1.89663e-05
1.89683e-05
1.89703e-05
1.89723e-05
1.89743e-05
1.89764e-05
1.89786e-05
1.89806e-05
1.89824e-05
1.89842e-05
1.8986e-05
1.89877e-05
1.89894e-05
1.89912e-05
1.8993e-05
1.89948e-05
1.89966e-05
1.89983e-05
1.90001e-05
1.90019e-05
1.90037e-05
1.90054e-05
1.90071e-05
1.90088e-05
1.90106e-05
1.90123e-05
1.90141e-05
1.90158e-05
1.90174e-05
1.9019e-05
1.90205e-05
1.90221e-05
1.90237e-05
1.90252e-05
1.90267e-05
1.90282e-05
1.90297e-05
1.90312e-05
1.90326e-05
1.90341e-05
1.90356e-05
1.90371e-05
1.90385e-05
1.90399e-05
1.90413e-05
1.90428e-05
1.90442e-05
1.90456e-05
1.9047e-05
1.90483e-05
1.90497e-05
1.9051e-05
1.90523e-05
1.90536e-05
1.90548e-05
1.90562e-05
1.90575e-05
1.90589e-05
1.90601e-05
1.90614e-05
1.90627e-05
1.90639e-05
1.90652e-05
1.90664e-05
1.90677e-05
1.9069e-05
1.90704e-05
1.90717e-05
1.90729e-05
1.90741e-05
1.90752e-05
1.90763e-05
1.90773e-05
1.90784e-05
1.90795e-05
1.90806e-05
1.90817e-05
1.90828e-05
1.90838e-05
1.90849e-05
1.90859e-05
1.9087e-05
1.9088e-05
1.9089e-05
1.909e-05
1.9091e-05
1.9092e-05
1.9093e-05
1.9094e-05
1.9095e-05
1.90961e-05
1.9097e-05
1.9098e-05
1.90988e-05
1.90997e-05
1.91006e-05
1.91015e-05
1.91024e-05
1.91033e-05
1.91042e-05
1.9105e-05
1.91058e-05
1.91067e-05
1.91075e-05
1.91083e-05
1.91091e-05
1.91099e-05
1.91106e-05
1.91114e-05
1.91122e-05
1.91129e-05
1.91137e-05
1.91144e-05
1.91152e-05
1.91161e-05
1.9117e-05
1.91177e-05
1.91185e-05
1.91191e-05
1.91198e-05
1.91205e-05
1.91212e-05
1.91219e-05
1.91226e-05
1.91233e-05
1.91239e-05
1.91246e-05
1.91252e-05
1.91258e-05
1.91264e-05
1.9127e-05
1.91276e-05
1.91281e-05
1.91287e-05
1.91293e-05
1.91299e-05
1.91304e-05
1.91309e-05
1.91315e-05
1.9132e-05
1.91325e-05
1.91331e-05
1.91336e-05
1.91341e-05
1.91346e-05
1.91351e-05
1.91356e-05
1.91361e-05
1.91365e-05
1.9137e-05
1.91375e-05
1.91379e-05
1.91384e-05
1.91388e-05
1.91392e-05
1.91396e-05
1.914e-05
1.91404e-05
1.91409e-05
1.91413e-05
1.91416e-05
1.9142e-05
1.91424e-05
1.91427e-05
1.91431e-05
1.91434e-05
1.91438e-05
1.91441e-05
1.91444e-05
1.91447e-05
1.91451e-05
1.91454e-05
1.91457e-05
1.9146e-05
1.91463e-05
1.91465e-05
1.91468e-05
1.91471e-05
1.91473e-05
1.91476e-05
1.91479e-05
1.91481e-05
1.91483e-05
1.91486e-05
1.91488e-05
1.9149e-05
1.91492e-05
1.91494e-05
1.91496e-05
1.91498e-05
1.915e-05
1.91502e-05
1.91504e-05
1.91506e-05
1.91508e-05
1.91509e-05
1.91511e-05
1.91512e-05
1.91513e-05
1.91515e-05
1.91516e-05
1.91517e-05
1.91518e-05
1.91519e-05
1.9152e-05
1.91521e-05
1.91522e-05
1.91523e-05
1.91524e-05
1.91525e-05
1.91526e-05
1.91526e-05
1.91527e-05
1.91527e-05
1.91528e-05
1.91528e-05
1.91529e-05
1.91529e-05
1.91529e-05
1.91529e-05
1.9153e-05
1.9153e-05
1.84553e-05
1.84586e-05
1.84619e-05
1.84654e-05
1.84688e-05
1.84723e-05
1.84758e-05
1.84792e-05
1.84826e-05
1.8486e-05
1.84893e-05
1.84926e-05
1.84961e-05
1.84996e-05
1.85031e-05
1.85065e-05
1.85098e-05
1.85132e-05
1.85166e-05
1.852e-05
1.85236e-05
1.8527e-05
1.85303e-05
1.85336e-05
1.85369e-05
1.85403e-05
1.85437e-05
1.85471e-05
1.85504e-05
1.85538e-05
1.85572e-05
1.85605e-05
1.85637e-05
1.8567e-05
1.85704e-05
1.85737e-05
1.85771e-05
1.85805e-05
1.85838e-05
1.85871e-05
1.85905e-05
1.85938e-05
1.85971e-05
1.86004e-05
1.86037e-05
1.8607e-05
1.86102e-05
1.86134e-05
1.86167e-05
1.86201e-05
1.86234e-05
1.86267e-05
1.86299e-05
1.86332e-05
1.86364e-05
1.86396e-05
1.86429e-05
1.86461e-05
1.86493e-05
1.86525e-05
1.86556e-05
1.86588e-05
1.8662e-05
1.86652e-05
1.86683e-05
1.86713e-05
1.86745e-05
1.86778e-05
1.8681e-05
1.86842e-05