/*--------------------------------*- C++ -*----------------------------------*\
  =========                 |
  \\      /  F ield         | OpenFOAM: The Open Source CFD Toolbox
   \\    /   O peration     | Website:  https://openfoam.org
    \\  /    A nd           | Version:  7
     \\/     M anipulation  |
\*---------------------------------------------------------------------------*/
FoamFile
{
    version     2.0;
    format      ascii;
    class       volScalarField;
    location    "6000";
    object      muTotal;
}
// * * * * * * * * * * * * * * * * * * * * * * * * * * * * * * * * * * * * * //

dimensions      [1 -1 -1 0 0 0 0];

internalField   nonuniform List<scalar> 
160000
(
0.00048392
0.000483153
0.000450012
0.000447584
0.000422462
0.000429225
0.000503303
0.000534046
0.000488297
0.000470662
0.000455219
0.000445229
0.000446191
0.000447868
0.000448802
0.000469806
0.000486221
0.000492428
0.00049162
0.000490803
0.00048323
0.00043432
0.000441236
0.000460991
0.000468698
0.000423451
0.000417298
0.000416097
0.000410817
0.000410161
0.000453142
0.000486581
0.000485797
0.000478473
0.000476111
0.000426633
0.000426446
0.000425752
0.000425083
0.000461473
0.000463839
0.000463835
0.000411954
0.000402779
0.000401287
0.0003972
0.000476593
0.000483026
0.000482287
0.000476355
0.000408014
0.000385748
0.000383432
0.000381872
0.000381267
0.000380674
0.000444612
0.000443922
0.000418179
0.000417235
0.000429678
0.000437791
0.000439428
0.000438776
0.000431233
0.000435284
0.000434606
0.000433684
0.000432103
0.000365463
0.000364909
0.000364345
0.000363797
0.000363251
0.000405194
0.000432977
0.000438833
0.000436347
0.000437856
0.000437196
0.000438134
0.000439078
0.00043842
0.000419973
0.000406999
0.000406394
0.000405799
0.000405119
0.000405124
0.000404535
0.000403302
0.000402729
0.00040213
0.000402607
0.000402034
0.000395097
0.000394554
0.000425918
0.000426819
0.000425457
0.000425516
0.00040947
0.000408901
0.000408313
0.000385374
0.000384841
0.000384321
0.000383804
0.000383274
0.000396542
0.000427342
0.000424782
0.000424335
0.00042377
0.000402685
0.000402156
0.000386184
0.000373953
0.000383648
0.000428225
0.0004271
0.000412118
0.000411597
0.000411063
0.000410537
0.000409991
0.000420661
0.000421399
0.000420881
0.000420358
0.000419847
0.0003938
0.000379749
0.00037925
0.000378756
0.000378285
0.000383291
0.000382826
0.000382372
0.000378487
0.00038002
0.000379544
0.000373633
0.000373199
0.000372742
0.000372288
0.00037186
0.000371422
0.000397516
0.000397071
0.000363554
0.000363148
0.000362745
0.00036234
0.000359851
0.000359457
0.000359051
0.00037988
0.000379455
0.00037904
0.000360793
0.000362026
0.000369759
0.000380213
0.000369376
0.000349574
0.000349195
0.000327757
0.000327413
0.000327074
0.000345596
0.000423763
0.000423338
0.000422915
0.000422482
0.000373211
0.000372847
0.000386704
0.000393594
0.000393201
0.000392816
0.000392443
0.000392062
0.000360288
0.00035042
0.000349459
0.000349127
0.000339047
0.000272621
0.000269983
0.000317317
0.000336905
0.000353626
0.000371373
0.000371045
0.000301625
0.000252035
0.000338959
0.000517488
0.000517054
0.000516594
0.000516174
0.000453414
0.000347927
0.00031445
0.000314179
0.000333754
0.00040267
0.00040235
0.00040079
0.000400484
0.000398758
0.000388304
0.000379978
0.000374476
0.00036526
0.000351385
0.000352817
0.000406621
0.000406287
0.000406003
0.00040569
0.000395845
0.000332227
0.000324692
0.000324472
0.000324233
0.000324027
0.000323794
0.000346835
0.000351024
0.000352482
0.000343882
0.000343661
0.000343426
0.000343212
0.000342985
0.000385305
0.000385926
0.000385684
0.00038545
0.000345765
0.000330272
0.000293205
0.000254439
0.000194553
0.000174242
0.000234408
0.000420467
0.000503408
0.00050309
0.000502834
0.000489919
0.000434221
0.00036996
0.000350165
0.000340807
0.000299214
0.000304654
0.000375076
0.000374895
0.000374664
0.000374486
0.000328438
0.000312552
0.000319259
0.000319099
0.000309487
0.000284858
0.000284722
0.000382208
0.000396389
0.000396204
0.000396041
0.000376806
0.000299198
0.000299069
0.000298916
0.00033286
0.000332704
0.000331113
0.000298443
0.000298326
0.000298206
0.000312622
0.000398853
0.000398675
0.000398531
0.000364174
0.000354653
0.000354516
0.000317582
0.000317468
0.000343486
0.000355273
0.000355137
0.000343287
0.000225806
0.000164373
0.00013001
0.000129952
0.000151682
0.000511533
0.000511424
0.000511222
0.000511108
0.000510922
0.000465922
0.000405504
0.000338349
0.000306824
0.000295426
0.000284605
0.000284525
0.000335846
0.000377015
0.000376873
0.00037681
0.000341987
0.000273019
0.000234953
0.000207238
0.000190608
0.000190576
0.000190492
0.000190485
0.000250952
0.000347656
0.000399748
0.00039966
0.000399319
0.000399231
0.000399144
0.000399059
0.000386974
0.000363976
0.000323431
0.000311583
0.000335447
0.000349732
0.000349645
0.000349605
0.000349525
0.0002854
0.000285039
0.000284994
0.000284939
0.000284914
0.000386631
0.000386638
0.000386514
0.000381287
0.000327447
0.000317457
0.000317403
0.000317369
0.000365937
0.000366384
0.00036636
0.000366293
0.000357731
0.000317689
0.00031765
0.000317619
0.000317559
0.00031755
0.000317472
0.000317485
0.000317408
0.000358708
0.000368669
0.000368654
0.000368608
0.000368595
0.000365549
0.000365526
0.00035447
0.000328094
0.000326554
0.000326535
0.000326516
0.000338106
0.000331601
0.000331582
0.000331561
0.000345624
0.00034561
0.000345596
0.000335521
0.000300614
0.000296482
0.000280367
0.000280361
0.000283546
0.000254647
0.000264201
0.000384818
0.000461453
0.000596573
0.000596585
0.000467477
0.000465989
0.0005119
0.000457757
0.000435361
0.000429433
0.00043235
0.000448726
0.000463639
0.000470818
0.000470044
0.000460603
0.000445892
0.00044759
0.000446845
0.00046824
0.000484958
0.000449409
0.000444618
0.00044202
0.000444796
0.000436975
0.000482267
0.000481495
0.00046935
0.000421039
0.00041582
0.000411488
0.00041082
0.000458347
0.000454617
0.000455911
0.000473916
0.000481123
0.000477569
0.000427151
0.000423853
0.000423187
0.000435473
0.000466248
0.000465495
0.000461177
0.000444032
0.000402985
0.000398435
0.000396738
0.000396106
0.000431867
0.000482294
0.000477524
0.000438434
0.000396636
0.000440883
0.000440179
0.000435544
0.000413669
0.000443995
0.000429464
0.000417039
0.000416217
0.000415573
0.000438053
0.000437384
0.000429186
0.000428539
0.00042782
0.000407509
0.000406891
0.000405937
0.000414099
0.000413617
0.000412981
0.000385101
0.000399558
0.000436747
0.000439444
0.000438789
0.000424253
0.000396035
0.000397069
0.000437184
0.000417654
0.000411137
0.000410541
0.000409933
0.000410798
0.000410197
0.000405034
0.000404458
0.000403878
0.000403294
0.000402774
0.000405058
0.000404464
0.000395647
0.000395104
0.000425173
0.00042729
0.000426823
0.000421628
0.000425521
0.000424928
0.000375267
0.000374734
0.00040715
0.000384837
0.000412928
0.000429106
0.000428517
0.00042793
0.000427346
0.000399301
0.000382646
0.00037832
0.000376361
0.000375866
0.000374442
0.000373946
0.000396631
0.000429661
0.00042909
0.000428538
0.000427991
0.00042744
0.000422737
0.000422432
0.000421885
0.000421344
0.000420881
0.000420359
0.000419848
0.000380218
0.000379747
0.000379246
0.000387767
0.000376768
0.000383294
0.000382822
0.000375408
0.000374977
0.000374535
0.000374079
0.000373631
0.000378381
0.000391438
0.000390972
0.000400741
0.000400276
0.0003995
0.000374659
0.000374234
0.000373812
0.000360659
0.000360254
0.000359851
0.000359444
0.000359048
0.000358645
0.000356079
0.000355693
0.000355306
0.00036722
0.000380611
0.000380214
0.000350839
0.000350477
0.000351716
0.000332169
0.000329668
0.000364626
0.000403297
0.000423762
0.000379839
0.000379458
0.000380087
0.000392554
0.000394378
0.000393984
0.000393594
0.0003932
0.000392822
0.000392445
0.000382508
0.000301699
0.000303258
0.000307657
0.00027643
0.000197187
0.000169884
0.000202267
0.00038956
0.000481398
0.000440839
0.00035361
0.000276798
0.00025226
0.000252031
0.000295568
0.000515544
0.000517039
0.000516609
0.000468307
0.000384933
0.000317548
0.000314464
0.000378433
0.000403001
0.000402668
0.000402358
0.000402042
0.000401735
0.000379184
0.000354468
0.000359054
0.000364558
0.000351635
0.00035138
0.000383994
0.000406588
0.000406293
0.00040599
0.000380687
0.00033819
0.000324913
0.000324692
0.000324458
0.000324246
0.000324011
0.00032381
0.000323576
0.000344535
0.000395038
0.000394786
0.000394512
0.000394257
0.000368831
0.000386402
0.000386165
0.00038592
0.000385686
0.000355767
0.000285836
0.000272128
0.000254318
0.000173627
0.000160414
0.000160323
0.000360596
0.000503696
0.00050337
0.000503129
0.00049125
0.00043093
0.000406421
0.00038151
0.000336035
0.00029936
0.000299206
0.000342626
0.000375103
0.000374868
0.000374679
0.000328457
0.000312703
0.000312549
0.000312392
0.00031516
0.000279308
0.000284852
0.000396748
0.000396575
0.000396381
0.000396216
0.00039603
0.000339226
0.0002992
0.000299049
0.000298931
0.00029878
0.000298676
0.00029854
0.000298438
0.000348037
0.000399152
0.000399013
0.000398831
0.000398687
0.000393695
0.000365006
0.000331971
0.000296877
0.000310082
0.000345595
0.000345465
0.000260925
0.000211819
0.000210691
0.000172177
0.000130052
0.000129988
0.000129959
0.000374076
0.000511588
0.000511383
0.000511235
0.000466302
0.000408718
0.000366054
0.00033705
0.000304075
0.000284756
0.000284675
0.000284595
0.000341407
0.000377121
0.000376976
0.000376896
0.000338242
0.000259289
0.000223271
0.000201472
0.000190677
0.000190625
0.000277603
0.000411725
0.000411618
0.000411519
0.000399848
0.000399755
0.000387141
0.000339146
0.000327518
0.000347902
0.00035362
0.000357568
0.000352646
0.000320573
0.00031158
0.000331614
0.000333766
0.000327417
0.000327345
0.000349515
0.00028511
0.000285042
0.00028499
0.000288121
0.000386693
0.000386699
0.000386573
0.000386526
0.000354554
0.000317502
0.000317446
0.000317412
0.000317358
0.000317327
0.000317273
0.000333699
0.000366274
0.000355409
0.000330587
0.000317653
0.000317597
0.000373629
0.000373575
0.000373571
0.000373497
0.00037347
0.000361643
0.000354767
0.000357309
0.000356689
0.00033324
0.000328866
0.000327421
0.000327395
0.000327377
0.000340873
0.000352494
0.000354515
0.000354492
0.000354476
0.000354458
0.000330656
0.000331764
0.000343838
0.000298151
0.000289588
0.000289574
0.000289569
0.000283571
0.000283563
0.000283556
0.000254644
0.000278072
0.000325808
0.000439323
0.000562972
0.0005966
0.000467781
0.000466006
0.000511902
0.000500774
0.000499594
0.000449132
0.000451126
0.000474
0.000462776
0.000466312
0.000462101
0.000454825
0.000445896
0.000448877
0.000448127
0.000465142
0.000486374
0.000485573
0.000444325
0.000442024
0.000441307
0.000473436
0.000478289
0.000455303
0.000453276
0.000452563
0.000451647
0.000440802
0.000463088
0.000462341
0.000429184
0.000446824
0.000472787
0.000481124
0.000446504
0.000429235
0.000460554
0.000459018
0.000451168
0.000424991
0.000418462
0.000418613
0.000435762
0.000443164
0.000447262
0.000441047
0.000418474
0.000418366
0.000420993
0.000449297
0.000441038
0.000417158
0.000413654
0.000413013
0.000412365
0.000412808
0.000432594
0.000457014
0.000456302
0.000451333
0.000397589
0.000396982
0.000436812
0.000434732
0.000433929
0.000434651
0.000433982
0.000431671
0.000405936
0.000405468
0.000403251
0.000402644
0.00040983
0.00040922
0.000398384
0.000397788
0.000397199
0.000396618
0.000396021
0.000418929
0.0004332
0.000435262
0.000434613
0.000426562
0.000411381
0.000393105
0.000400908
0.000417535
0.000416935
0.000403869
0.000403286
0.000403618
0.000398356
0.000397783
0.000396978
0.000371593
0.000371084
0.000370572
0.000380175
0.000385005
0.000380522
0.000412217
0.000392481
0.000372166
0.000407149
0.000430031
0.000430362
0.000404819
0.000404274
0.00040372
0.000403175
0.00040264
0.000408421
0.000390479
0.00038997
0.000386799
0.000374441
0.000392234
0.000420951
0.000422443
0.000393976
0.000385348
0.000384853
0.000386283
0.000403222
0.00039309
0.000377322
0.000376855
0.000377472
0.000380012
0.000390081
0.000415646
0.000415119
0.000413023
0.000387827
0.000376772
0.000376308
0.000375845
0.000375406
0.000374971
0.000392055
0.000395332
0.000394859
0.000371586
0.000371135
0.000370693
0.000372926
0.000400095
0.000399643
0.000367117
0.000366701
0.000366289
0.000365887
0.000378411
0.000377976
0.000377409
0.00037438
0.000386523
0.000386099
0.000385
0.000355308
0.000354925
0.000354543
0.000384252
0.00038386
0.000382563
0.000351727
0.000296723
0.000297785
0.000372197
0.00042419
0.000423762
0.000423333
0.000422911
0.000370025
0.000362177
0.000361814
0.00036145
0.000361092
0.000387227
0.000392817
0.000368873
0.000333115
0.000301701
0.000239151
0.000188181
0.000170165
0.000170014
0.000169858
0.000386822
0.000535195
0.000519799
0.000457428
0.000377177
0.000303431
0.00025302
0.000252031
0.000268533
0.00037243
0.00042776
0.000413821
0.000350393
0.000319217
0.000335161
0.000375319
0.000403333
0.000402999
0.00038868
0.00038431
0.000384015
0.000387548
0.000353276
0.000352413
0.000352151
0.000351885
0.000351632
0.00037081
0.000393921
0.000393636
0.000350196
0.00033513
0.000334889
0.000334651
0.000344376
0.000371125
0.000356021
0.000328039
0.000324028
0.000348042
0.000373889
0.000383758
0.000395046
0.000394777
0.00036215
0.00032304
0.00035604
0.00036941
0.000351993
0.00034804
0.000347826
0.000347613
0.000324499
0.000244192
0.000171049
0.000160516
0.000160424
0.000160304
0.000357158
0.000503651
0.000503417
0.000503109
0.00041791
0.000363077
0.00033633
0.000321498
0.000305298
0.000299357
0.000299201
0.000321035
0.000375064
0.000371651
0.000321952
0.000311799
0.000316246
0.000320644
0.000295761
0.000273238
0.000279298
0.000361921
0.000395077
0.000364357
0.00035833
0.000358169
0.000358014
0.000336001
0.000300924
0.000299064
0.000298911
0.000317323
0.000369947
0.00039965
0.000399489
0.000399321
0.000399161
0.000380643
0.000349422
0.000359094
0.000371592
0.000351703
0.000301053
0.000235592
0.000179977
0.000142787
0.000130246
0.000130181
0.000130157
0.000130101
0.000130074
0.000130014
0.000178257
0.000446275
0.000511739
0.000511559
0.000458674
0.000383631
0.000350727
0.000350626
0.000356268
0.000327447
0.000290906
0.000287105
0.000303484
0.000321275
0.00035508
0.000376316
0.000349257
0.000292034
0.000260439
0.000244349
0.00021633
0.000201471
0.000244943
0.000380624
0.000411831
0.000411725
0.000411623
0.000403166
0.000368572
0.000363453
0.000350505
0.000325615
0.000325542
0.000353324
0.000353256
0.000337289
0.000325904
0.000310536
0.000310475
0.000310415
0.000323175
0.000333138
0.000315573
0.000289818
0.000289757
0.00034742
0.000385454
0.000386756
0.000386752
0.000386633
0.000386577
0.000350726
0.000349518
0.00035185
0.000351804
0.00035175
0.000332472
0.000317322
0.000339542
0.000350535
0.000350494
0.000325171
0.000317689
0.000317645
0.000318187
0.000373614
0.000373591
0.000370465
0.000363683
0.00034327
0.000305836
0.000305811
0.000351677
0.000394674
0.000394632
0.000394612
0.000394571
0.000394549
0.000371722
0.000326958
0.000326935
0.00032692
0.000326889
0.000326885
0.000326854
0.000330654
0.000321116
0.000321098
0.000321082
0.000325321
0.000320788
0.000274487
0.000274477
0.000274466
0.00027429
0.00028206
0.000293093
0.000295867
0.00042686
0.000578339
0.000596614
0.000469259
0.000493616
0.000488411
0.000489138
0.00049681
0.000491681
0.000474798
0.000474024
0.000462761
0.000469644
0.000468888
0.000468152
0.000457775
0.000448878
0.000448286
0.000443615
0.000444164
0.000442991
0.000442701
0.00044836
0.000442148
0.000437378
0.000435889
0.00045389
0.000470692
0.000469946
0.000463049
0.000461014
0.00045855
0.000411858
0.000411221
0.000410584
0.000410902
0.000410244
0.000417326
0.000465797
0.000465054
0.000440202
0.000424078
0.000419821
0.000418401
0.000417731
0.000417341
0.000424457
0.000447262
0.000445183
0.00044449
0.000442115
0.000435103
0.000420273
0.000417915
0.000414237
0.000413603
0.000417404
0.000416744
0.000415965
0.000408017
0.000406772
0.000399187
0.000398076
0.000397466
0.000397345
0.000443865
0.000417742
0.000417126
0.000417728
0.000388578
0.000357555
0.000432546
0.000431875
0.000427967
0.000376509
0.00036663
0.000415999
0.000432929
0.000432344
0.000431748
0.000431277
0.000430635
0.0003966
0.000396019
0.000395425
0.000394845
0.000394278
0.000393701
0.000393109
0.000392525
0.000391945
0.000414833
0.000414238
0.000403277
0.000404009
0.000403427
0.000395037
0.000381411
0.000410483
0.00040187
0.00037058
0.000370075
0.000369557
0.000367982
0.000325631
0.000325176
0.000349994
0.000396299
0.000432466
0.000434348
0.000433765
0.000433321
0.000432734
0.000408904
0.00040897
0.000408425
0.000380922
0.000375427
0.000374936
0.000374445
0.000373939
0.000409137
0.000406476
0.000389923
0.00038942
0.000388917
0.000374929
0.000374451
0.000373963
0.000377166
0.000377219
0.000376753
0.00038515
0.000386894
0.000387649
0.000369614
0.000352009
0.000337057
0.000370985
0.000386812
0.000401283
0.000404446
0.000421338
0.000427198
0.00039533
0.000372034
0.000371586
0.000371143
0.000370693
0.00037026
0.000398673
0.000385712
0.000385274
0.000384833
0.000384401
0.000378631
0.000355306
0.000349037
0.000348648
0.000348261
0.000347872
0.000347496
0.000344591
0.000355303
0.000369885
0.000394941
0.000408584
0.000371919
0.000318863
0.000292828
0.000290377
0.000291998
0.000406443
0.000424187
0.000405266
0.000386483
0.000396197
0.000395805
0.000395415
0.00039502
0.000366336
0.000336482
0.000358438
0.000391065
0.000346754
0.000267112
0.000233247
0.000206884
0.000182007
0.000170155
0.000259907
0.000479753
0.000567194
0.000560872
0.000506396
0.000450479
0.00043352
0.000400035
0.000320673
0.000257254
0.000257434
0.000302801
0.000357573
0.000357399
0.000266924
0.000266705
0.000277086
0.000364402
0.000403327
0.000403003
0.000394294
0.000391792
0.000391485
0.000369935
0.00035268
0.000352413
0.000371108
0.000395068
0.000394777
0.000387833
0.000372972
0.000351565
0.000335374
0.000335134
0.000334892
0.000366199
0.00039941
0.000399131
0.000398857
0.000369387
0.000347273
0.000343759
0.000343533
0.000343304
0.000363742
0.000354121
0.000294815
0.000281799
0.000340931
0.000379485
0.000390225
0.000389984
0.00037197
0.000330035
0.000257709
0.000188838
0.000160611
0.000160518
0.000160402
0.000221041
0.000503948
0.000503705
0.000503391
0.000426945
0.000368442
0.000341154
0.000310662
0.00030018
0.000300022
0.000299859
0.000338455
0.000364819
0.0003735
0.000343934
0.000311957
0.000311801
0.000311645
0.000350575
0.00032888
0.00027324
0.00027057
0.000290274
0.000376801
0.000392723
0.000392543
0.000392369
0.000375832
0.000301445
0.000299195
0.000299052
0.000299037
0.000385922
0.000405048
0.00040488
0.00038713
0.000357602
0.000349699
0.000349564
0.000349426
0.000344504
0.000342045
0.000329723
0.000294318
0.000215939
0.000140617
0.000130289
0.000130231
0.000130195
0.000168603
0.000363033
0.000439174
0.000466924
0.000466756
0.000466576
0.000389006
0.000376782
0.000364671
0.000383788
0.000383675
0.000383556
0.000383369
0.000357088
0.000336392
0.000329597
0.000312633
0.000311479
0.000314138
0.000358636
0.000354048
0.000320401
0.000271514
0.00022095
0.000216328
0.000222671
0.000333025
0.000411932
0.000411828
0.000411726
0.000368253
0.000318266
0.000301563
0.000323312
0.000352403
0.000337177
0.000299665
0.000275521
0.000275464
0.000275405
0.000275351
0.000336975
0.000391012
0.000407196
0.000407115
0.00039394
0.000340468
0.000297448
0.000289766
0.00030608
0.000386818
0.000386776
0.000386694
0.000380023
0.000369732
0.00035004
0.00034495
0.000342675
0.000342626
0.000343107
0.000334093
0.000312099
0.000300876
0.000300836
0.000300801
0.000337135
0.000363401
0.000340831
0.000310593
0.00031056
0.000309065
0.000282962
0.000274063
0.000311047
0.000305831
0.000313074
0.000330738
0.0003705
0.000394638
0.000394602
0.000394581
0.000393255
0.00035049
0.000326957
0.000326965
0.00032693
0.000326902
0.000326872
0.000326868
0.000339099
0.00035457
0.000354554
0.000354542
0.000325319
0.000325304
0.000336015
0.000301017
0.000259763
0.000259747
0.000259753
0.000259732
0.000284755
0.000414404
0.000576631
0.000596629
0.000491006
0.000500882
0.000486152
0.000482803
0.000479503
0.000474106
0.000458193
0.000461533
0.000461659
0.000455054
0.000459236
0.000452151
0.000457797
0.000453204
0.000449004
0.000443618
0.00045004
0.000442558
0.000444695
0.000448359
0.000442118
0.000447309
0.000435889
0.000438313
0.000429858
0.000429187
0.000429399
0.00042282
0.000422594
0.000470519
0.000469766
0.000463749
0.000473387
0.00047097
0.000402658
0.000399022
0.000396204
0.000395909
0.000434364
0.000466777
0.000437297
0.000467535
0.000462381
0.000432421
0.000425385
0.000424715
0.000424056
0.000426475
0.000430973
0.000425959
0.000424853
0.000422898
0.000419074
0.000409805
0.000409169
0.000408528
0.000407897
0.000428459
0.000425469
0.000400104
0.000400142
0.000451337
0.000471842
0.000471137
0.000470225
0.000470719
0.000468214
0.000356896
0.000355267
0.000354653
0.000354121
0.000353709
0.000354044
0.000390126
0.000409874
0.000432192
0.000425675
0.00042508
0.000429259
0.000428606
0.000425594
0.000395434
0.000394853
0.000401313
0.000410711
0.000410095
0.000407398
0.00038987
0.0003858
0.000385245
0.000384674
0.000377019
0.000376478
0.000375941
0.00038141
0.000431451
0.000430849
0.000430261
0.000429675
0.000429081
0.00042848
0.00032563
0.000325177
0.000324722
0.000324262
0.000329136
0.000431621
0.000426398
0.000413582
0.000417048
0.000408908
0.000408375
0.000408438
0.000407885
0.000407339
0.000399936
0.000374452
0.000373949
0.000383728
0.000372445
0.000387763
0.000378479
0.000367319
0.000378008
0.000381865
0.000381368
0.0003722
0.000371738
0.000376308
0.000432505
0.000431973
0.000431444
0.0004309
0.000430366
0.000309622
0.000309232
0.000308856
0.000308479
0.000309426
0.000413116
0.00042719
0.000426689
0.000425949
0.000390685
0.000372415
0.000371971
0.000363465
0.000355094
0.000354691
0.000354288
0.000353889
0.00035349
0.000380887
0.000394603
0.000394156
0.00039372
0.000393279
0.000365644
0.000329144
0.000328781
0.000328422
0.000328056
0.000364128
0.000429237
0.000428807
0.000362588
0.000407058
0.000290376
0.00029006
0.00029752
0.000382144
0.000398104
0.000386486
0.000362471
0.000369972
0.000387585
0.000381168
0.000359015
0.000333748
0.000317703
0.000317388
0.000345099
0.000316105
0.000264198
0.000281254
0.000382873
0.000507633
0.000589368
0.000588822
0.000575468
0.00051206
0.000433092
0.00040259
0.000412084
0.00040059
0.000338175
0.000326594
0.000386928
0.000386576
0.000386241
0.000385906
0.000266932
0.000266701
0.000266482
0.000266247
0.0003962
0.000403
0.000373944
0.000360334
0.000359825
0.000359546
0.000389116
0.000395663
0.000395364
0.000395072
0.000360334
0.000337237
0.00033699
0.000336744
0.000336499
0.000359555
0.000361791
0.000376728
0.000399411
0.00039913
0.000370706
0.000349261
0.000349018
0.000377778
0.000377516
0.000377279
0.000377023
0.000368261
0.000333439
0.000239206
0.000309813
0.000338843
0.000297077
0.000263053
0.000253788
0.000255007
0.000237139
0.000188282
0.000166649
0.000231112
0.000372075
0.000485277
0.000503988
0.000503682
0.000441119
0.000360412
0.000322682
0.000311003
0.000310661
0.000318358
0.00035197
0.000368799
0.000368601
0.000368404
0.000355298
0.000327346
0.000312684
0.000325951
0.000364647
0.000364472
0.000340916
0.000328246
0.000270567
0.000270434
0.000270302
0.000323902
0.000390439
0.000348888
0.000301579
0.000301444
0.000316761
0.000405577
0.000405394
0.000405226
0.00040505
0.000382981
0.000359882
0.000358315
0.000350444
0.00033276
0.000332633
0.000332505
0.000338402
0.000338275
0.000278718
0.000181913
0.00013034
0.000130273
0.00017986
0.000364842
0.000481582
0.000481443
0.000481241
0.000481096
0.00043443
0.000339515
0.000258309
0.000258222
0.000258137
0.000356008
0.000383671
0.000383563
0.000347934
0.000311837
0.000311748
0.000311646
0.000311568
0.000311447
0.00031139
0.000311269
0.00032533
0.000286736
0.000259859
0.000253226
0.000286532
0.000370272
0.000412036
0.000411931
0.000411829
0.000383963
0.000309682
0.000287954
0.000290143
0.000361209
0.000370686
0.000370572
0.000370499
0.000319385
0.00031931
0.000275405
0.000275346
0.000275293
0.00027522
0.000373403
0.000383736
0.000355749
0.000355676
0.000386943
0.00038695
0.000386879
0.000386822
0.000359461
0.000331046
0.000324939
0.000323015
0.000320668
0.000330023
0.000358762
0.000358712
0.000354324
0.000321328
0.000304519
0.000301034
0.000300838
0.000300799
0.000306668
0.00036879
0.000368742
0.000368721
0.000368667
0.000354396
0.000368559
0.000270502
0.000270465
0.000270459
0.000270413
0.000336992
0.000390361
0.000394636
0.000374744
0.000327014
0.000327
0.000326969
0.000326958
0.000326924
0.000326919
0.000326883
0.000342352
0.000342311
0.000329134
0.000306092
0.000306067
0.000343979
0.000343968
0.000332165
0.000336014
0.000336006
0.000335997
0.000326618
0.000259747
0.000270107
0.000335587
0.000445752
0.000536767
0.000596643
0.000468098
0.00048612
0.000474834
0.00046559
0.000457041
0.000456295
0.000455555
0.000454827
0.000454107
0.000455069
0.000452858
0.000452146
0.000454625
0.000453645
0.000464
0.000468497
0.000459961
0.00044256
0.000442414
0.000441611
0.000440878
0.000459941
0.000459209
0.000437144
0.000437145
0.000437985
0.000423212
0.000422721
0.000418769
0.000442297
0.000467456
0.000467564
0.00047338
0.000467511
0.000401052
0.00039363
0.000393016
0.000394284
0.000400054
0.000468375
0.000475968
0.000474283
0.00044489
0.00042743
0.000426208
0.000437006
0.00043407
0.00042213
0.000419701
0.000427969
0.000427276
0.000411077
0.000410443
0.0004098
0.000409166
0.000409202
0.000437104
0.000436426
0.000421426
0.000420345
0.000424518
0.000432173
0.000471741
0.000471087
0.000471203
0.000470718
0.000468618
0.000371591
0.000355673
0.000354652
0.000407091
0.000447514
0.00044683
0.000428137
0.000409874
0.000425943
0.000425669
0.000425148
0.000411965
0.000396711
0.000396103
0.000395513
0.00039487
0.000393737
0.000393157
0.000392572
0.000391991
0.000419484
0.000418865
0.000416742
0.000377559
0.000377025
0.000390905
0.000406464
0.000408036
0.000418015
0.00038764
0.000397394
0.000429665
0.000429077
0.000416083
0.00032564
0.000325176
0.000324707
0.000365406
0.000415454
0.000403751
0.000403213
0.000402662
0.000417341
0.000416787
0.000412763
0.000382551
0.000384313
0.000402143
0.000401623
0.000394421
0.000369139
0.000368641
0.000368147
0.000367669
0.000367192
0.000366721
0.000366245
0.000375668
0.000374793
0.000397955
0.00043357
0.000433038
0.000432499
0.000431976
0.000431437
0.000430902
0.000423358
0.00030963
0.000309235
0.000308846
0.000308471
0.000373388
0.000407357
0.000406502
0.000396567
0.000402821
0.000402339
0.000392229
0.000368602
0.000368171
0.000383582
0.000383141
0.000379578
0.000355643
0.000353488
0.000353087
0.000358169
0.000390692
0.000376391
0.000342471
0.000329505
0.000329142
0.00032878
0.000328407
0.000421896
0.000429696
0.000429244
0.000428811
0.000428361
0.000427912
0.000290375
0.000290062
0.000320106
0.000363449
0.000363089
0.000362729
0.000362413
0.000381708
0.000382855
0.000371344
0.000349003
0.000325899
0.000322692
0.000304869
0.000232933
0.00015563
0.000164401
0.000319197
0.000525737
0.000589898
0.000589356
0.000586073
0.000484689
0.000382893
0.00035606
0.000355581
0.000381543
0.000400579
0.000387616
0.000382269
0.000386931
0.000386591
0.000386247
0.000385922
0.000266932
0.000266711
0.000266476
0.000266257
0.000386324
0.0004019
0.00038299
0.000366982
0.000359823
0.000363269
0.000395968
0.000395666
0.000395368
0.000392699
0.00036349
0.000337242
0.000346903
0.000366927
0.000366662
0.000366341
0.00033968
0.00033662
0.00033638
0.000336142
0.000336329
0.00035196
0.000375698
0.000377766
0.000377526
0.000377269
0.000356276
0.000288951
0.000308989
0.000211676
0.000251934
0.000260048
0.000236588
0.000240632
0.000252813
0.000241774
0.000208877
0.000207326
0.000268565
0.000374541
0.000455975
0.000475641
0.000467494
0.000447049
0.000384556
0.000323204
0.000309399
0.000310374
0.000356732
0.00036919
0.000368998
0.000368795
0.000368602
0.000345346
0.000311994
0.000311836
0.000311679
0.000328138
0.000364654
0.000364471
0.00032878
0.000328623
0.000270564
0.000270427
0.000303999
0.00035515
0.000354997
0.000323131
0.000301581
0.000301444
0.000306928
0.000405568
0.000405398
0.000386718
0.000367132
0.000364264
0.000364109
0.000363969
0.000363817
0.000363679
0.000363532
0.000341628
0.000301945
0.000266666
0.000212008
0.000149722
0.000130329
0.000147412
0.000325222
0.000481753
0.0004816
0.000481411
0.000476893
0.000453874
0.000321264
0.000307307
0.000258312
0.000258225
0.000258138
0.000300777
0.000383675
0.000383202
0.000328149
0.000311839
0.000311739
0.000343488
0.000387771
0.000387677
0.000387546
0.000387454
0.000345965
0.000273758
0.000253299
0.000253229
0.000293213
0.000349421
0.000393659
0.000397499
0.000356379
0.000305821
0.000288023
0.000287959
0.000287892
0.000344053
0.000370652
0.000370607
0.000370501
0.000318281
0.000318223
0.000275405
0.000275351
0.000275288
0.000297073
0.000380457
0.000356079
0.000355752
0.000355684
0.000362632
0.000362567
0.000362503
0.000386485
0.000386973
0.000341784
0.000320757
0.000320717
0.000320629
0.00032062
0.000358203
0.000358711
0.000358662
0.000353706
0.000334091
0.000325
0.00031777
0.000320224
0.000350176
0.000368783
0.000368785
0.000368707
0.000368699
0.000368628
0.000368589
0.000270493
0.000270477
0.000270433
0.000270428
0.000305478
0.000354974
0.000394641
0.000407172
0.000407159
0.000407115
0.000398243
0.000372407
0.000361691
0.000370546
0.000370525
0.000343333
0.000328171
0.000329131
0.000312628
0.00030607
0.000306055
0.000306036
0.000306024
0.000306017
0.000306008
0.000306006
0.000278166
0.000259756
0.000297593
0.00044064
0.000548811
0.000596645
0.000596658
0.00049672
0.000458451
0.000466389
0.000458335
0.00045759
0.00047774
0.000476954
0.000464144
0.000454096
0.000471877
0.000454067
0.00045748
0.000466321
0.000465545
0.000463937
0.000468503
0.000443902
0.000443189
0.000442888
0.000459093
0.000467304
0.000457983
0.000437833
0.000437154
0.000445477
0.000437983
0.000423202
0.000423618
0.000418761
0.000440753
0.000471311
0.000467474
0.000461165
0.00046759
0.00040331
0.000404895
0.000394612
0.000423274
0.000433245
0.000442558
0.000476121
0.000475354
0.000455518
0.000440244
0.000452815
0.000449922
0.000416679
0.00041603
0.000415374
0.00041663
0.000411722
0.000411079
0.000411952
0.000420326
0.000420959
0.000423684
0.000437111
0.000436153
0.000425041
0.000414883
0.000405667
0.000413194
0.000470995
0.000470508