/*--------------------------------*- C++ -*----------------------------------*\
  =========                 |
  \\      /  F ield         | OpenFOAM: The Open Source CFD Toolbox
   \\    /   O peration     | Website:  https://openfoam.org
    \\  /    A nd           | Version:  7
     \\/     M anipulation  |
\*---------------------------------------------------------------------------*/
FoamFile
{
    version     2.0;
    format      ascii;
    class       volScalarField;
    location    "6000";
    object      nuTotal;
}
// * * * * * * * * * * * * * * * * * * * * * * * * * * * * * * * * * * * * * //

dimensions      [0 2 -1 0 0 0 0];

internalField   nonuniform List<scalar> 
160000
(
9.34209e-07
9.32748e-07
9.33812e-07
9.32496e-07
9.33179e-07
9.30999e-07
9.23709e-07
9.20303e-07
9.21751e-07
9.21494e-07
9.21131e-07
9.20436e-07
9.18826e-07
9.17104e-07
9.15489e-07
9.1234e-07
9.09669e-07
9.07764e-07
9.06292e-07
9.04806e-07
9.03833e-07
9.06199e-07
9.04129e-07
9.0105e-07
8.99013e-07
9.01296e-07
9.00337e-07
8.98924e-07
8.97926e-07
8.96509e-07
8.913e-07
8.87424e-07
8.86013e-07
8.8506e-07
8.83824e-07
8.86335e-07
8.84868e-07
8.83445e-07
8.82073e-07
8.77667e-07
8.76057e-07
8.74648e-07
8.77583e-07
8.77052e-07
8.75771e-07
8.747e-07
8.66551e-07
8.64758e-07
8.63452e-07
8.62487e-07
8.66709e-07
8.67537e-07
8.6634e-07
8.6511e-07
8.63758e-07
8.62432e-07
8.55046e-07
8.53737e-07
8.54624e-07
8.53396e-07
8.50906e-07
8.48834e-07
8.47385e-07
8.46144e-07
8.45497e-07
8.43839e-07
8.42542e-07
8.41267e-07
8.40084e-07
8.45449e-07
8.44185e-07
8.42897e-07
8.41648e-07
8.404e-07
8.34668e-07
8.30942e-07
8.29201e-07
8.28149e-07
8.26767e-07
8.25553e-07
8.24216e-07
8.22847e-07
8.21631e-07
8.21928e-07
8.2184e-07
8.20635e-07
8.1945e-07
8.18312e-07
8.1712e-07
8.15948e-07
8.14865e-07
8.13724e-07
8.12528e-07
8.11245e-07
8.10106e-07
8.09624e-07
8.08526e-07
8.04551e-07
8.03329e-07
8.02312e-07
8.01168e-07
8.01416e-07
8.00319e-07
7.99183e-07
8.00226e-07
7.99139e-07
7.9807e-07
7.97015e-07
7.95928e-07
7.93493e-07
7.89675e-07
7.88817e-07
7.87788e-07
7.86753e-07
7.87525e-07
7.86503e-07
7.86958e-07
7.87148e-07
7.8504e-07
7.79951e-07
7.78988e-07
7.79214e-07
7.78242e-07
7.77254e-07
7.76265e-07
7.75257e-07
7.73305e-07
7.72247e-07
7.71312e-07
7.70368e-07
7.69443e-07
7.70783e-07
7.71172e-07
7.70175e-07
7.69186e-07
7.68242e-07
7.66771e-07
7.65855e-07
7.6496e-07
7.64444e-07
7.63359e-07
7.62423e-07
7.62098e-07
7.61232e-07
7.60306e-07
7.59401e-07
7.5853e-07
7.57661e-07
7.54231e-07
7.53403e-07
7.55867e-07
7.55035e-07
7.54215e-07
7.53382e-07
7.52784e-07
7.51971e-07
7.51142e-07
7.48086e-07
7.47263e-07
7.46456e-07
7.47516e-07
7.46552e-07
7.44913e-07
7.43042e-07
7.43341e-07
7.44725e-07
7.4393e-07
7.45783e-07
7.45013e-07
7.44253e-07
7.41114e-07
7.32811e-07
7.32093e-07
7.31369e-07
7.30635e-07
7.34253e-07
7.33548e-07
7.31458e-07
7.30069e-07
7.29333e-07
7.28648e-07
7.27965e-07
7.27273e-07
7.29706e-07
7.30088e-07
7.29477e-07
7.28793e-07
7.29271e-07
7.3878e-07
7.3857e-07
7.29976e-07
7.26747e-07
7.24164e-07
7.2165e-07
7.21012e-07
7.29019e-07
7.37677e-07
7.22483e-07
7.07891e-07
7.07276e-07
7.06686e-07
7.06114e-07
7.09122e-07
7.17642e-07
7.21268e-07
7.20664e-07
7.17428e-07
7.09794e-07
7.09251e-07
7.0882e-07
7.08288e-07
7.07879e-07
7.08245e-07
7.08466e-07
7.08446e-07
7.08822e-07
7.09766e-07
7.09073e-07
7.0344e-07
7.02917e-07
7.02394e-07
7.01892e-07
7.02218e-07
7.08301e-07
7.08763e-07
7.08288e-07
7.07802e-07
7.07327e-07
7.06859e-07
7.03553e-07
7.02614e-07
7.01989e-07
7.02474e-07
7.0202e-07
7.01567e-07
7.01118e-07
7.00681e-07
6.95916e-07
6.95417e-07
6.95001e-07
6.94582e-07
6.98148e-07
6.99538e-07
7.04312e-07
7.11069e-07
7.27977e-07
7.36389e-07
7.14323e-07
6.88034e-07
6.82498e-07
6.82131e-07
6.81772e-07
6.8209e-07
6.85148e-07
6.90071e-07
6.91737e-07
6.9241e-07
6.9756e-07
6.96376e-07
6.87708e-07
6.87322e-07
6.86963e-07
6.86631e-07
6.91289e-07
6.93031e-07
6.91763e-07
6.91419e-07
6.92387e-07
6.95839e-07
6.95489e-07
6.8312e-07
6.81575e-07
6.8128e-07
6.80984e-07
6.82378e-07
6.91272e-07
6.9098e-07
6.90668e-07
6.85758e-07
6.85476e-07
6.85381e-07
6.89533e-07
6.89262e-07
6.88989e-07
6.86618e-07
6.77194e-07
6.76942e-07
6.76693e-07
6.79536e-07
6.8024e-07
6.79983e-07
6.84075e-07
6.83828e-07
6.80389e-07
6.78847e-07
6.78595e-07
6.7961e-07
6.9998e-07
7.23714e-07
7.48365e-07
7.48122e-07
7.30532e-07
6.65614e-07
6.65411e-07
6.65215e-07
6.6502e-07
6.64832e-07
6.67044e-07
6.70959e-07
6.7715e-07
6.80971e-07
6.82448e-07
6.83977e-07
6.83789e-07
6.76434e-07
6.7198e-07
6.71801e-07
6.71625e-07
6.74983e-07
6.84651e-07
6.92588e-07
7.00376e-07
7.06207e-07
7.06032e-07
7.05865e-07
7.05671e-07
6.87748e-07
6.72758e-07
6.67735e-07
6.67593e-07
6.67474e-07
6.67335e-07
6.67198e-07
6.67063e-07
6.67932e-07
6.6991e-07
6.7428e-07
6.75694e-07
6.72546e-07
6.70817e-07
6.707e-07
6.70585e-07
6.70474e-07
6.78845e-07
6.7878e-07
6.78664e-07
6.78554e-07
6.78441e-07
6.66204e-07
6.66098e-07
6.66007e-07
6.66367e-07
6.71884e-07
6.73049e-07
6.72959e-07
6.72867e-07
6.67312e-07
6.67179e-07
6.67094e-07
6.67016e-07
6.67784e-07
6.7231e-07
6.72237e-07
6.72164e-07
6.72095e-07
6.7202e-07
6.71959e-07
6.71886e-07
6.71825e-07
6.67023e-07
6.65988e-07
6.65932e-07
6.6588e-07
6.65826e-07
6.66066e-07
6.66018e-07
6.67076e-07
6.69987e-07
6.70132e-07
6.70093e-07
6.70055e-07
6.68645e-07
6.69366e-07
6.69334e-07
6.69303e-07
6.67672e-07
6.67645e-07
6.67619e-07
6.68727e-07
6.73251e-07
6.73844e-07
6.76404e-07
6.76387e-07
6.75837e-07
6.81203e-07
6.79273e-07
6.63652e-07
6.58144e-07
6.51991e-07
6.51989e-07
9.35406e-07
9.34006e-07
9.29279e-07
9.31638e-07
9.32004e-07
9.31009e-07
9.29201e-07
9.26241e-07
9.23538e-07
9.21469e-07
9.19974e-07
9.19176e-07
9.18863e-07
9.17181e-07
9.15674e-07
9.12456e-07
9.09782e-07
9.10972e-07
9.09807e-07
9.08485e-07
9.06758e-07
9.05952e-07
9.00936e-07
8.99511e-07
8.98955e-07
9.0154e-07
9.00512e-07
8.99374e-07
8.97931e-07
8.92329e-07
8.91173e-07
8.89641e-07
8.86841e-07
8.84879e-07
8.83725e-07
8.86292e-07
8.85066e-07
8.83695e-07
8.81224e-07
8.77314e-07
8.75915e-07
8.74831e-07
8.74753e-07
8.77034e-07
8.76068e-07
8.74755e-07
8.73379e-07
8.68667e-07
8.63464e-07
8.62385e-07
8.63943e-07
8.66369e-07
8.60937e-07
8.5958e-07
8.58567e-07
8.5913e-07
8.55116e-07
8.54954e-07
8.54718e-07
8.5345e-07
8.52147e-07
8.48834e-07
8.47555e-07
8.46951e-07
8.45711e-07
8.44441e-07
8.44949e-07
8.43684e-07
8.42445e-07
8.40377e-07
8.39086e-07
8.37815e-07
8.3925e-07
8.36499e-07
8.31919e-07
8.30422e-07
8.29202e-07
8.29152e-07
8.30484e-07
8.29104e-07
8.24271e-07
8.24644e-07
8.23971e-07
8.22794e-07
8.21593e-07
8.20224e-07
8.1904e-07
8.18314e-07
8.17167e-07
8.16013e-07
8.14849e-07
8.13688e-07
8.1225e-07
8.11074e-07
8.10736e-07
8.0964e-07
8.05783e-07
8.04455e-07
8.03337e-07
8.02639e-07
8.01176e-07
8.00076e-07
8.03623e-07
8.02498e-07
7.9812e-07
7.99128e-07
7.95369e-07
7.92888e-07
7.91815e-07
7.90745e-07
7.89681e-07
7.91043e-07
7.91599e-07
7.90973e-07
7.90111e-07
7.89088e-07
7.88164e-07
7.87134e-07
7.8378e-07
7.7985e-07
7.78829e-07
7.7784e-07
7.76863e-07
7.75877e-07
7.75226e-07
7.74213e-07
7.73225e-07
7.72267e-07
7.71313e-07
7.70369e-07
7.69447e-07
7.7211e-07
7.71168e-07
7.70166e-07
7.68296e-07
7.68419e-07
7.66781e-07
7.65847e-07
7.65668e-07
7.64801e-07
7.63911e-07
7.62994e-07
7.62096e-07
7.60674e-07
7.58444e-07
7.57555e-07
7.55751e-07
7.54884e-07
7.54069e-07
7.55581e-07
7.54736e-07
7.53896e-07
7.54445e-07
7.53617e-07
7.52782e-07
7.51952e-07
7.51128e-07
7.50304e-07
7.49735e-07
7.48936e-07
7.48136e-07
7.45995e-07
7.43808e-07
7.43043e-07
7.45379e-07
7.44622e-07
7.43648e-07
7.45208e-07
7.4471e-07
7.39755e-07
7.35262e-07
7.32815e-07
7.35878e-07
7.35153e-07
7.34325e-07
7.32414e-07
7.31498e-07
7.30782e-07
7.30064e-07
7.29349e-07
7.28656e-07
7.27969e-07
7.28172e-07
7.37333e-07
7.36365e-07
7.34956e-07
7.3948e-07
7.60296e-07
7.72182e-07
7.56861e-07
7.21799e-07
7.14483e-07
7.1647e-07
7.23537e-07
7.33942e-07
7.38325e-07
7.37666e-07
7.28541e-07
7.07985e-07
7.07285e-07
7.067e-07
7.0878e-07
7.14453e-07
7.21453e-07
7.21247e-07
7.13182e-07
7.1037e-07
7.09803e-07
7.09254e-07
7.08716e-07
7.08182e-07
7.09639e-07
7.11597e-07
7.10553e-07
7.09432e-07
7.10269e-07
7.09759e-07
7.05929e-07
7.03435e-07
7.0292e-07
7.02411e-07
7.04095e-07
7.08076e-07
7.09231e-07
7.08757e-07
7.08281e-07
7.07798e-07
7.07328e-07
7.06857e-07
7.06389e-07
7.03344e-07
6.9787e-07
6.97417e-07
6.96955e-07
6.96506e-07
6.98389e-07
6.96274e-07
6.95841e-07
6.9542e-07
6.95003e-07
6.9749e-07
7.0644e-07
7.0843e-07
7.11557e-07
7.37715e-07
7.44455e-07
7.4397e-07
6.93708e-07
6.82881e-07
6.82504e-07
6.82138e-07
6.82393e-07
6.85748e-07
6.87221e-07
6.88978e-07
6.93345e-07
6.97907e-07
6.97555e-07
6.91449e-07
6.8769e-07
6.87326e-07
6.86978e-07
6.91641e-07
6.93361e-07
6.93027e-07
6.92685e-07
6.91951e-07
6.97142e-07
6.95828e-07
6.82202e-07
6.8188e-07
6.81579e-07
6.81279e-07
6.80986e-07
6.86277e-07
6.9127e-07
6.90975e-07
6.90659e-07
6.90359e-07
6.90074e-07
6.89805e-07
6.89532e-07
6.82854e-07
6.77727e-07
6.77457e-07
6.77197e-07
6.76943e-07
6.77098e-07
6.79455e-07
6.82795e-07
6.87292e-07
6.85099e-07
6.80422e-07
6.80166e-07
6.9252e-07
7.04637e-07
7.04715e-07
7.19857e-07
7.48608e-07
7.48378e-07
7.48079e-07
6.7511e-07
6.65622e-07
6.65422e-07
6.65222e-07
6.67422e-07
6.71106e-07
6.74614e-07
6.77501e-07
6.81568e-07
6.84356e-07
6.84165e-07
6.83975e-07
6.75991e-07
6.72164e-07
6.71983e-07
6.71803e-07
6.7559e-07
6.87465e-07
6.95866e-07
7.02516e-07
7.06357e-07
7.06192e-07
6.83104e-07
6.67462e-07
6.67295e-07
6.67135e-07
6.67888e-07
6.6774e-07
6.68642e-07
6.73255e-07
6.74482e-07
6.71988e-07
6.71238e-07
6.70689e-07
6.71058e-07
6.74641e-07
6.75692e-07
6.72997e-07
6.72609e-07
6.73246e-07
6.73133e-07
6.70474e-07
6.7889e-07
6.78777e-07
6.78663e-07
6.78033e-07
6.66309e-07
6.66199e-07
6.66105e-07
6.66009e-07
6.68931e-07
6.73142e-07
6.7305e-07
6.72957e-07
6.72869e-07
6.72781e-07
6.72697e-07
6.70572e-07
6.67019e-07
6.68021e-07
6.70698e-07
6.72236e-07
6.72165e-07
6.65933e-07
6.65863e-07
6.65792e-07
6.65729e-07
6.65663e-07
6.66732e-07
6.67366e-07
6.67047e-07
6.67054e-07
6.69568e-07
6.70037e-07
6.70163e-07
6.70118e-07
6.70075e-07
6.68452e-07
6.67152e-07
6.66902e-07
6.66866e-07
6.66832e-07
6.66798e-07
6.69411e-07
6.69248e-07
6.67839e-07
6.73663e-07
6.74954e-07
6.74933e-07
6.74913e-07
6.75866e-07
6.7585e-07
6.75835e-07
6.81203e-07
6.76739e-07
6.69759e-07
6.59527e-07
6.53235e-07
6.51989e-07
9.35407e-07
9.34041e-07
9.29283e-07
9.28483e-07
9.27027e-07
9.29266e-07
9.27592e-07
9.24243e-07
9.23588e-07
9.21814e-07
9.20583e-07
9.19627e-07
9.18873e-07
9.17111e-07
9.15598e-07
9.12709e-07
9.09658e-07
9.08179e-07
9.09825e-07
9.08494e-07
9.07039e-07
9.03015e-07
9.01188e-07
9.01471e-07
9.00183e-07
8.98784e-07
8.97374e-07
8.96758e-07
8.9345e-07
8.92028e-07
8.93326e-07
8.90384e-07
8.86935e-07
8.84881e-07
8.86054e-07
8.8608e-07
8.82042e-07
8.80729e-07
8.79936e-07
8.80692e-07
8.79818e-07
8.78358e-07
8.75421e-07
8.73404e-07
8.71628e-07
8.70679e-07
8.71249e-07
8.69896e-07
8.68276e-07
8.64453e-07
8.63685e-07
8.64355e-07
8.63304e-07
8.61978e-07
8.60642e-07
8.59222e-07
8.5608e-07
8.52764e-07
8.51453e-07
8.50485e-07
8.5387e-07
8.52572e-07
8.47604e-07
8.46475e-07
8.45263e-07
8.43868e-07
8.42586e-07
8.41465e-07
8.42444e-07
8.41161e-07
8.40061e-07
8.38812e-07
8.36803e-07
8.35577e-07
8.3534e-07
8.34107e-07
8.3289e-07
8.31683e-07
8.30456e-07
8.27062e-07
8.24604e-07
8.23167e-07
8.21958e-07
8.21394e-07
8.21476e-07
8.21941e-07
8.19928e-07
8.17162e-07
8.16004e-07
8.15996e-07
8.14833e-07
8.1358e-07
8.12877e-07
8.11725e-07
8.10622e-07
8.12094e-07
8.10997e-07
8.09893e-07
8.07695e-07
8.06044e-07
8.05366e-07
8.01168e-07
8.01845e-07
8.02773e-07
7.98119e-07
7.95022e-07
7.93879e-07
7.94958e-07
7.93903e-07
7.92832e-07
7.91776e-07
7.90741e-07
7.89143e-07
7.89752e-07
7.88736e-07
7.87973e-07
7.88164e-07
7.85273e-07
7.81621e-07
7.8043e-07
7.81892e-07
7.8169e-07
7.80699e-07
7.79518e-07
7.76891e-07
7.76794e-07
7.77328e-07
7.76364e-07
7.75297e-07
7.74056e-07
7.72098e-07
7.68829e-07
7.67871e-07
7.67037e-07
7.68314e-07
7.68428e-07
7.67495e-07
7.66564e-07
7.65665e-07
7.64789e-07
7.62176e-07
7.60916e-07
7.60018e-07
7.61373e-07
7.60465e-07
7.5957e-07
7.58422e-07
7.54909e-07
7.54069e-07
7.56371e-07
7.55526e-07
7.54691e-07
7.53877e-07
7.51703e-07
7.50853e-07
7.50045e-07
7.49493e-07
7.47431e-07
7.46622e-07
7.45889e-07
7.48143e-07
7.47346e-07
7.46551e-07
7.42647e-07
7.41896e-07
7.4123e-07
7.43666e-07
7.50407e-07
7.49386e-07
7.38954e-07
7.33547e-07
7.32811e-07
7.32086e-07
7.31368e-07
7.35346e-07
7.35427e-07
7.34701e-07
7.33974e-07
7.33261e-07
7.29905e-07
7.28661e-07
7.30248e-07
7.33622e-07
7.37333e-07
7.49169e-07
7.65495e-07
7.73506e-07
7.72831e-07
7.72135e-07
7.22705e-07
7.12293e-07
7.12424e-07
7.15353e-07
7.21087e-07
7.29433e-07
7.38149e-07
7.37664e-07
7.33419e-07
7.18128e-07
7.12743e-07
7.13203e-07
7.18592e-07
7.21841e-07
7.19131e-07
7.14095e-07
7.1095e-07
7.10375e-07
7.11029e-07
7.10849e-07
7.10306e-07
7.09422e-07
7.12284e-07
7.11821e-07
7.11295e-07
7.10777e-07
7.10263e-07
7.07716e-07
7.05034e-07
7.04528e-07
7.0828e-07
7.09506e-07
7.09003e-07
7.08507e-07
7.06837e-07
7.03487e-07
7.04537e-07
7.07306e-07
7.07325e-07
7.03918e-07
7.00738e-07
6.99337e-07
6.97868e-07
6.97416e-07
7.0001e-07
7.04075e-07
6.99701e-07
6.97869e-07
6.99226e-07
6.99219e-07
6.98799e-07
6.98378e-07
7.00715e-07
7.14323e-07
7.39506e-07
7.44883e-07
7.44432e-07
7.43957e-07
6.94042e-07
6.82879e-07
6.8251e-07
6.82155e-07
6.87085e-07
6.91502e-07
6.9406e-07
6.95533e-07
6.97394e-07
6.97901e-07
6.97544e-07
6.94074e-07
6.87687e-07
6.87644e-07
6.9284e-07
6.93847e-07
6.92878e-07
6.91935e-07
6.9513e-07
6.98585e-07
6.97135e-07
6.85752e-07
6.82343e-07
6.84828e-07
6.85118e-07
6.84817e-07
6.84524e-07
6.86653e-07
6.91003e-07
6.9096e-07
6.90655e-07
6.87724e-07
6.81466e-07
6.78543e-07
6.7827e-07
6.77998e-07
6.77728e-07
6.79046e-07
6.81865e-07
6.80578e-07
6.79082e-07
6.80825e-07
6.86937e-07
6.9931e-07
7.17816e-07
7.39456e-07
7.49843e-07
7.4961e-07
7.49323e-07
7.49073e-07
7.4883e-07
7.48617e-07
7.16353e-07
6.69771e-07
6.65865e-07
6.65647e-07
6.68306e-07
6.73601e-07
6.76589e-07
6.76392e-07
6.75596e-07
6.7865e-07
6.83561e-07
6.83967e-07
6.81242e-07
6.78611e-07
6.74506e-07
6.72236e-07
6.74737e-07
6.8199e-07
6.8742e-07
6.90696e-07
6.97877e-07
7.0251e-07
6.9e-07
6.70384e-07
6.6763e-07
6.67461e-07
6.67299e-07
6.67791e-07
6.70644e-07
6.70984e-07
6.72157e-07
6.74869e-07
6.74728e-07
6.71414e-07
6.71277e-07
6.72888e-07
6.74107e-07
6.75972e-07
6.7584e-07
6.75711e-07
6.739e-07
6.72558e-07
6.74634e-07
6.7825e-07
6.78134e-07
6.70451e-07
6.66646e-07
6.66418e-07
6.66305e-07
6.66207e-07
6.66109e-07
6.69434e-07
6.69462e-07
6.69115e-07
6.69021e-07
6.6893e-07
6.70989e-07
6.72782e-07
6.69987e-07
6.68694e-07
6.68615e-07
6.71437e-07
6.7231e-07
6.72236e-07
6.72086e-07
6.65932e-07
6.65861e-07
6.66082e-07
6.66664e-07
6.68721e-07
6.73335e-07
6.73276e-07
6.67628e-07
6.6357e-07
6.6352e-07
6.6347e-07
6.63424e-07
6.63379e-07
6.65337e-07
6.70084e-07
6.70044e-07
6.70005e-07
6.69971e-07
6.69935e-07
6.69903e-07
6.6941e-07
6.70557e-07
6.7053e-07
6.70505e-07
6.69948e-07
6.70495e-07
6.77445e-07
6.77427e-07
6.77412e-07
6.77427e-07
6.76072e-07
6.74284e-07
6.73851e-07
6.60372e-07
6.52648e-07
6.51988e-07
9.35298e-07
9.32016e-07
9.30855e-07
9.29265e-07
9.27196e-07
9.2601e-07
9.25708e-07
9.24232e-07
9.2356e-07
9.21507e-07
9.20044e-07
9.18616e-07
9.17919e-07
9.17114e-07
9.15604e-07
9.14454e-07
9.12895e-07
9.11458e-07
9.09959e-07
9.07952e-07
9.06973e-07
9.05876e-07
9.04522e-07
9.01591e-07
8.98811e-07
8.97406e-07
8.9648e-07
8.9512e-07
8.93791e-07
8.96387e-07
8.95018e-07
8.93638e-07
8.92157e-07
8.90746e-07
8.8859e-07
8.83094e-07
8.81703e-07
8.8225e-07
8.82246e-07
8.81162e-07
8.79803e-07
8.78413e-07
8.77033e-07
8.74981e-07
8.71628e-07
8.70371e-07
8.69032e-07
8.67845e-07
8.67027e-07
8.6691e-07
8.65693e-07
8.64595e-07
8.63289e-07
8.61571e-07
8.60227e-07
8.58918e-07
8.58297e-07
8.5705e-07
8.56425e-07
8.55175e-07
8.53883e-07
8.52528e-07
8.47037e-07
8.47956e-07
8.46722e-07
8.45344e-07
8.46827e-07
8.49014e-07
8.40062e-07
8.38776e-07
8.37805e-07
8.41513e-07
8.41328e-07
8.34972e-07
8.32212e-07
8.30955e-07
8.29748e-07
8.2853e-07
8.27313e-07
8.29148e-07
8.2795e-07
8.26725e-07
8.2553e-07
8.24361e-07
8.2317e-07
8.21951e-07
8.20747e-07
8.19551e-07
8.16183e-07
8.15027e-07
8.14821e-07
8.13551e-07
8.12394e-07
8.12e-07
8.12202e-07
8.08217e-07
8.07854e-07
8.09912e-07
8.08823e-07
8.07709e-07
8.06727e-07
8.10966e-07
8.09848e-07
8.05336e-07
7.9912e-07
7.94813e-07
7.93542e-07
7.92492e-07
7.91429e-07
7.90371e-07
7.9128e-07
7.90189e-07
7.8915e-07
7.90704e-07
7.90208e-07
7.89192e-07
7.88171e-07
7.87124e-07
7.82623e-07
7.81796e-07
7.82289e-07
7.81294e-07
7.80299e-07
7.80681e-07
7.79697e-07
7.78697e-07
7.77327e-07
7.76313e-07
7.75371e-07
7.73542e-07
7.72398e-07
7.71342e-07
7.72184e-07
7.73166e-07
7.74007e-07
7.69033e-07
7.66449e-07
7.64126e-07
7.62892e-07
7.60532e-07
7.59133e-07
7.60916e-07
7.62277e-07
7.61382e-07
7.60479e-07
7.59579e-07
7.58699e-07
7.55044e-07
7.55375e-07
7.54528e-07
7.53679e-07
7.52843e-07
7.52542e-07
7.54159e-07
7.54007e-07
7.53183e-07
7.52359e-07
7.51534e-07
7.50734e-07
7.50239e-07
7.48134e-07
7.45706e-07
7.42446e-07
7.40455e-07
7.43083e-07
7.48689e-07
7.51909e-07
7.51487e-07
7.50343e-07
7.35762e-07
7.33538e-07
7.34316e-07
7.3524e-07
7.33594e-07
7.32879e-07
7.32168e-07
7.31452e-07
7.33474e-07
7.3614e-07
7.32823e-07
7.28826e-07
7.32672e-07
7.44241e-07
7.51468e-07
7.58881e-07
7.68241e-07
7.73459e-07
7.41989e-07
7.16531e-07
7.11543e-07
7.11175e-07
7.13123e-07
7.15805e-07
7.16342e-07
7.18335e-07
7.26256e-07
7.36512e-07
7.35765e-07
7.26771e-07
7.19058e-07
7.18455e-07
7.31161e-07
7.30561e-07
7.27906e-07
7.15178e-07
7.10944e-07
7.10377e-07
7.10538e-07
7.10181e-07
7.09639e-07
7.11102e-07
7.12349e-07
7.11815e-07
7.09304e-07
7.06541e-07
7.0603e-07
7.06109e-07
7.06969e-07
7.08663e-07
7.10014e-07
7.09513e-07
7.09008e-07
7.04994e-07
7.01409e-07
7.00927e-07
7.00452e-07
7.02654e-07
7.04498e-07
7.04406e-07
7.03945e-07
7.0349e-07
7.00796e-07
7.01338e-07
7.08639e-07
7.10327e-07
7.01389e-07
6.96907e-07
6.95485e-07
6.95062e-07
6.96281e-07
7.00449e-07
7.11746e-07
7.31712e-07
7.45303e-07
7.44856e-07
7.444e-07
7.1843e-07
6.83276e-07
6.82894e-07
6.82532e-07
6.86809e-07
6.91358e-07
6.93882e-07
6.97388e-07
6.98535e-07
6.98176e-07
6.97816e-07
6.92286e-07
6.89053e-07
6.87836e-07
6.90541e-07
6.94193e-07
6.93852e-07
6.9351e-07
6.88366e-07
6.90532e-07
6.98589e-07
6.98722e-07
6.94919e-07
6.83958e-07
6.82209e-07
6.81902e-07
6.81603e-07
6.82774e-07
6.91235e-07
6.91255e-07
6.90952e-07
6.9063e-07
6.8029e-07
6.78394e-07
6.78121e-07
6.79318e-07
6.8184e-07
6.82393e-07
6.82129e-07
6.8187e-07
6.82142e-07
6.82153e-07
6.83339e-07
6.87961e-07
7.04741e-07
7.41436e-07
7.50091e-07
7.49842e-07
7.49556e-07
7.22168e-07
6.77457e-07
6.71007e-07
6.69027e-07
6.68786e-07
6.68546e-07
6.73821e-07
6.74672e-07
6.75596e-07
6.73592e-07
6.73389e-07
6.73192e-07
6.73006e-07
6.75311e-07
6.77373e-07
6.77978e-07
6.79956e-07
6.7991e-07
6.79346e-07
6.73944e-07
6.7423e-07
6.77953e-07
6.85294e-07
6.96709e-07
6.97873e-07
6.95835e-07
6.75461e-07
6.67793e-07
6.67627e-07
6.67465e-07
6.71008e-07
6.76437e-07
6.78582e-07
6.75464e-07
6.71958e-07
6.73486e-07
6.78246e-07
6.82014e-07
6.81877e-07
6.81741e-07
6.81604e-07
6.72638e-07
6.67165e-07
6.65722e-07
6.65599e-07
6.66533e-07
6.71587e-07
6.77068e-07
6.78131e-07
6.75561e-07
6.66527e-07
6.66416e-07
6.66313e-07
6.66792e-07
6.67635e-07
6.69508e-07
6.69956e-07
6.70107e-07
6.70014e-07
6.69864e-07
6.70798e-07
6.73478e-07
6.74968e-07
6.74885e-07
6.74804e-07
6.70006e-07
6.67136e-07
6.69428e-07
6.73098e-07
6.73026e-07
6.73157e-07
6.77049e-07
6.78515e-07
6.72678e-07
6.73336e-07
6.72275e-07
6.69974e-07
6.65698e-07
6.63519e-07
6.63471e-07
6.63423e-07
6.63486e-07
6.67449e-07
6.70084e-07
6.70041e-07
6.70004e-07
6.69969e-07
6.69937e-07
6.69901e-07
6.68426e-07
6.66723e-07
6.66697e-07
6.66671e-07
6.69948e-07
6.69927e-07
6.68625e-07
6.73151e-07
6.80185e-07
6.80173e-07
6.80158e-07
6.80151e-07
6.75604e-07
6.61269e-07
6.52712e-07
6.51987e-07
9.33717e-07
9.3154e-07
9.31012e-07
9.29694e-07
9.284e-07
9.27256e-07
9.2697e-07
9.25179e-07
9.23625e-07
9.22641e-07
9.20797e-07
9.19907e-07
9.17962e-07
9.16724e-07
9.15503e-07
9.14462e-07
9.12426e-07
9.11526e-07
9.09819e-07
9.07951e-07
9.0694e-07
9.05016e-07
9.04521e-07
9.02867e-07
9.02126e-07
9.00734e-07
8.99263e-07
8.98336e-07
8.96853e-07
8.91446e-07
8.90039e-07
8.89067e-07
8.86938e-07
8.8565e-07
8.90017e-07
8.8894e-07
8.8781e-07
8.86398e-07
8.81296e-07
8.77246e-07
8.78127e-07
8.7431e-07
8.7327e-07
8.74282e-07
8.73492e-07
8.72132e-07
8.70797e-07
8.69196e-07
8.6737e-07
8.66371e-07
8.65053e-07
8.63817e-07
8.62777e-07
8.62265e-07
8.60945e-07
8.59614e-07
8.58304e-07
8.55081e-07
8.53971e-07
8.54973e-07
8.53618e-07
8.47809e-07
8.44977e-07
8.43732e-07
8.42516e-07
8.41162e-07
8.40008e-07
8.49104e-07
8.47951e-07
8.46678e-07
8.45425e-07
8.44188e-07
8.4283e-07
8.37425e-07
8.3421e-07
8.30957e-07
8.30235e-07
8.29039e-07
8.27437e-07
8.26228e-07
8.25229e-07
8.26743e-07
8.25547e-07
8.2368e-07
8.21557e-07
8.20341e-07
8.19329e-07
8.19774e-07
8.18954e-07
8.17793e-07
8.16651e-07
8.16262e-07
8.15107e-07
8.13961e-07
8.12204e-07
8.06438e-07
8.05331e-07
8.04244e-07
8.03166e-07
8.02071e-07
8.00963e-07
8.10964e-07
8.09854e-07
8.08734e-07
8.07608e-07
8.05737e-07
7.93748e-07
7.9308e-07
7.93059e-07
7.91655e-07
7.91282e-07
7.90263e-07
7.89175e-07
7.88121e-07
7.87081e-07
7.86708e-07
7.88187e-07
7.87144e-07
7.85029e-07
7.85129e-07
7.82505e-07
7.82392e-07
7.82537e-07
7.80359e-07
7.78911e-07
7.77911e-07
7.77841e-07
7.76888e-07
7.75411e-07
7.694e-07
7.68475e-07
7.67539e-07
7.66593e-07
7.65656e-07
7.77929e-07
7.76969e-07
7.7603e-07
7.75109e-07
7.7398e-07
7.61186e-07
7.5912e-07
7.58241e-07
7.57374e-07
7.5948e-07
7.60355e-07
7.59461e-07
7.59448e-07
7.59488e-07
7.5864e-07
7.57792e-07
7.56951e-07
7.56114e-07
7.5231e-07
7.50131e-07
7.49301e-07
7.48477e-07
7.47657e-07
7.49545e-07
7.5306e-07
7.52253e-07
7.51431e-07
7.50619e-07
7.45462e-07
7.38792e-07
7.38063e-07
7.43285e-07
7.38233e-07
7.51488e-07
7.50679e-07
7.48581e-07
7.37173e-07
7.34945e-07
7.35246e-07
7.36896e-07
7.35352e-07
7.32883e-07
7.3275e-07
7.34279e-07
7.36509e-07
7.37903e-07
7.37189e-07
7.32862e-07
7.35877e-07
7.44046e-07
7.39959e-07
7.25873e-07
7.16357e-07
7.11992e-07
7.11349e-07
7.1123e-07
7.13481e-07
7.17664e-07
7.19401e-07
7.17963e-07
7.1827e-07
7.23988e-07
7.24781e-07
7.17491e-07
7.16857e-07
7.16237e-07
7.15642e-07
7.3118e-07
7.30574e-07
7.29961e-07
7.29348e-07
7.11544e-07
7.10378e-07
7.12428e-07
7.13234e-07
7.12714e-07
7.1217e-07
7.08719e-07
7.07581e-07
7.07056e-07
7.06543e-07
7.09325e-07
7.1139e-07
7.1088e-07
7.10373e-07
7.09869e-07
7.06737e-07
7.05977e-07
7.03965e-07
7.0141e-07
7.00924e-07
7.03014e-07
7.04765e-07
7.04298e-07
7.00855e-07
7.00398e-07
6.99943e-07
6.99498e-07
6.99884e-07
7.03258e-07
7.1923e-07
7.05407e-07
7.0117e-07
7.06392e-07
7.1199e-07
7.13482e-07
7.12756e-07
7.16479e-07
7.31916e-07
7.41802e-07
7.16587e-07
6.93459e-07
6.84723e-07
6.83302e-07
6.82922e-07
6.86218e-07
6.92564e-07
6.96543e-07
6.97732e-07
6.9739e-07
6.95946e-07
6.91523e-07
6.89412e-07
6.89053e-07
6.88698e-07
6.89663e-07
6.9252e-07
6.94091e-07
6.91971e-07
6.87261e-07
6.86927e-07
6.89102e-07
6.90265e-07
6.98725e-07
6.98375e-07
6.9804e-07
6.89385e-07
6.8208e-07
6.85807e-07
6.91528e-07
6.9123e-07
6.88741e-07
6.7926e-07
6.78965e-07
6.78676e-07
6.78398e-07
6.79974e-07
6.81895e-07
6.8177e-07
6.82317e-07
6.84052e-07
6.83793e-07
6.83536e-07
6.82569e-07
6.82318e-07
6.90536e-07
7.17227e-07
7.5033e-07
7.50081e-07
7.17242e-07
6.77788e-07
6.68915e-07
6.68677e-07
6.6845e-07
6.68221e-07
6.70847e-07
6.79e-07
6.91206e-07
6.90977e-07
6.90753e-07
6.76251e-07
6.73391e-07
6.73195e-07
6.76484e-07
6.80681e-07
6.80487e-07
6.80295e-07
6.80101e-07
6.79913e-07
6.79718e-07
6.79539e-07
6.77511e-07
6.82841e-07
6.87536e-07
6.88721e-07
6.82308e-07
6.71685e-07
6.67959e-07
6.67792e-07
6.67629e-07
6.69738e-07
6.77764e-07
6.80845e-07
6.80326e-07
6.7121e-07
6.70135e-07
6.69996e-07
6.69858e-07
6.7537e-07
6.75233e-07
6.81742e-07
6.81605e-07
6.8147e-07
6.81339e-07
6.68587e-07
6.67527e-07
6.70062e-07
6.69946e-07
6.66877e-07
6.66754e-07
6.66639e-07
6.66528e-07
6.68963e-07
6.71971e-07
6.72608e-07
6.72742e-07
6.72936e-07
6.71671e-07
6.68402e-07
6.68308e-07
6.68662e-07
6.72358e-07
6.74532e-07
6.74945e-07
6.74884e-07
6.74804e-07
6.73878e-07
6.66614e-07
6.66541e-07
6.66467e-07
6.66397e-07
6.67739e-07
6.66263e-07
6.79161e-07
6.79099e-07
6.79034e-07
6.78978e-07
6.6924e-07
6.63928e-07
6.63518e-07
6.65199e-07
6.70214e-07
6.70168e-07
6.70126e-07
6.70084e-07
6.70046e-07
6.70005e-07
6.69971e-07
6.68129e-07
6.68099e-07
6.69593e-07
6.72568e-07
6.72543e-07
6.67796e-07
6.67772e-07
6.69096e-07
6.68625e-07
6.68607e-07
6.68591e-07
6.69693e-07
6.8016e-07
6.7816e-07
6.6859e-07
6.5911e-07
6.54317e-07
6.51987e-07
9.35404e-07
9.32588e-07
9.31876e-07
9.30997e-07
9.30133e-07
9.28632e-07
9.27145e-07
9.25682e-07
9.24235e-07
9.22671e-07
9.21329e-07
9.19898e-07
9.18182e-07
9.16683e-07
9.14321e-07
9.12443e-07
9.11595e-07
9.11529e-07
9.10037e-07
9.08565e-07
9.07075e-07
9.04001e-07
9.02581e-07
9.02959e-07
9.01501e-07
8.99939e-07
8.9979e-07
8.98358e-07
8.97246e-07
8.9367e-07
8.90201e-07
8.88772e-07
8.86924e-07
8.85917e-07
8.90209e-07
8.89511e-07
8.88141e-07
8.86556e-07
8.8448e-07
8.77115e-07
8.75134e-07
8.73822e-07
8.74641e-07
8.74725e-07
8.73419e-07
8.7107e-07
8.69926e-07
8.6958e-07
8.68386e-07
8.66203e-07
8.64821e-07
8.64907e-07
8.63591e-07
8.62255e-07
8.60938e-07
8.59563e-07
8.55711e-07
8.54401e-07
8.54338e-07
8.5308e-07
8.51361e-07
8.49374e-07
8.45008e-07
8.43743e-07
8.42449e-07
8.4116e-07
8.39972e-07
8.47352e-07
8.47906e-07
8.46676e-07
8.39644e-07
8.34899e-07
8.33639e-07
8.33867e-07
8.34208e-07
8.31486e-07
8.30224e-07
8.29015e-07
8.28934e-07
8.2913e-07
8.27933e-07
8.26731e-07
8.25551e-07
8.24425e-07
8.23226e-07
8.22018e-07
8.2082e-07
8.17012e-07
8.15822e-07
8.14799e-07
8.17416e-07
8.16276e-07
8.13608e-07
8.10915e-07
8.09606e-07
8.07564e-07
8.09247e-07
8.0714e-07
8.03147e-07
8.02065e-07
8.02027e-07
8.10989e-07
8.09848e-07
8.08699e-07
8.02294e-07
7.96214e-07
7.96157e-07
7.95111e-07
7.94041e-07
7.91621e-07
7.90585e-07
7.89873e-07
7.91643e-07
7.90361e-07
7.87557e-07
7.86553e-07
7.86182e-07
7.87686e-07
7.8664e-07
7.85604e-07
7.84595e-07
7.83595e-07
7.82603e-07
7.81604e-07
7.79534e-07
7.78587e-07
7.75288e-07
7.71279e-07
7.70332e-07
7.69398e-07
7.68468e-07
7.6753e-07
7.66594e-07
7.66229e-07
7.77951e-07
7.76971e-07
7.76013e-07
7.75081e-07
7.65838e-07
7.61677e-07
7.60831e-07
7.60798e-07
7.59304e-07
7.58408e-07
7.584e-07
7.59835e-07
7.58961e-07
7.5648e-07
7.55626e-07
7.55092e-07
7.56757e-07
7.56113e-07
7.55265e-07
7.53795e-07
7.49601e-07
7.50137e-07
7.53066e-07
7.53872e-07
7.53062e-07
7.52239e-07
7.51406e-07
7.40963e-07
7.39555e-07
7.38802e-07
7.38053e-07
7.37304e-07
7.36548e-07
7.51486e-07
7.50687e-07
7.45185e-07
7.39089e-07
7.38365e-07
7.3764e-07
7.36901e-07
7.34183e-07
7.33338e-07
7.3374e-07
7.35427e-07
7.37558e-07
7.37232e-07
7.3905e-07
7.53046e-07
7.85304e-07
7.7897e-07
7.33843e-07
7.1608e-07
7.1262e-07
7.11985e-07
7.1147e-07
7.15634e-07
7.22485e-07
7.24549e-07
7.23933e-07
7.20621e-07
7.18257e-07
7.18754e-07
7.18594e-07
7.175e-07
7.16873e-07
7.16257e-07
7.1566e-07
7.31197e-07
7.30586e-07
7.29978e-07
7.29359e-07
7.12429e-07
7.10471e-07
7.11565e-07
7.12545e-07
7.12712e-07
7.11777e-07
7.08114e-07
7.07584e-07
7.07062e-07
7.06756e-07
7.09001e-07
7.1139e-07
7.09711e-07
7.07026e-07
7.06523e-07
7.06035e-07
7.08438e-07
7.08281e-07
7.07783e-07
7.0729e-07
7.06757e-07
7.04459e-07
7.01537e-07
7.00854e-07
7.00394e-07
6.99947e-07
7.01595e-07
7.10089e-07
7.06508e-07
7.27065e-07
7.15735e-07
7.13519e-07
7.18453e-07
7.16971e-07
7.13668e-07
7.15761e-07
7.24661e-07
7.24705e-07
7.08545e-07
6.93684e-07
6.8691e-07
6.85284e-07
6.85346e-07
6.86229e-07
6.90642e-07
6.96877e-07
6.98358e-07
6.97825e-07
6.91786e-07
6.90137e-07
6.89772e-07
6.8941e-07
6.89052e-07
6.91119e-07
6.94918e-07
6.94572e-07
6.94228e-07
6.91693e-07
6.8726e-07
6.86931e-07
6.90556e-07
6.90215e-07
6.98717e-07
6.98369e-07
6.92443e-07
6.85761e-07
6.85464e-07
6.88862e-07
6.91526e-07
6.91223e-07
6.90093e-07
6.79254e-07
6.78964e-07
6.80227e-07
6.8175e-07
6.81744e-07
6.81472e-07
6.81201e-07
6.80934e-07
6.80669e-07
6.80411e-07
6.82471e-07
6.8734e-07
6.93015e-07
7.06229e-07
7.34989e-07
7.50319e-07
7.35971e-07
6.82454e-07
6.69149e-07
6.68911e-07
6.68681e-07
6.68696e-07
6.69825e-07
6.81471e-07
6.83111e-07
6.91216e-07
6.90986e-07
6.90762e-07
6.83096e-07
6.73395e-07
6.73231e-07
6.78772e-07
6.8068e-07
6.80485e-07
6.76353e-07
6.71805e-07
6.71613e-07
6.71426e-07
6.71242e-07
6.75096e-07
6.85069e-07
6.88894e-07
6.88717e-07
6.81238e-07
6.73787e-07
6.69421e-07
6.68931e-07
6.72532e-07
6.78478e-07
6.81005e-07
6.80845e-07
6.80687e-07
6.73014e-07
6.70139e-07
6.69994e-07
6.69859e-07
6.75514e-07
6.75375e-07
6.81742e-07
6.81603e-07
6.81468e-07
6.77759e-07
6.67944e-07
6.70153e-07
6.70061e-07
6.69943e-07
6.69119e-07
6.69004e-07
6.68891e-07
6.66559e-07
6.66405e-07
6.70732e-07
6.73139e-07
6.73036e-07
6.72941e-07
6.72837e-07
6.68457e-07
6.68308e-07
6.68217e-07
6.68632e-07
6.70706e-07
6.71713e-07
6.72544e-07
6.72141e-07
6.68564e-07
6.66615e-07
6.66536e-07
6.66467e-07
6.66393e-07
6.66327e-07
6.6626e-07
6.79163e-07
6.79098e-07
6.79039e-07
6.78975e-07
6.7326e-07
6.67226e-07
6.63518e-07
6.62468e-07
6.62421e-07
6.62377e-07
6.63033e-07
6.6523e-07
6.66217e-07
6.65322e-07
6.65285e-07
6.68021e-07
6.69742e-07
6.69593e-07
6.71668e-07
6.72543e-07
6.72517e-07
6.72494e-07
6.72473e-07
6.72452e-07
6.72435e-07
6.72418e-07
6.76747e-07
6.80158e-07
6.736e-07
6.59446e-07
6.5381e-07
6.51989e-07
6.51986e-07
9.33331e-07
9.34671e-07
9.32526e-07
9.31616e-07
9.30121e-07
9.26992e-07
9.25485e-07
9.24927e-07
9.24212e-07
9.21327e-07
9.21224e-07
9.19458e-07
9.17225e-07
9.15718e-07
9.14313e-07
9.12455e-07
9.12916e-07
9.11468e-07
9.09997e-07
9.07174e-07
9.04976e-07
9.04167e-07
9.04362e-07
9.02979e-07
9.00809e-07
8.99938e-07
8.99769e-07
8.98253e-07
8.97229e-07
8.93795e-07
8.89921e-07
8.88765e-07
8.87822e-07
8.85915e-07
8.90006e-07
8.88379e-07
8.87954e-07
8.83693e-07
8.81365e-07
8.79144e-07
8.75141e-07
8.7375e-07
8.73802e-07
8.73629e-07
8.71199e-07
8.70013e-07
8.71466e-07
8.70126e-07
8.68773e-07
8.67229e-07
8.66245e-07
8.64911e-07
8.63451e-07
8.61282e-07
8.59847e-07
8.58246e-07
8.55725e-07
8.54437e-07
8.5403e-07
8.53584e-07
8.53109e-07
8.51065e-07
8.45068e-07