/*--------------------------------*- C++ -*----------------------------------*\
  =========                 |
  \\      /  F ield         | OpenFOAM: The Open Source CFD Toolbox
   \\    /   O peration     | Website:  https://openfoam.org
    \\  /    A nd           | Version:  7
     \\/     M anipulation  |
\*---------------------------------------------------------------------------*/
FoamFile
{
    version     2.0;
    format      ascii;
    class       volScalarField;
    location    "6000";
    object      p;
}
// * * * * * * * * * * * * * * * * * * * * * * * * * * * * * * * * * * * * * //

dimensions      [1 -1 -2 0 0 0 0];

internalField   nonuniform List<scalar> 
160000
(
90987.4
90987.3
90987.2
90986.9
90986.7
90986.3
90985.9
90985.3
90984.6
90984
90983.5
90982.7
90982
90981.3
90980.6
90979.6
90978.5
90977.4
90976.5
90975.6
90974.3
90972.8
90971.3
90969.9
90968.4
90966.8
90965.7
90964.6
90963.4
90961.9
90960.1
90958.2
90956.8
90955.4
90953.5
90951.8
90950.6
90949.3
90947.8
90946.1
90944.6
90942.9
90941.4
90939.8
90938.4
90937.3
90936
90934.1
90932.2
90930.7
90929.2
90928
90926.9
90925.7
90924.6
90923.4
90922.3
90921.2
90919.5
90918.1
90917.3
90916.6
90915.5
90914.2
90912.9
90912.1
90911.4
90910.8
90910.1
90909.3
90908.8
90908.4
90908
90907.7
90907.4
90907.2
90907
90907
90907
90907
90907.2
90907.4
90907.6
90908
90908.4
90908.9
90909.5
90910.3
90911.3
90912.2
90913.3
90914.3
90915.2
90916.1
90917.4
90919.3
90921.3
90923.2
90925.3
90927.7
90930
90932.4
90934.6
90936.4
90938.7
90941.4
90944.4
90947.4
90950.1
90952.8
90955.7
90959.7
90963.6
90967.3
90971.8
90975.9
90980.1
90984.3
90987.5
90990.7
90994.9
91000.6
91006.3
91011.4
91016.1
91019.9
91023.7
91029.7
91036.5
91042.8
91050.2
91058.1
91063
91066.4
91070.6
91076.7
91083
91089.5
91098.8
91109.6
91116.7
91121.8
91128.4
91136.3
91141.9
91148.5
91156.8
91164.8
91173.7
91184.1
91194.6
91204.4
91215.7
91224.6
91233.9
91244.3
91253.9
91262.2
91270.8
91280
91289.5
91300.7
91313.2
91325.7
91339.5
91351.4
91359.8
91369.1
91380.4
91392.9
91405.1
91416.8
91432.3
91442.3
91451.2
91465.6
91479.8
91494
91504.8
91514.9
91530.7
91545.5
91558.8
91577.5
91593.9
91608.8
91624.9
91642.8
91662
91678
91694.7
91717.5
91741.8
91759
91772.1
91787.1
91802.2
91813.5
91827.6
91847.9
91867.7
91889.4
91908.9
91923
91934.9
91948.3
91969.4
91993.8
92014.5
92036
92057.5
92077.2
92098.6
92123.8
92144.9
92165.2
92191
92212
92230.2
92252.3
92272.2
92291.2
92314.8
92336.5
92356
92375.2
92394.3
92417.1
92440.2
92463.3
92499.6
92530.2
92552.8
92574.8
92599.4
92623.1
92648.7
92677.4
92708.3
92737.4
92762.9
92788.5
92807.9
92827.1
92848.1
92865.2
92882.2
92905.5
92936.4
92974.2
93016.6
93052.4
93088.6
93133.3
93172.8
93199.4
93227.4
93262
93293.8
93318.1
93341.4
93368.6
93398.4
93430.1
93458.1
93482.9
93509.4
93535.1
93556.8
93577.9
93609.2
93657.5
93699.7
93743.3
93779.7
93809.1
93833.1
93857.6
93895.3
93940.2
93978.8
94015.1
94048.4
94082.2
94120.8
94169.6
94212.6
94254.9
94284.6
94305.4
94327.2
94356.6
94390.9
94422.6
94454.4
94480.7
94506.9
94543.6
94576.7
94605.4
94641.3
94678.8
94721.8
94778
94836.8
94901.2
94961.9
95014.8
95068.6
95102
95132.3
95170.1
95206
95240.5
95288.2
95351.2
95405.5
95456.4
95498.9
95534.2
95573.8
95616.3
95653.6
95687
95728.7
95779.5
95818.1
95855.3
95908.5
95971.6
96027.2
96085
96148.9
96203
96253.8
96305.5
96345.2
96378.9
96409.4
96447.4
96519.4
96587.1
96643
96701
96745.8
96794.5
96871.7
96943.8
97017
97088
97152.9
97216.8
97263.5
97306.9
97363
97420.5
97471.4
97524.3
97590
97667.6
97743
97803.6
97855.6
97912.2
97967.1
98023.6
98086.7
98126
98163.5
98228.8
98318.3
98408.2
98488.8
98543.4
98603.3
98676.6
98746
98828.7
98914.8
99003
99078.7
99159.9
99236.5
99307
99382.8
99452.6
99516.9
99583.1
99655.5
99732.7
99812.3
99893.2
99964.7
100041
100139
100213
100293
100469
100748
101103
90987.5
90987.4
90987.3
90987
90986.7
90986.4
90985.9
90985.4
90984.7
90984.1
90983.5
90982.8
90982
90981.2
90980.5
90979.7
90978.5
90977.5
90976.7
90975.7
90974.5
90973
90971.6
90970.2
90968.5
90966.8
90965.6
90964.6
90963.4
90962
90960.3
90958.5
90956.9
90955.5
90953.5
90951.9
90950.7
90949.3
90947.5
90946.1
90944.8
90943.1
90941.5
90939.9
90938.5
90937.3
90936
90934
90932.2
90930.9
90929.6
90928.2
90926.8
90925.7
90924.6
90923.3
90922.2
90921.1
90919.7
90918.4
90917.4
90916.5
90915.5
90914.2
90913
90912.2
90911.4
90910.7
90910.1
90909.5
90909
90908.5
90908.1
90907.7
90907.4
90907.2
90907.1
90907
90907
90907.1
90907.2
90907.4
90907.7
90908.1
90908.6
90909
90909.6
90910.4
90911.3
90912.3
90913.2
90914.3
90915.2
90916.2
90917.7
90919.6
90921.5
90923.5
90925.5
90927.8
90930.1
90932.4
90934.8
90936.6
90938.5
90941.3
90944.3
90947.2
90950
90952.8
90955.8
90959.7
90963.7
90967.9
90972.2
90976.2
90980.2
90984.1
90987.6
90991.1
90994.9
91000
91005.6
91010.8
91015.7
91019.9
91024.4
91030.4
91036.6
91043
91050.7
91058.4
91062.8
91066.4
91071.1
91078
91083.4
91088.8
91098.8
91109.4
91116.9
91122.3
91128.4
91135.5
91141.5
91148.5
91157
91165.4
91175.1
91186.3
91194.6
91203.2
91215.8
91224.9
91233.5
91243.3
91252.7
91261.5
91271
91280.7
91290.5
91300.8
91312
91325.5
91340.2
91352.1
91360.7
91369.8
91380.1
91390.6
91403.1
91416.4
91432.6
91442.5
91452.7
91466.8
91479
91492.1
91504.4
91515.9
91531.2
91546.8
91562.4
91580.4
91594.6
91607.9
91623.6
91641.8
91660.7
91676.3
91692.7
91716.8
91743
91760.3
91774.3
91788.1
91801.1
91813.3
91827.4
91848.1
91869.1
91889.8
91908.7
91923.3
91934.7
91947.3
91968.5
91993
92013.8
92035.4
92057.2
92078.5
92098.4
92121.5
92145.2
92165.9
92187.7
92209.8
92230.3
92252.6
92273.8
92295.8
92317.5
92337.6
92356.9
92375.7
92395
92417.5
92440.5
92464.8
92499
92530.9
92553.3
92573.4
92597.5
92622.5
92649.4
92677.9
92708.8
92737.7
92764.3
92791
92808.2
92824.8
92846
92863.7
92879.6
92901.6
92938
92980.6
93023.5
93060.6
93091.9
93128
93168.2
93197.3
93227.4
93258.2
93286.4
93315.1
93344.6
93374.1
93402.9
93432.6
93457.8
93481.2
93508.9
93534.8
93555.5
93578.8
93617
93658.3
93697.4
93743.2
93779.7
93809.1
93831.6
93855.4
93896.1
93940.4
93979.4
94014.9
94048.7
94083.8
94121.6
94165
94208.2
94252.1
94285.5
94310
94333.4
94359.6
94388.5
94417.9
94450.5
94479.6
94507.5
94543.3
94576.6
94604.3
94637.8
94678.9
94727.6
94788.7
94846
94904.8
94960.8
95011.9
95061.9
95098.5
95132.4
95170.6
95205.2
95240.6
95285.7
95345.8
95407.3
95459.5
95499.4
95534.2
95571.5
95612.7
95650.6
95683.8
95724.7
95782
95824.3
95862.2
95913.2
95980.3
96031
96080.6
96147.9
96200.1
96247.2
96301.6
96341.3
96374.7
96411.8
96460.9
96526.2
96587.7
96640.5
96693.1
96744.6
96797.2
96861.1
96935.3
97015.8
97090.6
97156.9
97220.1
97266.6
97308.2
97361.9
97423.5
97474.3
97524.6
97587.7
97667.1
97742.5
97802
97853.3
97907.2
97960.6
98020.6
98081.5
98126.2
98174.4
98241.8
98313.1
98391.5
98471.7
98540.2
98606.6
98681.4
98760.5
98839.5
98922.9
99005.8
99077.8
99161.8
99229.4
99289.5
99374
99451
99517.6
99587.9
99660.4
99730.4
99810.1
99893.1
99962.5
100038
100132
100209
100296
100459
100711
101103
90987.6
90987.6
90987.4
90987.2
90986.9
90986.6
90986.1
90985.6
90984.9
90984.3
90983.6
90982.9
90982.1
90981.2
90980.5
90979.7
90978.7
90977.8
90976.9
90975.9
90974.7
90973.4
90972
90970.4
90968.8
90967.1
90965.7
90964.6
90963.5
90962.2
90960.3
90958.5
90957
90955.6
90953.9
90952.2
90950.8
90949.3
90947.5
90946.2
90944.9
90943.4
90941.8
90940
90938.7
90937.5
90935.9
90933.9
90932.3
90931.2
90930.1
90928.7
90927.1
90925.8
90924.6
90923.3
90922.1
90921
90919.9
90918.8
90917.6
90916.6
90915.6
90914.5
90913.2
90912.4
90911.7
90910.9
90910.2
90909.7
90909.1
90908.6
90908.3
90907.9
90907.6
90907.4
90907.2
90907.2
90907.2
90907.2
90907.4
90907.6
90907.9
90908.3
90908.7
90909.2
90909.8
90910.5
90911.3
90912.3
90913.2
90914.2
90915.3
90916.5
90918
90920
90921.9
90923.9
90926
90928.1
90930.3
90932.5
90934.7
90936.8
90938.7
90941.1
90944
90947.2
90950.3
90953.1
90956.3
90960
90963.7
90968.2
90972.4
90976.4
90980.4
90984
90987.3
90991.2
90995.5
91000.5
91005.5
91010.4
91015.3
91019.9
91024.9
91030.7
91036.8
91043.7
91051.1
91057.3
91062.2
91066.8
91071.9
91078.3
91084.1
91090.1
91098.8
91108.9
91116.9
91122.5
91128.5
91135.7
91141.8
91148.4
91157
91166.3
91176.4
91186.5
91194.8
91204.3
91216.3
91224.8
91232.6
91242.3
91252
91260.7
91270.8
91280.9
91291.1
91301.2
91311.9
91325.1
91339.9
91352.6
91362.3
91371.9
91381
91390
91401.4
91414.7
91428.3
91441.5
91456
91468.8
91479.5
91491.1
91504.2
91516.6
91530.5
91548.7
91566.3
91581.1
91594.2
91607.3
91622.4
91639.3
91656.8
91674.2
91694
91720
91742.8
91761.1
91776.7
91789.5
91801.6
91814.3
91828.8
91849.1
91871.3
91889.9
91905.5
91919.7
91934.2
91950.3
91973.3
91993.6
92011.6
92036.8
92059.2
92077.2
92096.5
92121.1
92144.9
92165.4
92186.1
92208.6
92233.1
92255.7
92275
92295.4
92316.7
92336.7
92357.1
92376.7
92397.5
92420.3
92440.8
92464.5
92497.5
92529
92555
92578.2
92599.4
92620.7
92647.7
92678.7
92711.5
92738
92763.2
92790.2
92807.5
92823.4
92842.5
92861.1
92877.7
92898.2
92941.1
92989
93032
93066.7
93097.6
93130.5
93163.1
93194.2
93224.3
93253.1
93281.4
93314.5
93348.4
93376.5
93404.6
93433.3
93459.8
93483.8
93507.4
93530.8
93554.2
93584.1
93620.4
93659.5
93700.7
93743.6
93777.2
93807
93830.4
93854.7
93895.8
93938.5
93979.4
94015
94048
94087
94128.1
94166.8
94205.7
94249.4
94284.4
94313.6
94337.6
94360.3
94387.3
94415.6
94445.6
94474.7
94505.2
94543.5
94575.1
94603.7
94643.5
94694.1
94752
94803.8
94852.4
94901.3
94952.6
95007.8
95056.4
95093.4
95130.5
95168
95201.6
95240.2
95291.5
95352.6
95407
95456
95495.8
95532.1
95567.8
95603.8
95642.1
95682.5
95733
95785.4
95829.1
95871.9
95923.6
95989.5
96038.2
96083
96143.6
96197.4
96243.2
96295.9
96335.4
96370
96412.7
96466.2
96528.3
96593.7
96643.6
96687.1
96739.5
96798.5
96858
96926.4
97013.4
97096.9
97159.7
97220.6
97266.5
97308.8
97369.3
97430.5
97478.7
97524.9
97580.2
97659.8
97739
97800.5
97850.2
97897.9
97948.3
98014.9
98082
98133.7
98194.1
98254
98310
98374.8
98450
98528.4
98603.8
98680.2
98765.1
98856.2
98940.2
99007.5
99075.4
99162.2
99226.5
99280.7
99356.1
99447.8
99521.9
99586.7
99654
99724.2
99807.1
99889.3
99960.9
100039
100123
100204
100305
100452
100666
101083
90987.8
90987.7
90987.6
90987.4
90987.1
90986.8
90986.3
90985.8
90985.2
90984.5
90983.8
90983
90982.2
90981.4
90980.7
90979.8
90978.9
90978
90977
90976.1
90974.9
90973.7
90972.4
90970.5
90969.2
90967.7
90966
90964.9
90963.7
90962.3
90960.5
90958.6
90957
90955.6
90954.2
90952.6
90951
90949.3
90947.6
90946.3
90945.1
90943.8
90942.2
90940.4
90938.9
90937.5
90935.9
90934.1
90932.7
90931.4
90930.3
90929.1
90927.6
90926.1
90924.9
90923.6
90922.3
90921.1
90920
90918.9
90917.7
90916.8
90915.9
90914.7
90913.4
90912.7
90912
90911.2
90910.6
90910.1
90909.5
90908.9
90908.5
90908.1
90907.9
90907.7
90907.5
90907.4
90907.4
90907.4
90907.5
90907.7
90908.1
90908.5
90909
90909.4
90910
90910.7
90911.5
90912.4
90913.4
90914.5
90915.6
90916.9
90918.6
90920.3
90922
90924.3
90926.6
90928.5
90930.4
90932.7
90934.8
90936.9
90938.9
90941.2
90943.8
90947.1
90950.4
90953.4
90957.1
90960.7
90964.2
90968.2
90972.4
90976.8
90981
90984.3
90987.4
90991.5
90996.2
91001
91005.7
91010.8
91015.2
91019.5
91024.7
91030.5
91037.1
91043.8
91050.9
91056.8
91062
91067.4
91072.6
91078.6
91084.7
91091
91098.7
91107.5
91115.6
91122.9
91129.8
91136.5
91142.9
91149
91156.8
91167.1
91177.8
91186.5
91194.8
91204.3
91214.7
91224.6
91233.4
91243.3
91252.1
91260.7
91271.5
91281.1
91290.3
91300.5
91311.3
91324.2
91340.3
91354
91364
91373.2
91381.7
91389.8
91400.3
91414.9
91428.2
91441
91454.8
91468.5
91480.3
91492.8
91506.2
91517.9
91530.1
91547.3
91566.5
91580.3
91592.6
91604.9
91619
91636.1
91655
91677.7
91702.5
91723.6
91740.9
91759.4
91777.9
91792.1
91804
91816
91830.7
91850.2
91872.7
91890.6
91904.5
91917.5
91933.2
91952.1
91975.5
91995.1
92013.8
92040.4
92058.9
92075
92095
92120
92144.1
92165.7
92186.4
92209.2
92234
92255.2
92274.6
92294.7
92314.6
92335.1
92357.5
92378.3
92399.3
92422.3
92444
92469.4
92496.6
92524.5
92557.1
92581.1
92601.6
92624
92648.7
92675.7
92706.1
92733.4
92759.7
92788.7
92806.7
92822.9
92841
92859
92877.4
92901.4
92951
92998.8
93039.4
93071.5
93103.5
93131.5
93158.6
93192.4
93222.2
93248.4
93277.6
93312.9
93348.3
93376.8
93403.6
93431.8
93461.7
93488.2
93510.9
93531.6
93556.6
93585
93613.4
93653.4
93702.4
93742.1
93775.1
93803.8
93829.2
93856.6
93893.3
93936.8
93981.7
94019
94055.2
94091.2
94128
94167
94206
94248.7
94280.5
94310.1
94339.8
94361.7
94384.7
94410.5
94438.1
94469.6
94504.6
94544.1
94580.7
94622.3
94669.9
94718.3
94759.7
94801.6
94850.9
94901.3
94952.6
95005.6
95051.1
95089.8
95131.4
95166.2
95198.7
95240.6
95292.5
95347.6
95401.7
95456.1
95491.9
95523.8
95560.3
95598
95640.5
95690.4
95747
95792.4
95835.7
95876.8
95920.9
95989.9
96047
96094.4
96146.3
96198
96241.6
96287.5
96328.6
96363.1
96409.8
96470
96529.8
96591.8
96647
96688.8
96734.8
96798.9
96866.2
96933.7
97009.9
97090.5
97151.5
97211.9
97266.2
97314.9
97376.5
97433.9
97484.6
97532.1
97582.2
97646.1
97720.5
97791.5
97848.6
97898.3
97944
98004.9
98079.4
98139.8
98201.4
98254.1
98304
98364
98435.3
98518.2
98607.2
98687.8
98771.3
98874.8
98953.1
99010.1
99072.5
99161.2
99223.1
99273.9
99343.7
99440.7
99520.9
99582.3
99647.6
99716.7
99790.1
99875.8
99957.2
100038
100122
100206
100306
100445
100674
101095
90987.9
90987.9
90987.8
90987.7
90987.4
90987.1
90986.6
90986.1
90985.5
90984.8
90984.1
90983.1
90982.4
90981.8
90981.1
90980.1
90979.1
90978.1
90977.1
90976.3
90975.4
90974.2
90972.7
90970.9
90969.5
90967.9
90966.3
90965.1
90963.9
90962.5
90961
90959.1
90957.2
90955.8
90954.5
90952.9
90951
90949.4
90948
90946.8
90945.4
90944.1
90942.6
90940.7
90939.1
90937.6
90935.9
90934.2
90933
90932
90930.7
90929.4
90928
90926.5
90925.1
90923.9
90922.6
90921.4
90920.3
90919.1
90918
90916.9
90916
90914.9
90913.7
90912.9
90912.3
90911.6
90910.9
90910.4
90909.9
90909.3
90908.8
90908.4
90908.1
90908
90907.8
90907.7
90907.6
90907.7
90907.8
90908
90908.4
90908.8
90909.3
90909.7
90910.3
90911
90911.7
90912.6
90913.7
90914.9
90916
90917.3
90919
90920.6
90922.3
90924.6
90926.9
90928.8
90930.8
90932.9
90935.1
90937
90939.2
90941.5
90944.1
90947.5
90950.6
90953.5
90957.4
90961.6
90965
90968.2
90971.8
90976.9
90981.8
90985
90988
90992.2
90996.7
91001.3
91006.1
91010.8
91014.8
91019.2
91024.9
91030.8
91037.2
91043.7
91050.8
91056.5
91061.9
91068
91073.5
91078.9
91085.1
91092
91098.8
91106.5
91114.8
91123
91130.1
91136.8
91143.7
91150.3
91158.3
91168
91177.6
91186.7
91196
91205.2
91214.2
91223.6
91233.1
91242.9
91252.5
91262.1
91272.9
91281.6
91289.7
91299.6
91310.6
91323.4
91340
91354.4
91364.3
91373.2
91382.3
91390.8
91401.8
91415.8
91428.3
91441.3
91454.7
91468.8
91482.4
91495.4
91508.4
91519.6
91530.9
91544.8
91560.6
91575.6
91589.1
91602
91616.6
91636.6
91661.6
91685.9
91706.5
91725.1
91740.3
91757.4
91779.3
91794.2
91805.7
91818.1
91833.2
91852
91873.8
91890.8
91904.6
91917.4
91932.6
91953
91976.6
91997.5
92018.1
92040.2
92056.6
92072.9
92096.1
92120.5
92146.7
92167.8
92185.6
92206.9
92230.1
92252.2
92274.6
92295.8
92314.7
92334.6
92358.2
92380.5
92401.9
92424
92446.7
92474.3
92499.6
92525.3
92557.4
92581.1
92602.4
92625.8
92650.4
92676.7
92705.5
92729.5
92753.4
92780.7
92803
92821.9
92840.1
92859
92881
92910.7
92963.2
93005.9
93041.5
93073.2
93102.4
93131
93158.6
93189.1
93221.5
93248.8
93277.4
93309.8
93342.6
93375.3
93403.2
93431.6
93464.1
93491.7
93512.4
93531.5
93555.9
93585
93615.8
93663.5
93708.2
93737.8
93767.7
93798.6
93825.9
93858.6
93896.7
93941.1
93984.3
94020
94056.7
94095.7
94133.3
94168.1
94201.9
94238.5
94275.6
94308.4
94336.3
94358.5
94380.2
94405.4
94435.4
94468.8
94506.4
94554.9
94603.8
94646.7
94685
94722.9
94759.3
94800.2
94846.9
94898.5
94960.4
95006.3
95047
95089.3
95132.2
95163.7
95194.5
95240.7
95295.7
95348.7
95397.7
95447.7
95486.7
95518.3
95554.5
95597.2
95645.8
95703.8
95756.8
95795
95835.2
95875.2
95915.7
95982.1
96052.1
96102.6
96145
96190.6
96240.9
96285.2
96325
96364.7
96417
96475.3
96528.7
96586.1
96642.5
96688.7
96741
96813.9
96882.4
96945.9
97013
97084.8
97142.5
97196
97255.9
97314.9
97379.4
97434.2
97485.5
97535.7
97587
97644.9
97711.2
97782.9
97846.6
97898.6
97943.3
97998.8
98072.9
98142.8
98200.5
98251.6
98301.3
98356.2
98421.5
98503
98615.4
98706.2
98779.5
98869.8
98954.6
99013.5
99073.1
99148.5
99216.4
99271.3
99344.5
99445.6
99521.5
99576.7
99636.5
99709.3
99781.9
99862.6
99942.4
100028
100129
100207
100289
100417
100672
101113
90988.3
90988.2
90988.1
90988
90987.8
90987.6
90987.2
90986.6
90986
90985.2
90984.4
90983.6
90982.8
90982.1
90981.4
90980.5
90979.6
90978.4
90977.3
90976.4
90975.6
90974.6
90973.3
90971.5
90969.9
90968.5
90966.9
90965.5
90964
90962.8
90961.5
90959.6
90957.7
90956
90954.6
90953.1
90951.4
90949.8
90948.4
90947.2
90945.8
90944.5
90942.9
90941
90939.5
90938
90936.3
90934.6
90933.3
90932.2
90931.2
90929.7
90928.2
90926.9
90925.5
90924.2
90923
90921.8
90920.6
90919.4
90918.3
90917.2
90916.3
90915.3
90914.1
90913.3
90912.7
90912
90911.2
90910.7
90910.2
90909.7
90909.3
90908.8
90908.5
90908.3
90908.2
90908
90908
90908
90908.2
90908.4
90908.8
90909.2
90909.6
90910.1
90910.7
90911.3
90912
90913
90914.2
90915.4
90916.4
90917.6
90919.3
90921.1
90923
90924.9
90926.9
90929.1
90931.3
90933.3
90935.3
90937.1
90939.3
90941.9
90944.9
90948.3
90951
90953.6
90957.4
90961.9
90965.6
90968.7
90972.2
90977.2
90982.4
90985.9
90989
90992.6
90997.3
91001.6
91006.4
91010.7
91014.5
91019.8
91025.4
91030.8
91037
91043.7
91050.6
91056.4
91062.2
91069.1
91074.5
91079.1
91084.5
91091.3
91098.7
91106.8
91115.2
91123.7
91130.6
91137.1
91144.4
91152.2
91159.9
91168.4
91177.7
91187.7
91196.7
91205.4
91213.8
91222.2
91232.2
91243.3
91254.7
91264.3
91273.6
91281.5
91288.9
91298.8
91311.7
91324.3
91337.7
91352.6
91364.2
91373.8
91383.1
91392.4
91403.7
91417.9
91429.3
91440.4
91454.4
91470.7
91484.7
91497.9
91510.4
91520.5
91531.1
91544.7
91558.3
91570.2
91582.4
91597.6
91617.6
91641.8
91672.3
91691
91708
91726.3
91740.8
91755.7
91777.1
91794.2
91806.4
91819.3
91834.7
91853
91874.6
91892.1
91905.7
91918.8
91934.7
91953
91974.2
91997
92017.5
92037.7
92056.1
92075.7
92098.9
92121.7
92148.2
92169.1
92185.3
92203
92225.7
92251.9
92275.8
92297.8
92317.1
92336
92357.3
92379.8
92403.3
92425.4
92447.6
92474.4
92505.3
92534.1
92557.2
92579.6
92603.6
92627.6
92650.9
92674.6
92699.7
92724.5
92750.5
92777.4
92799.9
92820.2
92840.4
92864
92888.2
92917.9
92970.4
93010.3
93042
93071.7
93100.1
93129.5
93158.2
93187.8
93219.8
93249.9
93282
93308.6
93335.9
93371.9
93403.5
93433.2
93463.4
93488.5
93510.9
93533.3
93559
93587.5
93622.4
93668.5
93709.9
93736.1
93762.3
93796
93826.8
93863.5
93900.6
93943.4
93984.8
94020.3
94056.4
94092.9
94131.8
94169.6
94205.9
94238.8
94270.9
94303.6
94329.2
94349.9
94371.8
94399.5
94436.4
94476.7
94521.2
94570.9
94622.2
94655.5
94689.4
94727.4
94762.7
94803
94849.5
94900.3
94963.3
95001.4
95037.3
95083.6
95127.7
95162
95195.4
95242.8
95298.8
95350.3
95397.9
95442.6
95481.9
95517.4
95555.3
95601.2
95658.4
95714.1
95757.9
95793.2
95831
95873
95916.1
95976.3
96051.4
96101.9
96143.8
96190.7
96239.2
96279
96319.5
96369.2
96426
96475.4
96523.9
96588
96647.5
96693.3
96745.2
96821.2
96897.2
96959.1
97013
97070.7
97136
97192.8
97246.8
97309.7
97374.7
97429.2
97484.5
97538
97591.4
97648.4
97710.7
97775.1
97842.2
97896.4
97940.6
97995
98069.7
98143.3
98198.9
98248.7
98299.4
98357.6
98420.5
98493.9
98605.8
98709.5
98782.8
98858.7
98946.7
99013
99074.5
99142.4
99215.3
99276.3
99345.1
99442.8
99515.3
99570.7
99632.4
99702.9
99773.5
99851.8
99934.7
100029
100134
100199
100267
100389
100682
101132
90988.8
90988.7
90988.5
90988.4
90988.2
90987.9
90987.6
90987.2
90986.6
90985.8
90984.9
90984
90983.3
90982.6
90981.8
90980.9
90980
90978.9
90977.6
90976.6
90975.8
90974.9
90973.5
90971.7
90970.2
90969
90967.7
90966.2
90964.6
90963.2
90961.8
90960.1
90958.2
90956.5
90954.8
90953.3
90951.9
90950.3
90948.9
90947.4
90946.1
90944.8
90943.3
90941.5
90940
90938.5
90936.8
90935.2
90933.8
90932.6
90931.5
90930.1
90928.6
90927.4
90926
90924.5
90923.3
90922.2
90921
90919.9
90918.7
90917.5
90916.7
90915.8
90914.7
90913.7
90913.1
90912.5
90911.8
90911
90910.5
90910.1
90909.7
90909.3
90908.9
90908.7
90908.5
90908.4
90908.4
90908.5
90908.7
90908.9
90909.3
90909.6
90910
90910.5
90911.1
90911.7
90912.5
90913.4
90914.7
90915.8
90916.9
90918.2
90920
90921.9
90923.6
90925.2
90927.1
90929.5
90931.7
90933.6
90935.4
90937.3
90939.8
90942.4
90945.5
90949.1
90951.5
90954.1
90958.3
90962.5
90966.1
90969.3
90973.1
90978
90982.8
90986.1
90989.5
90993.1
90997
91001.8
91007.1
91010.9
91014.6
91020.7
91026.3
91031.3
91036.8
91043.2
91050.7
91057.4
91063.6
91069.8
91074.6
91079.2
91084.3
91090.1
91098.8
91107.5
91115.8
91123.9
91131.4
91138
91144.9
91152.7
91161
91170.1
91179.6
91189.6
91196.9
91204.6
91213.4
91220.9
91231
91243.7
91256.3
91265.6
91274.3
91281.8
91288.8
91298.6
91313.4
91325.5
91337.7
91352.5
91365.6
91375.1
91383.5
91393.4
91404.3
91416.8
91429.4
91440.9
91454.8
91471.7
91485.9
91499.4
91512
91522.2
91532.7
91545.3
91556.9
91566.8
91577.4
91595.2
91622.4
91647.4
91673
91692.2
91711.1
91729.1
91742
91754.9
91773.6
91792
91806.1
91819.9
91834.9
91854.1
91876.8
91894.3
91908.2
91921.6
91936.6
91951.3
91969.4
91995.6
92015.6
92034.3
92056.6
92080.2
92101.1
92122.5
92148.4
92170.1
92186.6
92203.4
92224.9
92252.7
92275.6
92297
92318.3
92338
92357
92377.9
92402.2
92426
92450.4
92476.7
92509.3
92535.7
92557.6
92581.8
92606
92628.7
92650.2
92671.8
92695
92720.3
92747.7
92775.1
92798.9
92819.6
92840.5
92865.1
92895.6
92933
92975.4
93010.6
93041.3
93071.7
93101.6
93131.9
93158.6
93187.1
93217.5
93246
93276.2
93304.7
93335.1
93373.8
93404.8
93430.8
93459.2
93486
93511.8
93537.4
93561.5
93589.4
93625
93668.7
93708.8
93735.6
93762.7
93797.8
93830.1
93863.7
93899.6
93941.6
93985.8
94023.2
94058.1
94092.4
94131
94166.9
94204
94238.9
94270.2
94302.3
94325.6
94342.9
94362.6
94395.7
94443.9
94493.4
94538
94582.2
94625.1
94655.4
94688.8
94732.6
94769.6
94808.6
94852.6
94900.2
94954.4
94992
95025.7
95074.4
95126.6
95167.5
95206.1
95249.8
95298.4
95346.3
95395.1
95441.3
95480.7
95520.6
95558.7
95600.8
95659.9
95715.3
95758.1
95794.3
95830.2
95870.1
95920
95980.8
96040.6
96094.2
96142.2
96191.5
96236.8
96273.5
96313
96371.7
96431.6
96475.9
96521
96585.4
96649.6
96699.9
96754.8
96827.3
96905
96965.1
97013.3
97062.2
97121
97187.7
97248.9
97311.9
97371.5
97422.6
97478.1
97539.9
97598.2
97652.7
97708.5
97767.1
97834
97893.5
97942.5
97999.6
98068.5
98129.7
98185.4
98244
98300.3
98359.1
98421.1
98491.7
98591
98710.3
98794.5
98863.6
98934.5
99006.6
99080.4
99152.4
99221.4
99282
99347.8
99431.7
99501.7
99557.8
99619.7
99692.8
99767.2
99844.3
99927.7
100027
100116
100185
100263
100412
100754
101158
90989.4
90989.2
90989
90988.8
90988.6
90988.3
90988
90987.5
90987
90986.4
90985.6
90984.7
90983.9
90983.2
90982.4
90981.3
90980.4
90979.5
90978.4
90977.1
90976.1
90975.2
90973.8
90972.3
90970.6
90969.2
90968.1
90966.9
90965.2
90963.7
90962.2
90960.4
90958.5
90957
90955.5
90953.9
90952.3
90950.6
90949.3
90948
90946.5
90945.1
90943.6
90941.9
90940.5
90939
90937.4
90935.9
90934.6
90933.3
90931.9
90930.4
90929.1
90927.8
90926.4
90924.9
90923.7
90922.5
90921.3
90920.3
90919.2
90918.1
90917.1
90916.3
90915.3
90914.3
90913.5
90913
90912.4
90911.6
90911
90910.6
90910.2
90909.8
90909.5
90909.2
90909
90908.9
90908.9
90909.1
90909.2
90909.4
90909.8
90910
90910.5
90911
90911.7
90912.3
90913
90914
90915.2
90916.4
90917.6
90919
90920.6
90922.3
90924.1
90925.8
90927.6
90929.6
90931.8
90933.9
90935.7
90937.9
90940.5
90943.1
90946.3
90949.6
90952.2
90955.4
90959.4
90962.9
90966.6
90970.2
90974.2
90978.7
90982.7
90986.1
90989.9
90993.6
90997.5
91002.5
91007.5
91011
91014.7
91020.9
91027.4
91032.6
91037.4
91043.3
91051.4
91058.7
91064.2
91069.3
91074.2
91079.3
91084.4
91090.5
91100.2
91108.4
91115.4
91123.2
91132.1
91138.8
91145.4
91154.1
91163.7
91171.8
91180.1
91189.3
91197.3
91206.6
91214
91220.7
91230.4
91242.8
91255.2
91265.5
91275
91282.6
91290
91301.2
91315
91325.7
91337.2
91353.1
91367.9
91376.1
91383.1
91392.7
91405.5
91416.7
91427.3
91440.4
91457
91473.2
91486.9
91500.3
91514
91525.1
91535
91545.2
91554.8
91564.8
91576.5
91597.2
91629
91651.2
91671.5
91690.8
91710.4
91730
91743
91755.6
91772.4
91790.1
91806.4
91821.2
91835.8
91855.6
91877.8
91895.4
91909.8
91923.7
91937.9
91951
91966.3
91990.3
92012.7
92034.4
92059.6
92081.2
92102.2
92124.7
92149.1
92169.8
92187.1
92205.4
92226.6
92252.3
92277.3
92298.5
92318.1
92336.6
92356.8
92381.7
92404
92425.8
92451.2
92477.2
92506.8
92533.9
92557.1
92582.1
92606.1
92627.4
92648.4
92669.7
92693.9
92721.1
92746.9
92773.8
92801.1
92823.6
92845.9
92871.5
92904
92937.9
92972
93009.9
93043.6
93071.9
93102.1
93131.7
93157.2
93188.2
93217.8
93241.5
93269.2
93299.7
93333.4
93373.7
93405.8
93430.4
93456.7
93486
93514.1
93539.1
93562.3
93591.4
93626.5
93665.8
93702.6
93732.8
93764.8
93800.6
93834.1
93868.8
93901.2
93940
93986.5
94026.1
94060.8
94095.9
94134.6
94164.8
94196.1
94232.1
94266
94300.5
94323.5
94340.7
94359.6
94395
94455.6
94509.1
94547.3
94587.3
94623.5
94654.2
94691.1
94733.8
94774.8
94816
94856.5
94898.5
94942
94981.8
95020.1
95068.5
95127.4
95172.5
95210.8
95247.9
95290.6
95345.3
95395.3
95440.9
95481
95521
95561.5
95603.3
95657.8
95713.7
95754.9
95792.6
95829.3
95869.2
95928.2
95994.4
96041.5
96086.4
96140.9
96188.1
96231.2
96269.2
96309.6
96371.8
96432.4
96480.3
96530.8
96590.5
96655.7
96706.7
96760.9
96833
96907
96960.6
97007.7
97060.4
97115.1
97177
97250.7
97315.2
97366.9
97416
97472
97533.8
97596.9
97660.3
97712.4
97761.1
97818.3
97882.1
97944.1
98008.4
98073.1
98125.2
98174.8
98234.5
98295.4
98357.1
98420.9
98495.1
98591.3
98700.1
98794.4
98863.4
98929.4
99008.5
99090.2
99157.4
99218.6
99287.1
99356.5
99417
99480.3
99545
99612.8
99688.1
99762.6
99839.7
99926.5
100029
100100
100162
100251
100437
100787
101161
90990
90989.8
90989.5
90989.3
90989
90988.7
90988.4
90988
90987.4
90986.8
90986.2
90985.4
90984.7
90983.9
90983.1
90981.9
90981
90980.2
90979
90977.7
90976.7
90975.8
90974.4
90973
90971.4
90969.9
90968.6
90967.3
90965.7
90964.3
90962.7
90961
90959.1
90957.5
90956.1
90954.5
90952.8
90950.9
90949.6
90948.6
90947.3
90945.7
90944
90942.5
90941
90939.6
90938.1
90936.5
90935.2
90934
90932.4
90930.7
90929.6
90928.4
90926.8
90925.4
90924.1
90922.8
90921.7
90920.7
90919.7
90918.6
90917.6
90916.8
90915.9
90915
90914.1
90913.4
90912.9
90912.2
90911.6
90911.2
90910.9
90910.5
90910.2
90910
90909.7
90909.6
90909.5
90909.6
90909.8
90910
90910.3
90910.7
90911.1
90911.7
90912.3
90912.9
90913.7
90914.7
90915.9
90917.1
90918.3
90919.7
90921.3
90922.9
90924.7
90926.5
90928.2
90930.2
90932.5
90934.4
90936.2
90938.6
90941.1
90943.6
90946.9
90950
90953.2
90957.4
90960.5
90963.5
90967.2
90970.5
90974.6
90979
90982.8
90986.4
90990.6
90994.1
90998
91002.9
91007.5
91011.4
91015.7
91020.9
91027.2
91033.2
91038.9
91045.7
91052.2
91058.3
91064
91069.4
91074.6
91079.5
91084.9
91092.4
91101.2
91108.7
91115.2
91122.5
91132
91139.9
91147.7
91156.4
91164.4
91172.6
91181.8
91190
91197.6
91207.3
91214.9
91222.3
91231.2
91241.3
91253.5
91264.6
91275.2
91283.6
91292.2
91302.9
91313.7
91324.7
91337.9
91354
91368.5
91377.7
91385.3
91393.4
91403.8
91416
91427.5
91441.9
91458.9
91473.2
91486.6
91501.4
91517.5
91526
91534.4
91544.2
91553.7
91565.1
91580.5
91605.2
91632.5
91652.3
91672.6
91691.7
91709.2
91727.4
91741.8
91756.2
91772.5
91788.9
91806.3
91822.1
91837
91855.7
91878.3
91896.1
91910.5
91925
91939.6
91952.9
91967.5
91987.9
92011.5
92035
92058.5
92078.7
92100.1
92125.2
92150.5
92169.4
92187.4
92206.7
92228.2
92254.6
92278.7
92297.6
92316.4
92338.5
92360.1
92383.3
92405.2
92426.8
92451.4
92477.5
92503.9
92529.7
92557.4
92585.2
92607.2
92626.5
92646.7
92666.9
92689.8
92720.5
92748.6
92777.6
92805.8
92828.4
92851.1
92875.5
92904.8
92940
92974.3
93008.9
93042.2
93069.1
93097.9
93131.3
93157.6
93189.9
93219.4
93241.1
93264.2
93292.6
93327
93367.1
93401.3
93431.9
93466.1
93488.8
93511.2
93538.8
93566.4
93601.5
93630
93659.1
93693.6
93726.3
93765
93802.2
93837.6
93870.8
93902.4
93942.8
93988.3
94029.3
94061.7
94093.3
94127.7
94161.7
94195.3
94230.6
94263.8
94292.7
94319.7
94343.8
94369.1
94409
94463.2
94508.6
94545.1
94583.9
94625.6
94661.5
94697.6
94733.5
94770.5
94813.6
94859
94901.7
94938.1
94973.9
95016.5
95065.3
95123.7
95171.8
95213.6
95249.1
95287.7
95339.5
95386.7
95434.8
95481.3
95521.7
95562.7
95606.1
95654.3
95707.9
95752.5
95793.5
95834.6
95876.6
95927.9
95992.9
96042.1
96084.9
96136.4
96182.3
96221.5
96263.4
96314.9
96379.7
96441.6
96499.2
96549.4
96599
96660.6
96709.3
96759.9
96828.8
96900.6
96956.6
97006.5
97057.9
97107.9
97161.5
97232.3
97313
97368.6
97418.1
97474.8
97529.8
97592.1
97664.3
97716.7
97763.1
97812.2
97867.3
97937.2
98005.3
98069.7
98126.2
98178
98228.9
98282.5
98345
98419.9
98512.8
98611.1
98695.1
98779.2
98859.6
98931.8
99007.6
99078.1
99146.6
99213.5
99287.6
99362.4
99414
99465.3
99533.4
99604
99680.6
99760
99837.6
99921.1
100014
100090
100157
100248
100411
100697
101119
90990.6
90990.5
90990.1
90989.7
90989.5
90989.2
90988.9
90988.5
90988
90987.4
90986.7
90986
90985.3
90984.5
90983.7
90982.7
90981.7
90980.8
90979.6
90978.3
90977.3
90976.4
90975.3
90973.6
90972.2
90970.7
90969.3
90967.9
90966.5
90965
90963.3
90961.7
90960
90958.1
90956.5
90955
90953.5
90951.8
90950.1
90949
90947.9
90946.2
90944.6
90943.2
90941.8
90940.4
90939
90937.5
90936.1
90934.8
90933.1
90931.3
90930.1
90928.9
90927.4
90926
90924.6
90923.2
90922.1
90921.2
90920.2
90919.1
90918.2
90917.3
90916.6
90915.7
90914.8
90914
90913.4
90912.8
90912.2
90911.8
90911.6
90911.3
90911
90910.8
90910.6
90910.4
90910.2
90910.2
90910.3
90910.7
90911
90911.3
90911.8
90912.4
90913
90913.6
90914.4
90915.4
90916.5
90917.7
90919
90920.5
90922.2
90923.8
90925.5
90927.1
90928.8
90930.7
90933
90934.9
90936.8
90939.4
90941.8
90944.3
90947.4
90950.6
90954.1
90958.1
90961.3
90964.8
90967.7
90970.6
90974.7
90979.4
90983.4
90986.9
90990.8
90994.8
90999.1
91003.7
91007.9
91011.9
91016.4
91021.4
91027.5
91033.9
91040.2
91046.5
91052.4
91058.5
91064.5
91070.1
91075.4
91080.2
91086
91094.1
91100.8
91107.1
91115.2
91124.6
91134.3
91141.6
91149
91156.9
91164.7
91173.8
91183.7
91190.7
91197.6
91207.9
91216
91224.4
91232
91240.1
91253
91264.6
91275.1
91283.6
91292.4
91303.9
91314.7
91325.4
91338.6
91355
91368.4
91378.3
91387.2