/*--------------------------------*- C++ -*----------------------------------*\
  =========                 |
  \\      /  F ield         | OpenFOAM: The Open Source CFD Toolbox
   \\    /   O peration     | Website:  https://openfoam.org
    \\  /    A nd           | Version:  7
     \\/     M anipulation  |
\*---------------------------------------------------------------------------*/
FoamFile
{
    version     2.0;
    format      ascii;
    class       surfaceScalarField;
    location    "6000";
    object      phi;
}
// * * * * * * * * * * * * * * * * * * * * * * * * * * * * * * * * * * * * * //

dimensions      [0 3 -1 0 0 0 0];

internalField   nonuniform List<scalar> 
319200
(
9.03046e-18
-9.21127e-18
1.68001e-17
-8.3467e-18
2.71974e-17
-1.13657e-17
3.83673e-17
-1.26486e-17
4.89992e-17
-1.27554e-17
5.39608e-17
-7.1764e-18
5.93629e-17
-7.98967e-18
6.84398e-17
-1.14645e-17
8.33674e-17
-1.80952e-17
9.66209e-17
-1.7466e-17
1.06185e-16
-1.41037e-17
1.15984e-16
-1.44726e-17
1.14219e-16
-3.9626e-18
9.58658e-17
1.22681e-17
8.63553e-17
4.28243e-18
8.73588e-17
-6.8449e-18
8.56112e-17
-3.84326e-18
1.0403e-16
-2.43412e-17
1.32571e-16
-3.58542e-17
1.55753e-16
-3.07605e-17
1.71625e-16
-2.371e-17
1.90631e-16
-2.77078e-17
2.20886e-16
-3.96486e-17
2.49202e-16
-3.84102e-17
2.60548e-16
-2.1263e-17
2.43405e-16
5.20726e-18
2.15981e-16
1.48268e-17
2.02151e-16
1.88964e-18
1.97089e-16
-7.8707e-18
1.98875e-16
-1.36949e-17
2.17587e-16
-2.99509e-17
2.46224e-16
-4.05466e-17
2.55745e-16
-2.36606e-17
2.48929e-16
-6.15465e-18
2.43326e-16
-7.35219e-18
2.44808e-16
-1.69687e-17
2.60573e-16
-3.20329e-17
2.43523e-16
-7.60284e-19
1.97917e-16
3.13222e-17
1.87883e-16
-5.03722e-18
2.01642e-16
-2.9089e-17
2.1409e-16
-2.80947e-17
2.17126e-16
-2.18156e-17
2.08599e-16
-8.78578e-18
2.07152e-16
-1.8638e-17
2.07274e-16
-2.06721e-17
1.99301e-16
-9.22616e-18
1.85141e-16
-1.23171e-18
1.70097e-16
-2.77985e-18
1.904e-16
-3.68322e-17
2.37098e-16
-6.76999e-17
2.61036e-16
-4.97107e-17
2.36212e-16
5.34836e-19
2.24717e-16
-1.19135e-17
2.11284e-16
-1.31853e-17
1.82117e-16
7.02024e-18
1.47544e-16
1.05465e-17
1.23628e-16
4.78907e-18
1.29531e-16
-2.55829e-17
1.54685e-16
-4.72025e-17
1.51724e-16
-2.54921e-17
1.26648e-16
2.48344e-18
1.1454e-16
-1.03861e-17
1.05602e-16
-1.26912e-17
1.08878e-16
-2.42851e-17
1.13408e-16
-3.19668e-17
9.85392e-17
-1.0921e-17
6.82591e-17
3.12349e-18
4.43309e-17
3.12314e-18
5.5218e-17
-3.14076e-17
6.01008e-17
-3.79604e-17
5.67812e-17
-2.35047e-17
4.75864e-17
-2.37336e-17
3.44328e-17
-1.58665e-17
2.16699e-17
-1.70733e-17
1.22996e-17
-1.78337e-17
8.53582e-19
-1.73146e-17
-1.01162e-17
-1.59554e-17
-2.30503e-17
-1.78109e-17
-3.62462e-17
-1.4966e-17
-5.11835e-17
-1.68927e-17
-6.3515e-17
-2.11576e-17
-6.98299e-17
-2.36252e-17
-7.29372e-17
-2.6706e-17
-7.17614e-17
-3.18276e-17
-7.88616e-17
-2.30055e-17
-9.285e-17
-1.62513e-17
-1.10484e-16
-1.02015e-17
-1.34254e-16
-7.03672e-18
-1.53043e-16
-1.52516e-17
-1.81883e-16
3.30818e-19
-2.23656e-16
5.09046e-18
-2.46831e-16
-1.50668e-17
-2.57268e-16
-2.66673e-17
-2.55058e-16
-3.68395e-17
-2.46434e-16
-3.91951e-17
-2.45296e-16
-3.58705e-17
-2.3491e-16
-4.11648e-17
-2.32468e-16
-3.35553e-17
-2.38278e-16
-2.28822e-17
-2.47524e-16
-2.33159e-17
-2.74462e-16
-1.09909e-18
-2.76569e-16
-3.50996e-17
-2.6309e-16
-4.66287e-17
-3.06575e-16
1.19645e-17
-3.49385e-16
5.02358e-18
-3.84373e-16
3.60013e-18
-4.49221e-16
2.67661e-17
-4.91412e-16
2.37061e-18
-5.20678e-16
-9.57182e-18
-5.39313e-16
-1.93781e-17
-5.6979e-16
-7.95145e-19
-5.89539e-16
-1.91442e-17
-5.5191e-16
-7.1724e-17
-5.37074e-16
-4.95039e-17
-5.34429e-16
-3.97834e-17
-5.4736e-16
-2.19304e-17
-6.05167e-16
1.87842e-17
-6.19166e-16
-2.93951e-17
-5.83543e-16
-7.24882e-17
-6.05796e-16
-1.28481e-17
-6.96105e-16
5.63547e-17
-8.22327e-16
8.77168e-17
-9.48289e-16
8.58087e-17
-1.06119e-15
7.07502e-17
-1.08392e-15
-2.30948e-17
-9.98363e-16
-1.27578e-16
-9.45669e-16
-8.8398e-17
-9.617e-16
-2.18153e-17
-9.69549e-16
-3.03574e-17
-9.44778e-16
-6.04205e-17
-9.32716e-16
-4.83805e-17
-1.01678e-15
4.12732e-17
-1.06596e-15
4.46316e-19
-1.01257e-15
-9.7474e-17
-8.66914e-16
-1.88006e-16
-7.98886e-16
-1.05994e-16
-9.11668e-16
7.23003e-17
-9.41264e-16
-7.36972e-18
-9.87737e-16
1.20138e-17
-9.95761e-16
-3.50817e-17
-9.30922e-16
-1.1001e-16
-9.56681e-16
-7.1161e-18
-1.12405e-15
1.23659e-16
-1.25042e-15
7.68091e-17
-1.28746e-15
-6.74631e-18
-1.29442e-15
-3.75618e-17
-1.24829e-15
-9.01294e-17
-1.11563e-15
-1.72785e-16
-9.44307e-16
-2.07537e-16
-9.64823e-16
-1.6589e-17
-1.11349e-15
1.07125e-16
-1.13614e-15
-1.5204e-17
-1.13373e-15
-4.77521e-17
-1.20323e-15
3.28815e-17
-1.40037e-15
1.52932e-16
-1.613e-15
1.68026e-16
-1.78487e-15
1.24043e-16
-1.77784e-15
-5.1129e-17
-1.66608e-15
-1.56804e-16
-1.55396e-15
-1.537e-16
-1.57484e-15
-2.22683e-17
-1.75235e-15
1.37466e-16
-1.82418e-15
2.61219e-17
-1.78044e-15
-8.01632e-17
-1.66966e-15
-1.57783e-16
-1.49378e-15
-2.22467e-16
-1.44205e-15
-9.49989e-17
-1.52127e-15
3.29759e-17
-1.81072e-15
2.46451e-16
-2.1452e-15
2.83023e-16
-2.24109e-15
5.12333e-17
-2.2402e-15
-3.83229e-17
-2.21705e-15
-6.79887e-17
-2.03904e-15
-2.17928e-16
-1.88234e-15
-1.96058e-16
-2.04213e-15
1.17576e-16
-2.34651e-15
2.62595e-16
-2.48204e-15
8.80283e-17
-2.35309e-15
-1.7486e-16
-2.3299e-15
-5.76302e-17
-2.13895e-15
-2.3506e-16
-1.78639e-15
-3.89308e-16
-1.53667e-15
-2.86444e-16
-1.47478e-15
-1.00339e-16
-1.62222e-15
1.0792e-16
-1.81364e-15
1.50245e-16
-1.95609e-15
1.01528e-16
-2.17589e-15
1.76422e-16
-2.62446e-15
3.98258e-16
-2.98342e-15
3.1155e-16
-3.09523e-15
7.02632e-17
-2.97494e-15
-1.62059e-16
-2.71217e-15
-3.0747e-16
-2.27078e-15
-4.87978e-16
-2.13771e-15
-1.72678e-16
-2.41625e-15
2.26824e-16
-2.52725e-15
5.45258e-17
-2.57867e-15
1.50862e-17
-2.57598e-15
-3.65855e-17
-2.4254e-15
-1.81131e-16
-2.41397e-15
-3.86478e-17
-2.46253e-15
1.80835e-17
-2.42558e-15
-7.53425e-17
-2.51809e-15
4.85784e-17
-2.75328e-15
1.8548e-16
-2.88685e-15
8.55655e-17
-3.02353e-15
9.91662e-17
-3.14757e-15
8.86476e-17
-3.25149e-15
6.88861e-17
-3.3096e-15
2.25176e-17
-3.15669e-15
-1.88294e-16
-3.20899e-15
1.73433e-17
-3.51406e-15
2.69098e-16
-3.49614e-15
-5.58684e-17
-3.42332e-15
-1.10534e-16
-3.86496e-15
4.0373e-16
-4.32087e-15
4.13088e-16
-4.33796e-15
-2.62069e-17
-4.33957e-15
-4.30382e-17
-4.06822e-15
-3.13772e-16
-3.49296e-15
-6.11642e-16
-3.09239e-15
-4.29275e-16
-2.94151e-15
-1.82787e-16
-2.80474e-15
-1.71247e-16
-2.75428e-15
-8.81331e-17
-2.66038e-15
-1.36338e-16
-2.64096e-15
-5.45398e-17
-2.63436e-15
-4.93272e-17
-2.52289e-15
-1.49225e-16
-2.60107e-15
4.88776e-17
-2.53766e-15
-9.98114e-17
-2.48066e-15
-9.17949e-17
-2.70981e-15
1.89759e-16
-2.9434e-15
1.94636e-16
-3.05301e-15
6.93606e-17
-3.01359e-15
-7.44039e-17
-2.98868e-15
-5.98408e-17
-2.9804e-15
-3.86047e-17
-2.9727e-15
-4.16021e-17
-2.86182e-15
-1.42327e-16
-2.58024e-15
-3.14185e-16
-2.55162e-15
-6.56198e-17
-2.94953e-15
3.59793e-16
-3.35865e-15
3.64118e-16
-3.82494e-15
4.17343e-16
-4.55529e-15
6.76462e-16
-5.2306e-15
6.27127e-16
-5.02887e-15
-2.40381e-16
-4.38961e-15
-6.67835e-16
-3.66147e-15
-7.54676e-16
-2.69601e-15
-9.88998e-16
-2.35552e-15
-3.61905e-16
-2.71947e-15
3.40386e-16
-3.20352e-15
4.55665e-16
-3.56982e-15
3.33065e-16
-3.6042e-15
1.57107e-18
-4.19753e-15
5.61331e-16
-5.41124e-15
1.17592e-15
-6.10988e-15
6.55516e-16
-5.58753e-15
-5.6743e-16
-4.70825e-15
-9.15987e-16
-4.05577e-15
-6.81871e-16
-3.71739e-15
-3.66554e-16
-3.80756e-15
5.8299e-17
-4.12386e-15
2.78547e-16
-4.23831e-15
7.74013e-17
-4.31945e-15
5.09675e-17
-4.67787e-15
3.21766e-16
-4.56341e-15
-1.61093e-16
-3.96152e-15
-6.32214e-16
-3.89415e-15
-9.37132e-17
-4.14262e-15
2.20039e-16
-4.18735e-15
1.76937e-17
-4.2248e-15
1.20536e-17
-4.2492e-15
-4.49269e-18
-4.63187e-15
3.4824e-16
-5.03044e-15
3.55871e-16
-4.9965e-15
-6.85863e-17
-5.00616e-15
-2.22844e-17
-4.96457e-15
-7.06657e-17
-5.02687e-15
3.01546e-17
-5.00956e-15
-5.11014e-17
-4.79835e-15
-2.47019e-16
-4.73827e-15
-9.48382e-17
-5.21346e-15
4.47918e-16
-5.79445e-15
5.52437e-16
-6.12042e-15
3.00582e-16
-5.94334e-15
-2.05633e-16
-4.86375e-15
-1.11009e-15
-3.75389e-15
-1.13915e-15
-3.40988e-15
-3.68574e-16
-3.80584e-15
3.66938e-16
-4.51586e-15
6.80778e-16
-5.12351e-15
5.78678e-16
-5.42256e-15
2.69514e-16
-5.32317e-15
-1.30373e-16
-5.39855e-15
4.55602e-17
-5.4897e-15
4.92784e-17
-5.79303e-15
2.62625e-16
-6.45399e-15
6.10571e-16
-6.48751e-15
-2.56007e-17
-5.95432e-15
-5.57167e-16
-5.12647e-15
-8.50004e-16
-4.47719e-15
-6.69094e-16
-4.2839e-15
-2.1094e-16
-4.39794e-15
9.78081e-17
-4.69724e-15
2.80979e-16
-5.36842e-15
6.49718e-16
-6.1259e-15
7.3181e-16
-6.15419e-15
5.05829e-19
-6.10666e-15
-7.45291e-17
-6.28332e-15
1.49188e-16
-6.29772e-15
-1.70078e-17
-6.59453e-15
2.65823e-16
-7.1669e-15
5.42541e-16
-7.00079e-15
-1.94702e-16
-6.64415e-15
-3.79908e-16
-6.59364e-15
-7.17418e-17
-6.63313e-15
1.41296e-17
-7.04012e-15
3.8113e-16
-7.77485e-15
7.07138e-16
-8.57793e-15
7.73941e-16
-9.62571e-15
1.00949e-15
-1.03089e-14
6.39253e-16
-9.86635e-15
-4.86287e-16
-8.2751e-15
-1.62784e-15
-6.89227e-15
-1.41093e-15
-6.4518e-15
-4.64082e-16
-5.39985e-15
-1.07424e-15
-4.92109e-15
-4.99522e-16
-5.37303e-15
4.31147e-16
-5.48515e-15
9.13524e-17
-5.95035e-15
4.44931e-16
-6.73652e-15
7.65265e-16
-7.30118e-15
5.42778e-16
-8.19094e-15
8.66304e-16
-9.20898e-15
9.92311e-16
-8.64885e-15
-5.88251e-16
-6.95815e-15
-1.71588e-15
-6.30345e-15
-6.74405e-16
-6.23808e-15
-8.49977e-17
-6.58401e-15
3.24937e-16
-7.60119e-15
9.93133e-16
-7.85727e-15
2.27763e-16
-7.55383e-15
-3.30029e-16
-8.67286e-15
1.09166e-15
-9.71364e-15
1.0105e-15
-9.87669e-15
1.39326e-16
-9.56127e-15
-3.37902e-16
-9.09868e-15
-4.83221e-16
-8.68776e-15
-4.29529e-16
-8.06075e-15
-6.48433e-16
-7.86304e-15
-2.19765e-16
-8.03891e-15
1.5236e-16
-7.6686e-15
-3.94009e-16
-7.25394e-15
-4.3582e-16
-7.25348e-15
-2.16318e-17
-7.51448e-15
2.40277e-16
-7.59322e-15
6.0028e-17
-7.67519e-15
6.40375e-17
-7.94355e-15
2.48613e-16
-8.35694e-15
3.92001e-16
-9.08647e-15
7.08782e-16
-1.03986e-14
1.28813e-15
-1.08968e-14
4.73095e-16
-1.19056e-14
9.85659e-16
-1.18752e-14
-5.75852e-17
-1.01613e-14
-1.74114e-15
-8.81161e-15
-1.37083e-15
-9.31882e-15
4.88302e-16
-1.10728e-14
1.73436e-15
-1.3307e-14
2.21458e-15
-1.40856e-14
7.5591e-16
-1.36585e-14
-4.46053e-16
-1.28196e-14
-8.60098e-16
-1.07966e-14
-2.04161e-15
-9.25437e-15
-1.56197e-15
-8.45745e-15
-8.15427e-16
-8.15835e-15
-3.18264e-16
-8.31391e-15
1.35454e-16
-8.16791e-15
-1.6505e-16
-9.42237e-15
1.2355e-15
-1.18051e-14
2.36151e-15
-1.3003e-14
1.17606e-15
-1.33254e-14
3.01179e-16
-1.32347e-14
-1.12497e-16
-1.24828e-14
-7.73198e-16
-1.17446e-14
-7.58543e-16
-1.21796e-14
4.13873e-16
-1.25458e-14
3.43619e-16
-1.25887e-14
2.08997e-17
-1.30964e-14
4.83773e-16
-1.34867e-14
3.6791e-16
-1.4469e-14
9.60959e-16
-1.55717e-14
1.07599e-15
-1.53436e-14
-2.46304e-16
-1.60059e-14
6.51298e-16
-1.78039e-14
1.78979e-15
4.98004e-18
9.49034e-18
-1.895e-17
1.3253e-17
-1.26466e-17
2.07228e-17
-1.97471e-17
2.60979e-17
-1.9339e-17
3.81785e-17
-2.65461e-17
5.3035e-17
-2.42814e-17
6.56776e-17
-2.35637e-17
7.71893e-17
-2.60543e-17
8.27416e-17
-2.70726e-17
8.9641e-17
-2.82405e-17
9.82732e-17
-2.71603e-17
1.01493e-16
-2.21437e-17
1.07492e-16
-1.51218e-17
1.17894e-16
-3.90013e-18
1.22317e-16
-6.83612e-18
1.22642e-16
-1.28696e-17
1.5849e-16
-4.5631e-17
1.91065e-16
-6.54138e-17
1.85239e-16
-3.88618e-17
1.74062e-16
-2.82103e-17
1.73319e-16
-3.10332e-17
1.95195e-16
-5.85004e-17
2.03238e-16
-5.69258e-17
1.86718e-16
-3.14075e-17
1.93417e-16
-3.63372e-17
2.37563e-16
-4.97307e-17
2.65506e-16
-2.67531e-17
2.55039e-16
-1.38138e-18
2.54948e-16
-2.03507e-17
2.58021e-16
-2.95636e-17
2.26945e-16
-1.14228e-17
1.89152e-16
-1.46613e-17
1.67774e-16
-1.46958e-17
1.71642e-16
-2.18862e-17
1.98876e-16
-4.60651e-17
2.20154e-16
-5.40645e-17
2.06225e-16
-3.52961e-17
2.04966e-16
-1.08239e-17
2.26727e-16
-6.79094e-18
2.15333e-16
-1.08447e-17
1.92129e-16
-2.13004e-17
1.93854e-16
-4.44804e-17
1.98483e-16
-4.39233e-17
2.03479e-16
-3.01983e-17
2.29735e-16
-6.51242e-17
2.31199e-16
-4.44412e-17
2.01528e-16
6.1368e-19
1.8596e-16
-2.32447e-18
1.89851e-16
-2.43369e-17
1.91293e-16
-5.80666e-17
1.79124e-16
-7.44293e-17
1.8118e-16
-7.37702e-17
2.02736e-16
-4.06533e-17
1.90406e-16
-2.38338e-17
1.64809e-16
-5.3897e-18
1.56804e-16
-7.72766e-18
1.43284e-16
1.48154e-18
1.31755e-16
-4.15135e-18
1.29321e-16
-4.54952e-17
1.17728e-16
-5.84914e-17
1.03965e-16
-3.53977e-17
1.01339e-16
-1.86575e-17
9.87704e-17
-2.93313e-17
9.82612e-17
-3.40012e-17
8.21618e-17
-3.28014e-17
7.05437e-17
-4.43737e-17
8.00474e-17
-4.35331e-17
9.69667e-17
-4.28288e-17
1.07702e-16
-3.6886e-17
9.6296e-17
-5.11875e-17
6.0267e-17
-3.26352e-17
3.40871e-17
-2.56659e-17
1.75976e-17
-3.27813e-17
7.74463e-18
-3.37895e-17
9.29581e-19
-3.60594e-17
-6.82254e-18
-3.81111e-17
-1.87214e-17
-3.14348e-17
-2.79841e-17
-3.38153e-17
-3.80284e-17
-3.67156e-17
-5.2027e-17
-3.43091e-17
-6.10055e-17
-3.77265e-17
-7.52621e-17
-3.67143e-17
-9.39212e-17
-3.56365e-17
-1.18973e-16
-3.2996e-17
-1.33785e-16
-5.38103e-17
-1.34254e-16
-5.86994e-17
-1.30772e-16
-4.86854e-17
-1.45428e-16
-2.61298e-17
-1.7164e-16
-1.27362e-17
-2.02331e-16
-1.92216e-17
-2.24331e-16
-1.39407e-17
-2.423e-16
-1.16701e-17
-2.61014e-16
-3.50707e-17
-2.63505e-16
-6.03015e-17
-2.81719e-16
-5.05693e-17
-3.00379e-16
-5.60436e-17
-3.1271e-16
-5.58252e-17
-3.13149e-16
-7.43648e-17
-3.02798e-16
-7.6712e-17
-3.13535e-16
-4.239e-17
-3.29674e-16
-4.17576e-17
-3.31028e-16
-3.22976e-17
-3.94868e-16
-4.61267e-18
-4.35046e-16
-4.99706e-17
-4.12335e-16
-4.68561e-17
-4.53774e-16
1.22249e-17
-5.17132e-16
2.93009e-17
-5.16663e-16
-1.15654e-17
-4.97299e-16
-5.2515e-17
-4.84556e-16
-5.86848e-17
-4.62783e-16
-7.59806e-17
-4.41383e-16
-5.46252e-17
-4.76655e-16
-1.94338e-17
-5.36938e-16
-4.72507e-17
-5.79999e-16
-4.431e-17
-6.12146e-16
-4.65233e-17
-6.28023e-16
-4.54048e-17
-6.5414e-16
3.78469e-18
-7.53613e-16
2.93685e-17
-8.36475e-16
-3.09419e-17
-7.91377e-16
-9.82955e-17
-7.02645e-16
-6.81668e-17
-6.56611e-16
6.07075e-18
-6.24899e-16
1.83517e-17
-6.13538e-16
2.35114e-17
-6.65357e-16
-8.34621e-18
-7.53869e-16
-7.55746e-17
-8.28513e-16
-4.87384e-17
-8.43601e-16
-4.41553e-17
-8.21528e-16
-8.79763e-17
-8.48244e-16
-6.7519e-17
-1.08598e-15
1.55186e-16
-1.24594e-15
1.53867e-16
-1.19008e-15
-1.04692e-16
-1.17842e-15
-1.52139e-16
-1.35427e-15
-5.07972e-17
-1.30072e-15
-2.07466e-16
-1.07919e-15
-1.88341e-16
-1.10568e-15
-1.70744e-17
-1.17674e-15
4.37134e-17
-1.23982e-15
-1.5587e-17
-1.30206e-15
-9.37089e-17
-1.32013e-15
-3.34251e-17
-1.19355e-15
-4.85873e-17
-1.07773e-15
-8.28404e-17
-1.11467e-15
-7.68036e-18
-1.1778e-15
-1.5209e-17
-1.18517e-15
-1.2156e-16
-1.23642e-15
-1.58844e-16
-1.44492e-15
-3.66895e-17
-1.45473e-15
-5.43108e-17
-1.26468e-15
-1.2e-16
-1.2394e-15
-7.97904e-17
-1.32577e-15
-4.63301e-18
-1.48022e-15
1.43414e-16
-1.48888e-15
1.1448e-16
-1.45768e-15
9.39721e-17
-1.49419e-15
1.14192e-16
-1.60371e-15
1.69879e-17
-1.76411e-15
-4.27516e-17
-1.87076e-15
-9.25618e-17
-1.8507e-15
-8.86185e-17
-1.75571e-15
4.37007e-19
-1.80996e-15
3.99733e-17
-1.95284e-15
2.04957e-17
-2.05793e-15
-9.96021e-17
-1.95816e-15
-3.72181e-16
-1.73901e-15
-3.59935e-16
-1.55621e-15
-1.98027e-16
-1.42994e-15
7.65942e-17
-1.38402e-15
1.97184e-16
-1.55476e-15
1.85427e-16
-2.02155e-15
3.91348e-16
-2.31046e-15
1.73166e-16
-2.23917e-15
-3.31454e-16
-2.11176e-15
-3.65301e-16
-1.92541e-15
-1.10732e-16
-1.81564e-15
1.13195e-16
-1.7792e-15
1.01329e-17
-1.89912e-15
-9.4156e-17
-2.04384e-15
4.89706e-17
-2.09735e-15
-2.22013e-16
-2.05337e-15
-4.70032e-16
-2.26601e-15
-1.13009e-16
-2.48603e-15
7.02785e-17
-2.54047e-15
1.15361e-16
-2.66186e-15
2.21482e-16
-3.07071e-15
4.59798e-16
-3.74485e-15
7.90144e-16
-3.89689e-15
4.81655e-16
-3.46264e-15
-1.69977e-16
-3.1013e-15
-3.23802e-16
-3.31415e-15
1.5751e-17
-3.49459e-15
-1.7266e-16
-3.48836e-15
-5.48948e-16
-3.307e-15
-4.14177e-16
-3.03596e-15
-1.12129e-16
-2.79729e-15
-2.49892e-16
-2.60865e-15
-2.08574e-16
-2.56749e-15
-1.10279e-16
-2.48638e-15
-2.91889e-16
-2.52659e-15
-3.05872e-17
-3.06144e-15
5.14221e-16
-3.9181e-15
7.35046e-16
-4.05176e-15
1.32059e-16
-3.376e-15
-5.35407e-16
-2.90639e-15
-4.25242e-16
-2.74008e-15
-1.05618e-16
-2.90574e-15
2.18103e-16
-2.70986e-15
-1.62496e-16
-2.51622e-15
-2.05746e-16
-2.90529e-15
1.65623e-16
-3.16779e-15
2.42999e-16
-2.96243e-15
2.65363e-17
-3.0906e-15
3.56348e-17
-3.29903e-15
6.06981e-17
-3.13202e-15
1.98451e-16
-2.89006e-15
1.33544e-16
-2.6488e-15
-3.03524e-16
-2.37099e-15
-3.5554e-16
-2.53895e-15
-1.78377e-16
-3.22294e-15
4.10439e-17
-3.81331e-15
1.28142e-16
-4.18956e-15
1.58115e-16
-4.34708e-15
-5.24465e-17
-4.2553e-15
-2.21031e-16
-3.97349e-15
-4.60821e-16
-3.63314e-15
-4.33935e-16
-3.66808e-15
-5.70762e-17
-3.88117e-15
2.24151e-17
-4.00628e-15
1.34408e-16
-4.36531e-15
2.23383e-16
-4.16432e-15
-3.34083e-16
-3.28155e-15
-7.32768e-16
-2.81323e-15
-3.05344e-16
-2.99084e-15
2.13063e-16
-3.252e-15
1.52187e-16
-3.25263e-15
-9.39546e-17
-3.06248e-15
-2.59658e-16
-3.08562e-15
-5.05112e-17
-3.41085e-15
1.50911e-16
-3.88932e-15
1.26968e-16
-4.21835e-15
2.1772e-16
-4.24059e-15
3.35105e-16
-4.7339e-15
8.11405e-16
-5.14277e-15
7.67567e-16
-5.1064e-15
5.7717e-16
-4.96408e-15
4.36612e-16
-4.95753e-15
-2.7885e-16
-4.84517e-15
-8.0943e-16
-4.82892e-15
-7.97487e-16
-5.01768e-15
-8.25393e-16
-4.5897e-15
-8.19051e-16
-4.03065e-15
-2.48419e-16
-4.20733e-15
6.01667e-16
-4.36909e-15
4.61094e-16
-4.75832e-15
3.55315e-16
-5.08163e-15
8.47e-16
-4.65434e-15
7.08724e-16
-4.11406e-15
7.56514e-17
-4.2614e-15
-4.55801e-16
-4.79574e-15
-4.12081e-16
-5.24607e-15
-2.63e-16
-5.5211e-15
-1.25516e-16
-5.04332e-15
-4.57164e-16
-4.23706e-15
-5.65537e-16
-4.41093e-15
2.19925e-16
-5.17105e-15
7.75949e-16
-5.13252e-15
2.39098e-16
-4.69965e-15
-6.28326e-16
-5.0487e-15
-3.11946e-16
-5.00269e-15
-1.67737e-16
-4.43756e-15
-3.73754e-16
-4.39756e-15
-4.78547e-17
-4.8625e-15
4.4926e-16
-5.27153e-15
3.71935e-16
-5.3296e-15
3.67826e-16
-5.12794e-15
1.13606e-16
-5.25986e-15
2.74148e-17
-5.6127e-15
2.97597e-16
-5.71287e-15
-3.87016e-18
-5.70921e-15
-8.40892e-18
-5.89498e-15
1.01466e-16
-5.73756e-15
-4.35157e-16
-5.15332e-15
-7.08752e-16
-4.49677e-15
-2.35439e-16
-4.22663e-15
2.58142e-16
-4.22963e-15
2.80651e-16
-4.64214e-15
1.81867e-16
-5.00118e-15
-7.78582e-16
-5.00135e-15
-1.16713e-15
-5.23328e-15
-1.66057e-16
-5.15789e-15
2.61728e-16
-5.05011e-15
5.43226e-16
-5.60113e-15
1.10051e-15
-6.94874e-15
1.57878e-15
-7.72864e-15
6.0806e-16
-7.6984e-15
-2.55152e-17
-8.20833e-15
5.13612e-16
-8.17776e-15
1.72409e-16
-6.83661e-15
-7.96262e-16
-5.34526e-15
-1.55456e-15
-4.24468e-15
-1.67923e-15
-3.83673e-15
-1.27682e-15
-3.86375e-15
-6.58941e-16
-4.4441e-15
3.50932e-16
-5.21666e-15
8.49243e-16
-5.37291e-15
4.14024e-16
-5.4086e-15
6.60696e-16
-5.63373e-15
9.30191e-16
-5.90749e-15
2.46307e-16
-6.43192e-15
4.21602e-16
-6.96749e-15
6.54693e-16
-7.08942e-15
7.63285e-17
-6.27103e-15
-5.79456e-16
-5.17348e-15
-5.80388e-16
-5.43847e-15
4.82074e-17
-6.31835e-15
4.78514e-16
-7.10308e-15
6.87371e-16
-7.55763e-15
4.40222e-16
-8.06338e-15
8.57623e-16
-9.3408e-15
1.95361e-15
-1.06647e-14
2.05961e-15
-1.00253e-14
3.30038e-16
-8.4927e-15
-9.22008e-16
-8.55265e-15
-4.52068e-16
-9.36873e-15
-8.3519e-16
-9.02526e-15
-1.77784e-15
-8.41352e-15
-1.09845e-15
-8.31208e-15
-1.19756e-15
-7.33088e-15
-1.50464e-15
-6.64288e-15
-2.8145e-16
-6.96121e-15
3.867e-16
-6.98081e-15
4.41893e-16
-6.70166e-15
4.63496e-16
-6.85203e-15
6.70907e-16
-7.25263e-15
1.24313e-15
-7.27225e-15
9.8662e-16
-7.74069e-15
-1.4372e-16
-8.74978e-15
-7.28736e-16
-9.20658e-15
-2.39528e-16
-8.43066e-15
-8.84657e-16
-7.53288e-15
-5.95334e-16
-7.56251e-15
9.96432e-16
-8.09345e-15
7.3118e-16
-8.28634e-15
-1.65496e-16
-7.60355e-15
3.8067e-16
-7.41228e-15
7.97566e-16
-7.47668e-15
1.82974e-16
-7.23459e-15
-5.99629e-16
-7.42553e-15
-3.1027e-16
-7.83084e-15
-4.28647e-17
-8.54824e-15
4.80715e-17
-8.69867e-15
-9.2001e-17
-7.76392e-15
-8.0508e-16
-7.14728e-15
-1.03191e-15
-6.86795e-15
-7.35945e-16
-6.88613e-15
-2.46383e-17
-7.34319e-15
6.76983e-16
-7.91824e-15
6.1663e-16
-8.2956e-15
4.22596e-16
-8.34124e-15
2.73666e-16
-8.59602e-15
6.25262e-16
-9.50007e-15
1.59034e-15
-1.03471e-14
2.11306e-15
-1.05083e-14
6.12352e-16
-9.48818e-15
-5.58367e-17
-8.24201e-15
-1.32527e-15
-7.71216e-15
-2.28984e-15
-7.29644e-15
-1.80381e-15
-7.30969e-15
4.83932e-16
-7.71306e-15
2.12061e-15
-8.16876e-15
2.65239e-15
-9.03624e-15
1.60469e-15
-9.91993e-15
4.17624e-16
-1.09694e-14
1.70461e-16
-1.25037e-14
-5.27043e-16
-1.19021e-14
-2.18468e-15
-1.06472e-14
-2.08859e-15
-1.07486e-14
-2.35896e-16
-1.09839e-14
3.49691e-16
-1.11441e-14
-2.10517e-17
-1.05739e-14
6.43774e-16
-9.53075e-15
1.29902e-15
-1.01849e-14
1.81273e-15
-1.03645e-14
4.59546e-16
-9.86867e-15
-6.27463e-16
-1.08681e-14
2.06206e-16
-1.27208e-14
1.07213e-15
-1.3457e-14
1.12578e-15
-1.35388e-14
4.04434e-16
-1.43046e-14
7.63515e-16
-1.41955e-14
3.49872e-16
-1.37478e-14
-1.01598e-16
-1.43376e-14
1.52875e-15
-1.42458e-14
9.58577e-16
-1.36018e-14
-9.07386e-16
-1.34983e-14
5.33168e-16
-1.33191e-14
1.6031e-15
5.31748e-16
3.26555e-18
-2.23859e-17
1.15589e-17
-2.14219e-17
2.24755e-17
-3.16337e-17
3.38482e-17
-3.18476e-17
4.56276e-17
-4.02104e-17
5.71956e-17
-3.77817e-17
6.97097e-17
-3.87461e-17
8.72059e-17
-4.6804e-17
1.01373e-16
-4.43692e-17
1.26184e-16
-5.7217e-17
1.37222e-16
-4.32437e-17
1.25549e-16
-1.5501e-17
1.29209e-16
-2.38246e-17
1.62237e-16
-4.30959e-17
1.95962e-16
-4.78134e-17
2.07001e-16
-3.04871e-17
1.99077e-16
-4.52571e-17
1.66602e-16
-4.03596e-17
1.56052e-16
-3.56976e-17
1.6499e-16
-4.59637e-17
1.60614e-16
-3.51368e-17
1.57754e-16
-6.42241e-17
1.38786e-16
-4.60497e-17
1.28427e-16
-2.93739e-17
1.49974e-16
-6.68058e-17
1.58918e-16
-6.85894e-17
1.72584e-16
-5.10998e-17
2.19262e-16
-5.96512e-17
2.36018e-16
-5.03701e-17
2.19377e-16
-2.46093e-17
2.22578e-16
-2.70128e-17
2.1386e-16
-1.9161e-17
1.9352e-16
-7.22731e-18
1.73239e-16
-1.47273e-17
1.64128e-16
-4.90344e-17
1.60544e-16
-6.4501e-17
1.50571e-16
-3.95275e-17
1.45391e-16
-1.91122e-17
1.50237e-16
-2.56598e-17
1.70788e-16
-4.71842e-17
1.95292e-16
-6.29368e-17
2.09817e-16
-7.63579e-17
2.19736e-16
-7.09059e-17
2.35665e-16
-6.30924e-17
2.0268e-16
-5.25033e-17
1.54798e-16
-1.32364e-17
1.52502e-16
-1.3873e-17
1.73267e-16
-4.05352e-17
2.03011e-16
-7.46528e-17
1.84683e-16
-6.17531e-17
1.47318e-16
-5.66479e-17
1.2845e-16
-7.37385e-17
1.29969e-16
-6.17111e-17
1.47694e-16
-6.28743e-17
1.75513e-16
-5.59015e-17
2.05265e-16
-6.09922e-17
2.21099e-16
-3.96016e-17
2.19225e-16
-2.5784e-17
1.73959e-16
-2.52753e-17
1.18923e-16
-2.41699e-17
1.00606e-16
-4.0415e-17
1.09537e-16
-5.24021e-17
1.03048e-16
-4.79185e-17
8.19699e-17
-3.40109e-17
6.85897e-17
-4.18819e-17
4.94511e-17
-5.12683e-17
2.72143e-17
-4.34534e-17
1.55314e-17
-5.28782e-17
1.83132e-17
-6.14035e-17
1.72048e-17
-7.59785e-17
1.54231e-17
-5.38475e-17
1.04329e-17
-4.99468e-17
-6.83494e-18
-4.31661e-17
-1.84824e-17
-4.52794e-17
-1.72222e-17
-6.35026e-17
-1.90872e-17
-6.55158e-17
-2.9138e-17
-5.11903e-17
-3.81871e-17
-5.69919e-17
-5.49506e-17
-5.44255e-17
-6.8745e-17
-5.00019e-17
-8.05274e-17
-5.64887e-17
-9.64209e-17
-5.21967e-17
-1.09749e-16
-5.3201e-17
-1.18807e-16
-5.14126e-17
-1.32105e-16
-7.20698e-17
-1.5327e-16
-6.86982e-17
-1.70104e-16
-6.62807e-17
-1.68274e-16
-6.10983e-17
-1.67407e-16
-4.23937e-17
-1.79256e-16
-3.64755e-17
-1.87289e-16
-3.97668e-17
-1.752e-16
-5.416e-17
-1.88327e-16
-5.06605e-17
-2.09407e-16
-7.13576e-17
-2.18512e-16
-6.93981e-17
-2.43997e-16
-5.96363e-17
-2.97013e-16
-3.65139e-17
-3.34628e-16
-7.22349e-17
-3.33541e-16
-1.13159e-16
-3.23439e-16
-8.56428e-17
-3.63011e-16
-3.59906e-17
-3.8019e-16
-5.06006e-17
-3.8261e-16
-3.62029e-17
-4.27928e-16
-4.31396e-17
-4.43743e-16
-6.9164e-17
-4.21309e-16
-4.40453e-17
-4.20558e-16
-4.23615e-18
-4.45636e-16
-1.89532e-17
-5.0181e-16
-3.23348e-17
-5.35811e-16
-6.32149e-17
-5.36542e-16
-1.10865e-16
-4.96013e-16
-1.31352e-16
-4.80321e-16
-6.88211e-17
-5.37845e-16
-2.31007e-17
-5.99805e-16
-1.98952e-17
-6.14479e-16
-6.86809e-17
-5.91355e-16
-1.07697e-16
-5.44132e-16
-8.25103e-17
-5.22151e-16
-2.85083e-17
-5.29821e-16
-5.769e-17
-5.70619e-16
-9.21967e-17
-6.03429e-16
-7.14367e-17
-5.78841e-16
-5.61958e-17
-5.34547e-16
-6.24919e-17
-5.35706e-16
-9.89914e-18
-6.03023e-16
2.34182e-17
-7.23987e-16
8.88913e-18
-8.0947e-16
-2.58835e-18
-8.39948e-16
-5.29803e-17
-9.31254e-16
-3.33211e-17
-1.03951e-15
2.0212e-18
-9.98607e-16
7.32333e-17
-9.01225e-16
1.51977e-17
-9.28545e-16
-1.1589e-16
-9.92608e-16
-1.28492e-16
-1.02589e-15
-5.78902e-17
-1.14729e-15
-1.28491e-16
-1.21801e-15
-1.60357e-16
-1.25474e-15
-2.00102e-17
-1.39659e-15
1.45159e-16
-1.66034e-15
2.04103e-16
-1.70232e-15
-9.9509e-17
-1.52248e-15
-2.55594e-16
-1.43607e-15
-1.79728e-16
-1.30373e-15
-2.61931e-16
-1.2218e-15
-1.32041e-16
-1.28106e-15
2.16535e-18
-1.32468e-15
-1.17758e-16
-1.33518e-15
-1.87123e-16
-1.38482e-15
-2.77985e-17
-1.47269e-15
-1.08015e-17
-1.60158e-15
-3.1995e-17
-1.88587e-15
1.61179e-16
-1.9743e-15
3.48658e-17
-1.70976e-15
-1.6815e-16
-1.49032e-15
-1.43916e-16
-1.39831e-15
-4.11619e-17
-1.30535e-15
-1.9611e-17
-1.22299e-15
-1.04525e-16
-1.25443e-15
-4.97147e-17
-1.46745e-15
8.1124e-17
-1.68176e-15
8.07726e-17
-1.78699e-15
6.11619e-17
-1.87237e-15
8.39393e-17
-1.82991e-15
-6.29926e-17
-1.74348e-15
-2.27406e-16
-1.80829e-15
-3.51694e-16
-1.91385e-15
-3.03188e-16
-1.9699e-15
-1.94957e-16
-1.97142e-15
3.03819e-17
-1.93838e-15
1.23536e-16
-1.74687e-15
-4.62513e-17
-1.38102e-15
-1.24266e-17
-1.28765e-15
4.58348e-17
-1.73665e-15
8.25793e-17
-2.18335e-15
3.87805e-17
-2.18571e-15
-1.56006e-16
-1.89052e-15
-2.27911e-16
-1.66135e-15
-2.60296e-16
-1.59256e-15
-2.02055e-16
-1.59464e-15
1.45793e-17
-1.92647e-15
7.39451e-17
-2.3941e-15
-4.36416e-17
-2.68527e-15
1.3044e-16
-2.99633e-15
3.29319e-16
-3.51805e-15
5.78831e-16
-4.02197e-15
6.64475e-16
-4.26061e-15
6.31433e-16
-3.81651e-15
2.70243e-16
-2.92651e-15
-4.60413e-16
-2.44734e-15
-6.78443e-16
-2.40072e-15
-3.99034e-16
-2.63186e-15
2.12537e-16
-3.04749e-15
1.99803e-16
-3.43953e-15
-2.09199e-16
-3.28078e-15
-6.32175e-16
-2.89182e-15
-5.62151e-16
-2.81428e-15
-3.88036e-16
-2.75683e-15
-3.13605e-16
-2.76787e-15
-1.38066e-16
-2.90546e-15
-1.91902e-16
-2.84532e-15
-1.32964e-16
-2.56195e-15
1.8526e-16
-2.23212e-15
3.6016e-16
-2.24411e-15
1.02969e-16
-2.56294e-15
-2.54185e-16
-2.84256e-15
-1.81891e-16
-2.68359e-15
-3.01106e-16
-2.29617e-15
-2.05658e-16
-2.1947e-15
-2.99274e-16
-2.46678e-15
3.30043e-17
-2.70729e-15
3.70453e-16
-2.65858e-15
1.57779e-16
-2.76948e-15
1.00684e-16
-2.84817e-15
7.79854e-17
-2.77473e-15
-4.95122e-17
-2.566e-15
-4.6398e-17
-2.40109e-15
-6.49298e-17
-2.6304e-15
-1.05741e-16
-3.08442e-15
6.42215e-17
-3.35008e-15
4.93301e-17
-3.44552e-15
9.5837e-17
-3.69731e-15
3.38724e-16
-3.8366e-15
2.57492e-16
-3.85582e-15
-7.00008e-17
-3.82022e-15
-2.93998e-16
-4.06062e-15
-2.58722e-16
-4.19561e-15
-3.39091e-16
-3.72492e-15
-5.68582e-16
-3.22852e-15
-5.09806e-16
-3.21317e-15
8.55182e-17
-3.39483e-15
3.6966e-16
-3.52371e-15
-2.41136e-16
-3.89098e-15
-3.99935e-16
-3.84259e-15
-3.92666e-16
-3.21442e-15
-4.52548e-16
-2.98244e-15
-1.12496e-16
-3.40612e-15
2.97139e-16
-4.19003e-15
4.89457e-16
-4.962e-15
6.82339e-16
-5.30982e-15
4.58662e-16
-5.44974e-15
2.27086e-16
-5.59532e-15
3.15267e-16
-5.43407e-15
1.22543e-16
-5.10117e-15
4.22208e-16
-4.91155e-15
5.17381e-16
-4.49075e-15
8.3572e-17
-3.81167e-15
-2.92993e-16
-3.51842e-15
-6.01176e-16
-3.59686e-15
-7.56631e-16
-3.77902e-15
-6.37779e-16
-3.967e-15
-6.66256e-16
-4.11957e-15
-6.99579e-16
-4.20676e-15
-1.95425e-16
-4.25074e-15
6.11499e-16
-4.05661e-15
2.32131e-16
-4.09049e-15
3.53579e-16
-4.01821e-15
7.37234e-16
-3.80216e-15
4.55338e-16
-3.90788e-15
1.49385e-16
-4.40522e-15
1.13881e-17
-4.797e-15
-5.38572e-17
-5.25681e-15
1.60954e-16
-5.68704e-15
2.67691e-16
-5.84013e-15
-3.40667e-16
-5.40406e-15
-1.03846e-15
-4.49418e-15
-7.27739e-16
-3.5704e-15
-1.87663e-16
-3.05638e-15
-3.08483e-16
-3.55851e-15
-1.54065e-16
-4.84637e-15
9.4717e-16
-5.71386e-15
6.68603e-16
-5.95511e-15
-1.64869e-16
-6.21359e-15
1.79247e-16
-6.16609e-15
3.69227e-16
-6.39601e-15
5.66007e-16
-6.41467e-15
3.47745e-16
-6.03109e-15
-3.08728e-16
-6.33607e-15
2.97577e-16
-6.28532e-15
2.16749e-16
-6.07129e-15
-2.46278e-16
-5.45953e-15
-6.49213e-16
-4.52221e-15
-8.64042e-16
-4.4164e-15
-5.66968e-16
-5.16419e-15
1.40733e-17
-5.40703e-15
-1.92553e-17
-5.14717e-15
-2.80713e-17
-4.98231e-15
9.03009e-17
-5.65748e-15
8.29847e-16
-7.15129e-15
6.84065e-16
-7.69697e-15
-6.57372e-16
-7.40471e-15
-4.97368e-16
-7.96433e-15
7.80973e-16
-9.32463e-15
1.86054e-15
-1.05091e-14
2.23516e-15
-1.06277e-14
1.63772e-15
-1.02127e-14
1.37887e-16
-1.01776e-14
-1.09743e-16
-8.31142e-15
-1.41074e-15
-5.75437e-15
-2.44174e-15
-4.1789e-15
-2.40047e-15
-3.903e-15
-1.85041e-15
-4.68296e-15
-9.16631e-16
-6.23845e-15
2.58963e-16
-7.11554e-15
1.93825e-16
-6.79958e-15
8.50102e-18
-5.99555e-15
1.9105e-17
-5.83619e-15
2.29855e-16
-6.01125e-15
8.09998e-16
-5.70452e-15
5.95393e-16
-5.39865e-15
-8.85586e-17
-5.34652e-15
3.41038e-16
-5.19397e-15
4.74623e-16
-5.10951e-15
-3.33819e-17
-5.63068e-15
-8.10396e-17
-6.76324e-15
5.29815e-16
-7.39235e-15
6.52407e-16
-6.95378e-15
1.15156e-17
-7.19635e-15
8.98982e-16
-8.39303e-15
1.60466e-15
-9.26673e-15
1.69743e-15
-8.4718e-15
1.12357e-15
-6.70253e-15
2.61495e-16
-5.60651e-15
-7.92629e-16
-5.46892e-15
-1.08405e-15
-5.12083e-15
-8.21583e-16
-5.29539e-15
-6.81047e-16
-6.36007e-15
-7.35179e-16
-7.82731e-15
3.46952e-16
-9.025e-15
-2.21099e-17
-8.64682e-15
-1.90699e-15
-7.16741e-15
-1.78545e-15
-6.46233e-15
-3.40537e-16
-5.95581e-15
-8.58227e-17
-5.87926e-15
3.65441e-16
-6.43617e-15
1.20598e-15
-7.1441e-15
1.92769e-15
-7.64331e-15
1.46126e-15
-8.24774e-15
4.35889e-16
-8.54807e-15
-4.52139e-16
-8.65701e-15
-1.53554e-16
-9.8279e-15
2.6247e-16
-9.75979e-15
-6.89474e-16
-8.42002e-15
-3.70688e-16
-8.36851e-15
6.55847e-16
-8.52202e-15
-3.33116e-17
-7.27945e-15
-8.83376e-16
-5.92319e-15
-5.79483e-16
-5.98263e-15
2.23819e-16
-7.13057e-15
5.31427e-16
-8.44328e-15
9.83348e-16
-9.4838e-15
9.77019e-16
-9.54005e-15
8.22593e-17
-8.65477e-15
-9.99469e-16
-8.71415e-15
-7.65893e-16
-9.16364e-15
-6.02418e-16
-8.83358e-15
-1.0877e-15
-7.30822e-15
-1.57142e-15
-6.41238e-15
-2.38448e-16
-7.36819e-15
1.55489e-15
-8.9812e-15
2.01661e-15
-1.01786e-14
1.44958e-15
-9.91006e-15