/*--------------------------------*- C++ -*----------------------------------*\
  =========                 |
  \\      /  F ield         | OpenFOAM: The Open Source CFD Toolbox
   \\    /   O peration     | Website:  https://openfoam.org
    \\  /    A nd           | Version:  7
     \\/     M anipulation  |
\*---------------------------------------------------------------------------*/
FoamFile
{
    version     2.0;
    format      ascii;
    class       volScalarField;
    location    "6000";
    object      rho;
}
// * * * * * * * * * * * * * * * * * * * * * * * * * * * * * * * * * * * * * //

dimensions      [1 -3 0 0 0 0 0];

internalField   nonuniform List<scalar> 
160000
(
22.4395
22.4388
19.6173
19.4776
17.5988
18.1527
24.8237
28.4151
23.4505
21.8423
20.5352
19.7501
19.8898
20.0936
20.2349
22.1874
23.8749
24.6019
24.6012
24.6004
23.8888
19.4275
20.07
21.9144
22.7267
18.7566
18.3197
18.2783
17.9168
17.9162
21.6545
25.1556
25.1549
24.4352
24.2594
19.5786
19.6215
19.6209
19.6203
23.112
23.4327
23.5077
18.7291
18.0326
17.9635
17.6903
25.3214
26.1609
26.1601
25.5457
18.8235
17.0772
16.9463
16.872
16.8715
16.8709
22.6178
22.6172
20.1705
20.1404
21.3831
22.2635
22.4994
22.4987
21.7926
22.2711
22.2703
22.2444
22.1485
16.304
16.3034
16.3029
16.3023
16.3018
19.8844
22.7139
23.4207
23.2168
23.4545
23.4528
23.6301
23.8119
23.8112
21.8718
20.6238
20.6231
20.6225
20.6117
20.6679
20.6673
20.6017
20.6011
20.6005
20.7063
20.7058
20.0766
20.076
23.4406
23.6114
23.5208
23.5949
21.8731
21.8724
21.8718
19.6028
19.6021
19.6017
19.601
19.6005
20.9781
24.5094
24.2646
24.2774
24.2768
21.9082
21.9077
20.2849
19.1341
20.1319
25.2554
25.1823
23.4029
23.4025
23.4014
23.4013
23.4001
24.7771
24.9376
24.9371
24.9364
24.9358
21.877
20.4164
20.4158
20.4152
20.4147
20.993
20.9925
20.9919
20.6231
20.8334
20.8325
20.2536
20.2528
20.2526
20.2517
20.2518
20.2507
23.2479
23.2472
19.5638
19.5633
19.5626
19.5623
19.35
19.3496
19.3487
21.6286
21.6281
21.6277
19.688
19.8562
20.7242
21.9478
20.7659
18.7375
18.7371
16.7528
16.7524
16.752
18.5236
28.2712
28.2701
28.2698
28.269
21.671
21.6706
23.3975
24.3396
24.3403
24.3386
24.3382
24.3374
20.5238
19.494
19.4275
19.4272
18.4276
12.8065
12.6344
16.455
18.3363
20.113
22.1948
22.1951
15.204
11.4973
18.7233
54.1369
54.1443
54.1353
54.1361
36.0861
19.8525
16.5344
16.5337
18.4495
27.1116
27.1101
26.9176
26.9172
26.7
25.2076
24.0925
23.3971
22.2558
20.63
20.8243
28.2633
28.2587
28.2619
28.2587
26.7431
18.7173
17.9669
17.9668
17.9653
17.9664
17.9648
20.4701
20.9841
21.1834
20.2081
20.2083
20.207
20.2077
20.2064
25.7377
25.865
25.8637
25.8637
20.647
18.9355
15.3525
12.2559
8.41987
7.32531
10.8871
32.1984
55.9716
55.9536
55.9583
51.0119
35.2866
24.0794
21.5135
20.4134
16.104
16.6304
24.9435
24.9478
24.943
24.9437
19.1491
17.4958
18.1993
18.1993
17.2349
14.9544
14.9549
26.3253
28.6676
28.6656
28.6672
25.6002
16.3415
16.3412
16.3397
19.9008
19.8988
19.7317
16.3413
16.3414
16.3413
17.7817
29.5105
29.5057
29.5063
24.0651
22.778
22.7777
18.3877
18.3878
21.406
22.9493
22.9488
21.4292
10.6419
7.00079
5.32619
5.32553
6.36361
65.6212
65.647
65.6205
65.6409
65.6197
46.6052
31.36
20.9958
17.4692
16.3463
15.3415
15.3414
20.7478
26.488
26.4819
26.4873
21.5544
14.362
11.3825
9.52528
8.51574
8.51651
8.51441
8.5168
12.5989
22.3892
30.6629
30.6625
30.6137
30.6129
30.6122
30.6115
28.4308
24.7551
19.4816
18.1753
20.9267
22.7803
22.7769
22.7795
22.7767
15.5946
15.5657
15.5659
15.5652
15.5671
28.5414
28.5529
28.5411
27.6522
20.0508
18.9073
18.906
18.907
25.2372
25.3123
25.3156
25.3122
24.0502
18.9686
18.9682
18.9685
18.9657
18.9684
18.9633
18.9683
18.9632
24.2405
25.7429
25.7453
25.7428
25.7452
25.2805
25.2809
23.6604
20.2282
20.0469
20.0468
20.0468
21.4754
20.6644
20.664
20.6633
22.4663
22.4663
22.4663
21.1612
17.2061
16.7894
15.2485
15.2486
15.5433
13.0451
13.8309
28.4876
47.19
195.564
195.615
20.9637
20.898
25.3908
20.318
18.5683
18.1675
18.4423
19.8045
21.1423
21.8572
21.8565
21.0703
19.8643
20.068
20.0673
22.0403
23.7447
20.4697
20.1199
19.9598
20.2582
19.6499
23.9478
23.947
22.7914
18.562
18.202
17.9174
17.9168
22.0829
21.7946
21.9856
23.8685
24.7233
24.4163
19.6229
19.4009
19.4003
20.5362
23.6081
23.6073
23.2313
21.5921
18.049
17.7365
17.6536
17.653
20.7676
26.1602
25.684
21.5831
17.9373
21.959
21.9583
21.5686
19.5914
22.5532
21.1728
20.0665
20.0488
20.0482
22.2891
22.2884
21.526
21.5244
21.5173
19.6504
19.6498
19.6189
20.4321
20.4463
20.4456
18.0084
19.3148
23.0503
23.4168
23.4161
21.9289
19.259
19.4062
23.5246
21.507
20.9133
20.9127
20.912
21.0601
21.0594
20.6036
20.6029
20.6023
20.6017
20.6071
20.8929
20.8923
20.0772
20.0766
23.2878
23.5971
23.6114
23.0837
23.5949
23.5942
18.5631
18.5625
21.8085
19.6022
22.5595
24.5114
24.5107
24.5101
24.5094
21.3771
19.736
19.3652
19.2244
19.2238
19.1346
19.134
21.4802
25.4397
25.4389
25.4384
25.4376
25.437
24.9016
24.9322
24.9315
24.9295
24.937
24.9364
24.9358
20.417
20.4164
20.4158
21.3757
20.2562
20.9929
20.9925
20.2555
20.2551
20.2546
20.2541
20.2535
20.8029
22.3102
22.3096
23.5301
23.5296
23.4895
20.6819
20.6814
20.6809
19.3511
19.3503
19.3501
19.3492
19.3491
19.3484
19.1286
19.1281
19.1275
20.407
21.9483
21.9479
18.8276
18.8272
18.9885
17.1507
16.9552
20.4574
25.2203
28.2706
22.3211
22.3205
22.4417
24.0507
24.3407
24.3401
24.3398
24.3391
24.3388
24.3381
23.1027
14.943
15.0943
15.4865
13.0478
8.13393
6.77253
8.42396
24.3968
41.7021
32.7162
20.1434
13.2166
11.4976
11.4973
14.7467
53.4014
54.136
54.1369
39.4459
24.314
16.7962
16.5364
23.5762
27.112
27.1106
27.1111
27.1097
27.1094
23.9101
20.8671
21.4366
22.1363
20.63
20.6298
24.7993
28.2586
28.2595
28.2583
24.4932
19.3268
17.9675
17.9673
17.9658
17.9667
17.9649
17.9663
17.9645
20.2323
26.9886
26.9894
26.9879
26.988
23.359
25.8647
25.8654
25.8641
25.8639
21.8255
14.6859
13.5773
12.2358
7.28235
6.61933
6.61984
22.6406
55.9725
55.9545
55.9674
51.4043
34.5237
29.7841
25.7477
19.8449
16.1037
16.1035
20.6685
24.9487
24.9438
24.944
19.1336
17.496
17.4957
17.4955
17.7917
14.4653
14.9542
28.6663
28.6688
28.6658
28.6676
28.6653
20.5755
16.3417
16.3397
16.3414
16.3395
16.3412
16.3395
16.3409
21.7979
29.5076
29.5113
29.5065
29.5077
28.6557
24.1828
19.9614
16.2882
17.603
21.6545
21.6545
13.1962
9.71684
9.65032
7.41105
5.32625
5.32525
5.3261
25.7904
65.6467
65.6208
65.6243
46.6409
31.946
24.6864
20.825
17.1813
15.3409
15.3408
15.3407
21.424
26.4883
26.4819
26.4851
21.0747
13.216
10.5662
9.16325
8.51725
8.51684
14.7854
32.9665
32.9658
32.9659
30.6642
30.6636
28.3899
21.3201
19.9177
22.4703
23.2546
23.8167
23.1398
19.1567
18.1751
20.4591
20.7279
19.9733
19.9715
22.7754
15.5678
15.566
15.5656
15.8632
28.5414
28.5531
28.5413
28.5429
23.5393
18.9073
18.9061
18.9071
18.9058
18.9069
18.9054
20.838
25.3091
23.7187
20.4717
18.9685
18.9661
26.4924
26.4901
26.4957
26.4898
26.4915
24.6712
23.6795
24.0468
23.9619
20.8431
20.3128
20.1425
20.142
20.1424
21.8239
23.3916
23.6789
23.6784
23.6787
23.6788
20.5528
20.69
22.2305
16.954
16.1116
16.1111
16.1115
15.5444
15.5443
15.5442
13.0449
15.0417
19.9838
40.4378
118.866
195.667
20.9891
20.898
25.3908
24.3109
24.2722
19.7206
19.9435
22.0133
21.0667
21.4471
21.1378
20.5643
19.8643
20.1758
20.1751
21.7512
23.8907
23.8899
20.095
19.9598
19.9591
22.9775
23.5404
21.3854
21.2639
21.2633
21.2452
20.3357
22.471
22.4702
19.5119
21.1302
23.7494
24.7232
21.2961
19.8039
22.7972
22.7151
22.0083
19.668
19.1665
19.2353
20.8144
21.5753
22.0428
21.5079
19.5046
19.55
19.8377
22.5961
21.8399
19.6735
19.4209
19.4206
19.4199
19.5148
21.4107
24.0135
24.0128
23.5447
18.4678
18.4678
22.2298
22.0832
22.0658
22.2071
22.2064
22.0361
19.6189
19.6321
19.4859
19.4853
20.2055
20.2049
19.2615
19.2609
19.2603
19.2599
19.259
21.5114
23.0826
23.3816
23.381
22.567
21.0557
19.3598
20.1471
21.8724
21.8717
20.6023
20.6017
20.692
20.2308
20.2302
20.2057
17.9231
17.9226
17.9221
18.8222
19.3169
18.9486
22.1689
20.188
18.3313
21.8085
24.484
24.5953
21.7356
21.735
21.7343
21.7337
21.7331
22.4246
20.5668
20.5663
20.296
19.1345
20.9595
24.2719
24.5244
21.3065
20.4558
20.4553
20.6536
22.5512
21.4808
19.8873
19.8876
19.9967
20.3024
21.416
24.4656
24.4648
24.2673
21.381
20.2561
20.2556
20.2552
20.2555
20.255
22.166
22.5996
22.5992
20.0864
20.0857
20.0853
20.3637
23.5068
23.5063
19.8871
19.8866
19.8861
19.8855
21.2748
21.2742
21.2573
20.9675
22.3992
22.3987
22.318
19.1275
19.1271
19.1267
22.4234
22.4231
22.3154
18.9887
14.18
14.2864
21.2993
28.271
28.271
28.2698
28.2694
21.2617
20.4254
20.4249
20.4244
20.4239
23.561
24.3377
21.4174
17.6949
14.9431
10.5017
7.65042
6.7723
6.77209
6.77184
23.9877
59.8495
53.7586
36.0855
22.9114
15.3336
11.5487
11.4973
12.6632
22.5316
30.8093
28.4978
20.0605
16.9276
18.5083
23.1321
27.112
27.1112
25.0518
24.4869
24.4868
25.0184
20.6995
20.6307
20.6307
20.6297
20.63
22.9921
26.236
26.236
20.5809
18.9492
18.9489
18.9486
20.0325
23.3075
21.439
18.3528
17.9666
20.5822
23.8439
25.2579
26.9899
26.9882
22.4302
18.0149
21.725
23.4672
21.2863
20.8405
20.8401
20.8399
18.3063
11.504
7.14443
6.61987
6.62
6.61912
22.2017
55.9551
55.9716
55.954
31.8321
23.0932
19.8393
18.2478
16.6482
16.1037
16.1035
18.2688
24.9435
24.4807
18.4164
17.3901
17.8556
18.3283
15.8948
13.9478
14.4648
23.3332
28.3815
23.7129
22.9188
22.9184
22.9183
20.1963
16.5063
16.3415
16.3397
18.1927
24.7075
29.5099
29.51
29.509
29.5091
26.4339
22.0262
23.3226
25.1186
22.3715
16.6792
11.2764
7.81628
5.90874
5.32567
5.32466
5.32563
5.32507
5.32564
5.32467
7.74884
40.4541
65.6272
65.6212
44.136
27.3646
22.5243
22.5244
23.2987
19.688
15.9012
15.5557
17.1392
19.0312
23.2193
26.3609
22.4608
16.0602
13.3033
12.06
10.1037
9.16326
12.1182
27.1824
32.9667
32.9665
32.9664
31.2839
25.3516
24.5999
22.7892
19.6879
19.6874
23.2038
23.2043
21.1224
19.76
18.0573
18.0573
18.0572
19.4737
20.6585
18.6329
16.0056
16.0046
22.5104
28.3036
28.5414
28.5517
28.5414
28.5417
23.0018
22.844
23.17
23.1705
23.1698
20.6717
18.9063
21.5663
23.0275
23.0278
19.8221
18.9686
18.9676
19.0326
26.4902
26.4929
26.0019
24.9652
22.1027
17.7104
17.7106
23.2505
30.1999
30.1978
30.1996
30.1972
30.198
26.2536
20.0948
20.0944
20.0948
20.0932
20.0948
20.093
20.5526
19.4248
19.4243
19.4239
19.9191
19.3926
14.7177
14.7175
14.7171
14.702
15.4059
16.4569
16.7315
37.2064
145.822
195.719
21.1175
23.4378
23.0088
23.1543
23.9906
23.5574
22.0173
22.0159
21.0667
21.7518
21.7511
21.7505
20.8833
20.1757
20.1879
19.8534
19.9594
19.9209
19.9568
20.507
20.0307
19.6854
19.6181
21.2554
22.9264
22.9257
22.3202
22.1965
22.0322
18.0472
18.0466
18.0465
18.1219
18.1212
18.7448
23.256
23.2553
20.9055
19.5305
19.2248
19.1622
19.1615
19.1833
19.8551
22.0428
21.9077
21.907
21.7411
21.1327
19.8329
19.6828
19.4179
19.4173
19.8092
19.8085
19.7963
19.1503
19.0963
18.5006
18.4581
18.4575
18.4987
22.964
20.4231
20.4225
20.5383
18.0081
15.6362
22.1934
22.1928
21.8578
17.2553
16.5197
20.8534
22.6412
22.6485
22.652
22.669
22.6683
19.3635
19.3629
19.3622
19.3616
19.361
19.3605
19.3598
19.3592
19.3586
21.653
21.6523
20.6015
20.7306
20.73
19.9642
18.7455
21.6241
20.7975
17.922
17.9215
17.9209
17.8278
14.5169
14.5164
16.4468
20.6799
24.7828
25.0898
25.0891
25.106
25.1054
22.358
22.4252
22.4246
19.6162
19.1356
19.135
19.1345
19.1339
22.8702
22.6269
20.8779
20.8774
20.8768
19.5085
19.5081
19.5074
19.8725
19.9247
19.9242
20.8377
21.0725
21.2042
19.3935
17.7726
16.5015
19.6667
21.3736
23.0801
23.5185
25.7436
26.6182
22.5994
20.0869
20.086
20.0858
20.0849
20.0847
23.3323
21.8568
21.8564
21.8558
21.8554
21.2532
18.8579
18.2878
18.2872
18.2868
18.2862
18.2858
18.0436
19.1273
20.6963
23.6845
25.5362
21.0471
15.9184
13.8595
13.6984
13.8438
25.5974
28.2713
25.548
23.1316
24.4268
24.4263
24.4257
24.4249
20.966
17.8958
20.1715
24.1062
19.012
12.3103
10.1271
8.62561
7.34088
6.7723
11.8987
40.9478
76.6918
73.0542
49.0398
34.623
31.425
26.0465
16.884
11.8513
11.8794
15.3718
20.7992
20.8129
12.6103
12.6102
13.3976
21.7765
27.1116
27.1116
25.8548
25.5369
25.5361
22.6709
20.6312
20.631
22.9265
26.2786
26.2781
25.3039
23.3075
20.7095
18.9495
18.9492
18.9489
22.6053
27.3398
27.3394
27.3391
23.1458
20.4669
20.0934
20.0934
20.0927
22.5731
21.4072
15.3366
14.2499
19.9492
24.8569
26.4788
26.4785
23.905
18.868
12.4623
8.08297
6.62012
6.62017
6.61931
10.0096
55.9553
55.9721
55.9546
33.5884
23.7896
20.3716
17.1364
16.1516
16.1513
16.1506
20.1622
23.4802
24.7176
20.8668
17.3903
17.3901
17.3899
21.764
19.2325
13.9478
13.7406
15.4348
25.4744
28.0166
28.0163
28.0161
25.4299
16.5441
16.3419
16.3408
16.352
27.1263
30.4622
30.4614
27.3989
23.0453
22.0268
22.0269
22.0264
21.4211
21.1329
19.6885
16.0359
9.95553
5.80331
5.3257
5.32508
5.32557
7.21513
24.0624
38.4751
46.4803
46.4811
46.4776
28.2018
26.2254
24.4216
27.39
27.3907
27.3897
27.377
23.4255
20.7567
19.959
18.0833
17.9709
18.2623
23.7263
23.1044
18.9724
14.2214
10.4063
10.1037
10.5296
20.4808
32.9667
32.9665
32.9663
25.2768
18.8243
17.0699
19.4074
23.0467
21.0739
16.9053
14.6506
14.6505
14.6501
14.6503
21.1003
29.1852
32.2894
32.2883
29.7566
21.5797
16.7469
16.0055
17.6349
28.5411
28.5449
28.5413
27.4117
25.7643
22.9081
22.2325
21.9409
21.9407
22.0096
20.8708
18.3317
17.1577
17.1574
17.1576
21.2764
24.8882
21.7575
18.1967
18.1966
18.0398
15.4485
14.647
18.2625
17.7099
18.4891
20.53
26.0392
30.199
30.1977
30.1991
29.956
23.1073
20.0947
20.0979
20.096
20.0948
20.0932
20.0948
21.6089
23.6992
23.699
23.6991
19.9189
19.9184
21.226
17.2491
13.4602
13.4593
13.4602
13.4588
15.6576
34.3085
142.316
195.77
23.1095
24.1595
22.7931
22.5506
22.3134
21.8858
20.542
20.8943
20.9704
20.4597
20.8853
20.3316
20.8834
20.5491
20.2509
19.8534
20.4624
19.8831
20.1257
20.5069
20.0295
20.5409
19.6181
19.8802
19.2277
19.2271
19.2999
18.8157
18.8527
23.2856
23.2848
22.7508
23.8098
23.6358
17.5795
17.3487
17.181
17.2053
20.437
23.6653
20.8308
23.9033
23.4349
20.5699
19.9954
19.9948
19.9942
20.2702
20.7454
20.3464
20.3064
20.1889
19.9022
19.142
19.1414
19.1408
19.1402
21.0743
20.8516
18.6295
18.6844
23.6945
26.1507
26.1499
26.1227
26.2714
26.0511
15.5879
15.5088
15.5032
15.5027
15.51
15.5728
18.4846
20.3248
22.6329
22.0146
22.0166
22.5208
22.5184
22.2651
19.3623
19.3616
20.0167
20.9878
20.9872
20.7789
19.1675
18.8493
18.8487
18.8459
18.2135
18.213
18.2124
18.7454
23.9418
23.941
23.9405
23.9397
23.9392
23.9384
14.5169
14.5164
14.516
14.5153
14.9053
24.7518
24.1851
22.7588
23.2172
22.3584
22.3578
22.4246
22.424
22.4234
21.6667
19.1345
19.1339
20.1401
19.0845
20.6531
19.7637
18.7334
19.8125
20.2501
20.2496
19.3816
19.3811
19.8796
26.5518
26.5505
26.5505
26.5493
26.5487
14.322
14.3214
14.3212
14.3204
14.4192
24.6638
26.6181
26.6176
26.5841
22.1685
20.2178
20.2173
19.3899
18.6066
18.6061
18.6056
18.6051
18.6045
21.5056
23.1614
23.1605
23.1604
23.1594
20.0712
16.602
16.6011
16.6011
16.6002
20.1198
28.5684
28.5679
20.0719
25.4976
13.6983
13.698
14.2904
22.5077
24.575
23.1316
20.3807
21.2556
23.4125
22.6614
20.1574
17.6338
16.2001
16.1995
18.8437
16.1401
12.1265
13.3688
23.2927
48.7001
92.6349
92.6285
82.3583
50.7981
31.2119
26.319
27.8121
26.1285
18.5796
17.468
24.3589
24.3578
24.3579
24.3564
12.6103
12.6097
12.6099
12.6091
26.0421
27.1111
23.0716
21.4276
21.4
21.3995
25.2822
26.2801
26.2796
26.2791
21.6533
19.0704
19.07
19.0696
19.069
21.7157
22.0208
23.9862
27.3398
27.3394
23.2864
20.6696
20.6684
24.3417
24.3398
24.341
24.3391
23.188
19.0775
11.0845
16.7372
19.7395
15.6016
12.8272
12.154
12.2535
11.0124
8.05281
6.92133
10.6405
24.1173
48.7912
55.9638
55.9548
36.6265
22.6915
18.3182
17.1537
17.1363
17.9237
21.738
23.9731
23.9724
23.9717
22.2506
18.9762
17.4631
18.8601
23.5814
23.5817
20.6077
19.1799
13.7402
13.7404
13.7402
18.7758
27.6677
21.7192
16.5447
16.5442
18.0909
30.4636
30.4626
30.4637
30.462
26.706
23.3341
23.1411
22.1222
19.9806
19.9805
19.9803
20.6906
20.6904
14.6307
7.92016
5.32615
5.32514
7.81749
24.2828
51.4534
51.4659
51.4525
51.4602
37.3774
21.0232
13.0399
13.0398
13.0397
23.2198
27.3899
27.3905
22.1838
17.9712
17.9712
17.9698
17.971
17.9675
17.9707
17.9669
19.5185
15.5647
13.2565
12.7369
15.5665
25.5141
32.9667
32.9667
32.9665
27.7696
17.8904
15.7437
15.9557
24.2729
25.6998
25.6944
25.6951
18.9944
18.9933
14.6501
14.6498
14.6499
14.6483
26.2317
27.9391
23.6181
23.6168
28.5277
28.5409
28.5403
28.5417
24.1998
20.4522
19.734
19.5167
19.2537
20.3527
24.1457
24.1457
23.5279
19.3543
17.5279
17.1738
17.1576
17.1573
17.7681
25.7093
25.7082
25.7112
25.709
23.6032
25.7041
14.3355
14.3345
14.3361
14.3342
21.3055
29.4027
30.1987
26.7275
20.0939
20.0949
20.0937
20.0948
20.0931
20.0947
20.0925
22.0267
22.0236
20.3682
17.7702
17.7689
22.2509
22.251
20.7453
21.2259
21.226
21.226
20.0781
13.4597
14.3358
21.1772
42.2537
88.7839
195.822
21.0156
22.7149
21.7426
20.9905
20.3199
20.3193
20.3186
20.318
20.3174
20.4597
20.3322
20.3316
20.6073
20.5875
21.5774
22.064
21.3446
19.8831
19.9302
19.9232
19.9225
21.6837
21.6829
19.7811
19.8389
19.9704
18.793
18.8072
18.5418
20.5928
23.051
23.1348
23.8097
23.2777
17.4552
16.9422
16.9417
17.0829
17.5722
23.8351
24.7407
24.6373
21.6766
20.1186
20.0687
21.1208
20.9083
19.8805
19.7236
20.5304
20.5296
19.1432
19.1426
19.142
19.1414
19.1987
21.8542
21.8535
20.4707
20.4296
20.8838
21.6928
26.1367
26.1432
26.243
26.2714
26.1013
16.6911
15.5381
15.5032
19.8383
24.0256
24.0249
22.0733
20.3249
21.9774
22.0145
22.0245
20.7581
19.3738
19.3709
19.3697
19.363
19.3111
19.3105
19.3099
19.3092
22.0763
22.0757
21.9144
18.2141
18.2135
19.5196
21.0933
21.3114
22.4271
19.4152
20.4052
23.9398
23.9391
22.5263
14.5169
14.5164
14.5159
17.7821
22.7823
21.5646
21.5639
21.5634
23.2514
23.2508
22.8507
19.7251
19.9482
21.8501
21.8495
21.1327
18.6801
18.6796
18.6789
18.6785
18.6778
18.6774
18.6768
19.6294
19.5902
22.0729
26.5522
26.5526
26.5511
26.5514
26.5502
26.5495
25.5967
14.3219
14.3216
14.3209
14.3207
20.0488
23.9367
23.8892
22.7447
23.552
23.5514
22.4003
19.8674
19.8668
21.5669
21.5663
21.2174
18.7752
18.6044
18.604
19.1435
22.7432
21.1447
17.7398
16.6024
16.6017
16.6016
16.6008
27.3142
28.5702
28.5687
28.5693
28.5675
28.5665
13.6983
13.698
16.1401
20.3699
20.3697
20.3694
20.3744
22.6372
22.8223
21.4941
19.1032
16.9036
16.642
15.1334
10.0826
6.07492
6.48196
16.4717
54.9484
92.6389
92.6298
90.25
42.3402
23.5146
20.3474
20.329
23.4707
26.128
24.3593
23.6941
24.3586
24.3587
24.3574
24.3571
12.6099
12.61
12.6091
12.6095
24.6379
26.9425
24.2649
22.2318
21.3999
21.8464
26.2808
26.2803
26.2798
25.9271
22.0374
19.071
20.1512
22.5654
22.565
22.557
19.4615
19.1574
19.1571
19.1568
19.2016
20.9853
24.0219
24.3401
24.3414
24.3395
21.6402
14.8155
16.6211
9.33842
11.9774
12.5791
10.9382
11.2206
12.0842
11.3184
9.2235
9.13868
13.3129
24.4283
39.9974
45.651
43.2963
37.9661
26.0513
18.3543
16.9809
17.092
22.2913
23.9732
23.9738
23.9727
23.9727
20.9942
17.3632
17.363
17.3628
19.0981
23.5823
23.5812
19.2209
19.2215
13.7402
13.74
16.7272
22.4803
22.4805
18.7224
16.5449
16.5445
17.092
30.4626
30.4634
27.2544
24.3023
23.9186
23.9174
23.9181
23.9171
23.9175
23.9165
21.066
16.7446
13.6116
9.70032
6.23952
5.32579
6.13216
19.2539
51.4537
51.4609
51.4531
49.8459
42.4752
18.8887
17.4229
13.0399
13.0398
13.0395
16.8092
27.3901
27.3307
19.7579
17.9714
17.9705
21.6507
28.1914
28.1943
28.1907
28.1932
22.0298
14.408
12.7376
12.7372
16.1943
22.5437
29.4103
30.1311
23.5269
17.4811
15.7438
15.7441
15.744
21.9267
25.6945
25.6998
25.6954
18.8713
18.8722
14.6501
14.6502
14.6496
16.6839
27.3758
23.6557
23.6186
23.618
24.6273
24.6269
24.6266
28.4826
28.5788
21.7924
19.2528
19.2537
19.2492
19.2536
24.0651
24.1456
24.1456
23.4479
20.876
19.7884
18.9654
19.2468
22.99
25.7083
25.715
25.7091
25.714
25.709
25.7087
14.3347
14.3355
14.3338
14.3355
17.6785
23.7173
30.1996
32.6786
32.6819
32.6784
30.9072
26.3667
24.7175
26.0778
26.0777
22.1556
20.2505
20.3678
18.4723
17.7692
17.7688
17.7681
17.7678
17.768
17.7679
17.7685
15.0493
13.4604
16.9038
40.7999
100.798
195.822
195.873
23.6656
20.2535
20.9933
20.3658
20.3651
22.2206
22.2199
21.1258
20.3174
21.9577
20.436
20.7935
21.6516
21.6509
21.5722
22.0641
19.9372
19.9366
19.9705
21.4649
22.3068
21.5017
19.7817
19.7811
20.5622
19.9703
18.793
18.8811
18.5418
20.4555
23.4432
23.1263
22.5661
23.2855
17.6279
17.8006
17.0618
19.4074
20.3377
21.2549
24.7566
24.7559
22.7269
21.2975
22.5962
22.3761
19.347
19.3464
19.3458
19.5122
19.1439
19.1432
19.2731
20.0733
20.1896
20.4996
21.8542
21.8257
20.81
19.9268
19.1605
19.8865
26.045
26.0735
25.6797
20.6984
25.4504
15.5219
15.5564
15.5462
15.5946
15.6906
17.7981
24.5042
24.5034
23.6612
21.4066
22.0517
22.0511
21.9744
21.9737
21.2099
19.3117
19.3111
19.325
19.3244
19.3092
18.6323
18.6205
18.6199
18.2654
18.773
21.0948
21.0942
20.5872
19.4157
19.4152
22.7107
23.9397
22.3448
22.3443
14.5169
14.5164
14.516
19.486
25.2619
25.2613
21.5639
21.5633
21.5627
20.095
19.7257
19.7251
21.8507
21.8501
20.5501
18.9884
18.9879
24.1582
24.1577
24.1569
23.5842
19.512
18.1675
18.1668
18.1665
18.1658
19.555
22.1591
25.5188
26.5505
26.5501
23.3278
23.4231
14.322
14.3215
14.3212
15.5654
24.861
24.8604
21.9084
21.6194
21.6188
21.6184
21.7113
23.6268
23.6263
21.2367
18.6058
18.6054
18.6048
18.6044
18.6039
19.089
22.7373
21.1213
17.2625
16.6022
16.602
18.2975
28.5696
28.5703
28.5687
28.5692
28.5681
28.5673
28.1267
13.6982
13.6979
13.6976
21.3881
23.0198
20.3696
20.762
26.3397
26.3392
25.5431
22.5181
18.5005
14.017
8.89501
4.54684
2.34435
2.94757
11.0068
49.2658
92.6311
79.5583
48.0681
29.8
23.2321
20.0704
17.7134
17.7126
24.3606
24.3606
24.3594
24.3594
24.3581
24.3579
24.3567
12.61
12.6095
12.6097
12.6085
14.1696
26.5377
26.7772
23.0724
21.6987
26.4055
26.4049
25.0968
24.751
25.9267
23.9964
19.9153
19.7541
19.7537
19.7533
19.7529
19.7243
19.5401
19.1571
19.1568
21.2101
23.8859
24.0209
23.3767
24.1012
24.3393
22.1691
14.5098
14.9863
8.97384
8.97334
8.97378
8.97265
8.97359
12.0857
16.1538
16.5107
16.9723
20.0187
26.6232
34.8725
38.3551
34.3688
26.4542
19.9095
17.0804
16.9808
16.9807
16.98
16.9802
16.9788
20.5912
23.9721
23.9721
23.584
23.5835
23.5829
23.5834
23.5818
23.582
23.581
23.581
13.7398
13.74
13.7397
19.4876
22.2973
19.3546
16.545
16.9832
25.0222
29.7914
29.1712
28.6098
28.6094
27.6284
23.4972
20.8912
20.8909
23.2733
22.8483
19.1991
14.3769
10.253
7.29629
5.32636
5.32623
5.9258
23.8173
51.4587
50.3884
32.9461
29.085
28.6677
18.3033
18.3024
13.0399
13.0398
15.4257
21.0532
23.0956
22.6836
19.6092
20.3845
28.1936
28.1917
28.193
25.6126
22.4124
20.628
19.8231
19.823
19.9093
18.8199
18.4175
19.3259
23.4796
28.9676
26.3367
19.3823
15.7442
15.7437
19.2768
25.6945
25.7015
25.6955
25.7001
25.6953
25.0723
14.6503
14.65
14.6501
15.5247
27.5558
23.6199
23.6191
23.6321
29.7056
29.214
28.9378
28.9375
28.9372
22.7202
19.2538
19.249
19.2537
19.2508
21.7061
22.2185
20.6833
20.1072
20.1071
20.1071
19.2643
19.8461
24.0584
25.7133
25.7082
25.7141
25.709
25.7093
25.7071
14.3356
14.3347
14.4503
22.5189
23.4671
23.4678
25.8905
32.6791
30.3545
22.9325
22.8445
26.0804
26.0802
26.0799
20.7359
18.5166
18.5165
18.6607
18.4724
18.5087
21.6432
21.6442
21.6431
21.0633
21.0634
21.0636
18.524
13.7002
15.7556
30.854
134.75
195.873
195.925
20.5217
20.2535
20.2529
21.1965
21.1605
20.999
20.9984
20.9616
22.0451
22.0444
20.9544
20.5382
20.8587
20.2059
20.172
20.138
20.1374
21.9171
21.9164
21.0665
22.3069
21.3646
20.9964
21.5005
21.6479
21.444
20.7616
19.8766
18.8149
22.727
23.4431
20.8734
19.4415
19.0053
18.9924
21.9171
21.9165
20.3696
19.2865
20.5783
21.1987
21.2155
21.048
21.0473
23.0412
23.3773
23.428
23.4272
23.0368
22.9116
21.6983
21.4807
21.1854
19.3554
19.3026
19.1635
19.1629
19.1623
19.1617
19.1611
19.1604
19.2768
22.7189
21.7747
17.4284
15.6597
15.5402
15.5219
19.6672
23.1466
26.674
27.3704
27.3697
22.6425
20.0642
20.0636
20.0601
20.021
20.0196
20.0189
20.0184
20.5112
21.474
21.4733
20.52
19.3099
19.3093
21.4696
22.6733
19.3468
18.2882
18.2877
18.3178
18.4091
19.7522
22.7352
22.2288
22.2282
23.0857
23.085
21.9534
14.7182
19.4762
19.4756
19.5551
20.2055
21.7104
23.4682
23.4675
23.4669
23.4091
20.8067
19.0795
19.0631
19.0626
19.0622
19.7106
23.8686
23.868
20.7844
20.7838
20.7832
20.7827
21.4961
21.4957
20.8224
18.166
18.1653
20.1715
26.4952
20.94
14.8602
14.5585
14.558
14.5573
22.8456
25.0354
25.0349
24.031
21.9839
22.1964
22.8234
23.6287
23.6281
23.6276
23.627
19.8527
18.6064
18.6059
19.316
19.3156
18.6044
18.6039
18.6129
21.9218
21.1386
19.1374
18.575
18.9883
21.6986
24.5381
22.1187
17.9404
17.9399
17.9396
18.8932
16.4454
13.6979
21.3137
24.1314
24.1308
23.0199
24.6909
27.2989
27.2984
21.8347
20.3824
19.2949
13.3451
6.65629
3.34442
2.34453
2.34437
2.37185
10.4539
47.0863
63.5072
36.3619
24.5716
24.2257
24.2251
22.7007
18.1811
17.699
17.6986
17.6981
17.6977
17.889
17.5742
17.5736
17.3827
12.61
12.6101
12.6093
12.6097
13.841
25.9376
26.779
26.7768
26.777
26.776
23.0791
20.1566
20.1562
20.1558
20.1555
20.2185
22.1444
22.8812
22.8809
21.9601
19.2224
19.1576
19.1571
21.3099
21.3096
20.5547
17.5509
17.5506
17.5503
16.9402
14.7517
13.0535
11.9914
9.25662
11.6008
12.5216
14.2378
16.1972
18.3017
19.4089
21.0288
22.1185
20.1423
18.5442
19.246
24.4858
25.6894
23.8391
23.201
20.4517
17.2834
16.9805
16.9805
16.979
16.98
16.9785
17.3412
20.619
23.4299
23.5831
21.5824
17.1893
15.6357
15.6354
15.6352
15.6353
13.7399
13.7397
20.1207
24.4283
24.4281
22.9319
20.0587
21.2979
24.316
24.7263
22.2395
20.3798
20.3796
23.0326
23.493
21.4317
19.1478
16.4105
14.0992
14.0987
14.0984
13.9785
10.1896
6.44008
5.78213
11.1869
37.6794
51.4537
40.9322
19.5092
14.2201
14.2198
14.2196
17.1809
20.4145
21.4722
21.4723
19.6097
19.61
19.6082
19.6096
20.3791
28.1919
28.1937
26.459
20.5638
20.2607
23.6301
23.6299
23.6299
19.9094
18.4172
18.4178
18.4156
18.4178
18.4162
21.9019
18.0533
15.744
16.797
21.7064
25.6946
22.724
15.672
15.1968
15.1966
15.1966
14.6503
14.6504
14.6496
33.1819
33.642
33.4214
33.4205
33.4199
33.4194
27.0494
24.9361
24.8688
22.4559
19.4122
19.2533
19.2537
19.2514
19.2537
20.6289
20.6302
20.6302
22.8809
22.9039
22.9033
22.9037
21.5245
18.5154
18.515
19.3841
24.3561
21.9496
17.0825
14.52
14.3356
16.4162
25.4789
25.9804
24.274
28.8664
35.0583
35.0584
35.0582
26.9014
22.8442
23.5229
23.8303
19.6557
18.5166
18.5166
18.516
18.4736
18.4726
21.2028
21.6445
19.9457
18.4754
18.4755
18.8047
18.7741
16.6132
16.6115
24.592
38.3242
95.415
195.925
195.977
21.2862
20.5681
20.4484
21.1965
21.0373
21.3699
20.9623
20.9616
20.5299
20.225
20.8816
20.4701
20.8215
20.733
20.172
20.1885
20.5737
20.7361
21.077
21.0264
21.5204
21.3645
21.8753
21.7887
21.6478
21.9577
21.9571
20.2594
21.6682
23.8502
23.8495
22.5467
23.4188
23.4181
18.7023
18.3371
18.0423
18.1049
18.6851
23.8399
24.2296
22.4191
21.1245
21.385
22.5353
23.1211
22.8043
20.1102
20.2208
20.0418
20.1589
19.4936
19.4527
19.1647
19.1641
19.1635
19.1629
19.1623
19.1657
20.758
23.9761
24.2323
24.4088
24.4081
24.3883
24.6653
24.4027
15.5572
15.5963
15.5957
15.9477
21.8746
24.3345
23.8487
23.9899
23.9891
23.4474
20.3372
20.0195
20.019
22.5416
22.541
21.0273
19.4192
19.4186
19.3099
19.568
21.1393
22.7585
22.7579
20.6949
18.3628
20.0034
22.5696
22.7359
22.7352
22.5405
22.5607
23.0817
22.6992
22.6854
14.7183
14.7178
14.7331
20.6786
22.6387
22.1579
22.9039
22.2977
19.4471
18.9551
18.9546
18.9539
19.0625
22.4664
22.6508
22.6502
21.5122
20.8881
20.8876
21.7452
21.7446
21.3681
20.262
20.3641
22.3347
24.3829
26.2708
26.4961
26.4952
26.4951
26.4939
26.4937
26.4926
14.5575
14.5571
14.5567
19.3479
20.2653
20.3447
23.4957
24.5186
24.5181
23.3034
19.4998
18.8553
18.8548
18.8543
19.4143
18.6054
18.6049
18.6044
18.6039
18.9238
20.7082
22.9212
22.9207
22.9202
21.0279
20.7691
26.7572
29.74
29.7412
29.739
29.7394
29.7378
25.4136
12.7881
12.7879
13.5138
21.6156
25.9469
27.2994
27.2989
24.1307
21.3756
18.9795
13.3707
6.59233
3.14069
2.3448
2.34454
3.15211
10.0306
31.0368
47.0871
38.2751
24.4406
19.5795
19.2464
19.246
19.7422
19.6811
22.3955
22.5685
22.57
22.5678
22.5688
22.567
22.567
22.566
12.6104
12.6097
12.61
12.609
12.6098
12.6089
24.4424
26.7786
26.7764
26.7773
26.7755
26.7757
26.7746
24.2531
20.1555
20.109
20.1078
20.1082
20.107
20.1074
20.1661
20.5145
21.3102
21.3099
20.97
21.052
21.9402
21.9387
21.9397
21.9381
21.939
21.9373
21.5737
9.25695
9.25689
9.25685
18.5051
29.8656
29.8651
29.8649
28.1248
22.4681
18.5445
18.5433
18.544
18.5426
20.1943
23.8387
22.531
19.5672
17.2834
17.6418
21.2952
22.0109
21.9948
20.3274
17.6708
17.7575
21.5516
23.5829
23.5821
23.5817
23.5808
23.5803
17.6934
17.6931
13.7395
13.7397
17.1966
21.4386
18.9573
21.3019
27.8167
29.3194
29.3192
26.262
21.5515
20.3798
21.197
23.3599
21.0863
16.826
15.8149
15.814
15.8142
15.8137
15.2313
12.8711
12.026
14.0156
20.0505
28.7531
39.4869
39.9824
31.0608
26.0247
26.0238
26.0229
24.4404
23.4228
15.169
15.1691
17.4615
24.9614
22.4189
19.6098
19.608
19.6095
21.4734
28.1917
28.1927
22.3372
18.8299
18.8298
18.8297
23.5301
23.7505
23.7505
21.7526
20.6689
21.3927
22.5171
22.5171
21.1069
18.6807
19.6526
22.8628
25.6931
25.6937
25.6918
25.6923
23.3745
23.3735
14.6505
14.6502
20.2595
33.6839
33.6429
28.4985
24.8168
23.012
22.1855
20.5051
20.5018
20.5045
21.8337
21.6782
19.2538
19.2523
19.2537
23.1656
25.9959
25.9931
25.9937
22.6936
22.9034
22.9034
22.9032
22.9035
20.6579
19.0444
22.6944
24.3557
24.3553
24.3552
23.9503
14.3368
14.3368
14.9728
30.7053
35.0569
35.0567
35.0584
27.7022
22.8444
22.8442
22.8442
22.5193
21.9146
21.914
24.0656
24.2292
24.229
20.5378
18.4736
18.4738
18.474
18.4743
18.4744
20.9409
20.941
20.9411
17.5592
16.6132
19.7578
21.4822
40.6925
150.114
196.028
26.455
20.7214
20.5035
20.427
21.0373
22.1232
21.1199
21.3411
21.3404
19.8531
20.7664
20.4354
20.1219
20.5808
20.4144
20.4081
20.187
20.1531
20.1524
20.4499
20.4506
21.8759
21.8752
21.9114
21.9107
21.2007
20.0505
20.0499
23.0685
22.3187
20.7509
20.7448
20.3956
20.2287
18.4147
18.0429
18.0423
18.1276
21.1441
24.4706
24.4698
22.3553
21.7567
21.756
21.3165
20.1287
20.1281
20.1102
20.2909
19.9773
19.738
19.3988
19.3981
19.2966
19.1672
19.8513
19.8531
19.4394
19.1656
19.2885
19.7382
20.3503
20.3497
20.5409
23.4929
24.6652
20.652
15.5568
17.9762
18.0965
19.3413
23.554
24.457
24.4563
22.2903
21.2659
20.0208
20.0202
20.0196
20.0189
21.776
20.4964
20.4958
21.255
21.2544
20.9317
19.568
19.5722
22.4785
22.4825
22.8502
22.8495
22.7076
20.1184
18.1072
17.4379
17.4373
17.4368
17.4362
17.4357
17.3077
16.9976
24.3906
24.9606
24.991
25.3659
25.3653
22.0432
19.3488
18.9557
18.9552
18.9544
18.9541
18.9533