/*--------------------------------*- C++ -*----------------------------------*\
  =========                 |
  \\      /  F ield         | OpenFOAM: The Open Source CFD Toolbox
   \\    /   O peration     | Website:  https://openfoam.org
    \\  /    A nd           | Version:  7
     \\/     M anipulation  |
\*---------------------------------------------------------------------------*/
FoamFile
{
    version     2.0;
    format      ascii;
    class       volScalarField;
    location    "6000";
    object      rho1;
}
// * * * * * * * * * * * * * * * * * * * * * * * * * * * * * * * * * * * * * //

dimensions      [1 -3 0 0 0 0 0];

internalField   nonuniform List<scalar> 
160000
(
996.154
996.135
996.116
996.097
996.077
996.057
996.038
996.019
996
995.98
995.96
995.941
995.921
995.9
995.881
995.861
995.842
995.822
995.802
995.782
995.762
995.742
995.723
995.703
995.683
995.664
995.643
995.623
995.602
995.582
995.563
995.543
995.523
995.503
995.484
995.464
995.443
995.422
995.403
995.383
995.363
995.343
995.322
995.302
995.282
995.261
995.24
995.221
995.201
995.182
995.162
995.141
995.12
995.1
995.079
995.059
995.038
995.018
994.999
994.979
994.958
994.938
994.918
994.898
994.879
994.859
994.839
994.818
994.798
994.779
994.759
994.739
994.718
994.698
994.678
994.659
994.639
994.619
994.6
994.58
994.56
994.539
994.519
994.5
994.48
994.46
994.44
994.421
994.402
994.382
994.363
994.343
994.323
994.303
994.283
994.265
994.246
994.227
994.208
994.189
994.17
994.151
994.132
994.112
994.093
994.074
994.055
994.037
994.017
993.998
993.979
993.961
993.943
993.924
993.906
993.888
993.869
993.851
993.832
993.813
993.795
993.777
993.759
993.741
993.723
993.704
993.686
993.668
993.651
993.633
993.616
993.599
993.581
993.563
993.544
993.526
993.509
993.491
993.474
993.458
993.441
993.423
993.406
993.39
993.372
993.354
993.338
993.321
993.304
993.288
993.272
993.256
993.24
993.223
993.207
993.191
993.175
993.158
993.142
993.126
993.11
993.094
993.079
993.063
993.048
993.033
993.017
993.001
992.986
992.97
992.955
992.939
992.925
992.91
992.895
992.881
992.866
992.852
992.837
992.822
992.807
992.793
992.779
992.765
992.751
992.737
992.723
992.709
992.695
992.68
992.666
992.653
992.641
992.628
992.614
992.601
992.588
992.573
992.559
992.545
992.533
992.521
992.509
992.496
992.484
992.471
992.458
992.445
992.433
992.422
992.41
992.399
992.387
992.376
992.365
992.354
992.343
992.332
992.32
992.309
992.297
992.286
992.276
992.265
992.255
992.245
992.234
992.223
992.213
992.202
992.192
992.183
992.172
992.162
992.152
992.142
992.132
992.123
992.113
992.104
992.094
992.085
992.076
992.066
992.056
992.046
992.035
992.025
992.015
992.006
991.998
991.99
991.982
991.974
991.966
991.958
991.95
991.942
991.934
991.925
991.916
991.908
991.9
991.893
991.886
991.878
991.87
991.862
991.855
991.847
991.839
991.832
991.825
991.818
991.812
991.805
991.798
991.791
991.784
991.777
991.771
991.764
991.758
991.752
991.745
991.739
991.733
991.727
991.722
991.716
991.71
991.704
991.698
991.692
991.686
991.68
991.674
991.668
991.663
991.657
991.651
991.644
991.638
991.634
991.629
991.624
991.62
991.615
991.611
991.606
991.602
991.597
991.593
991.588
991.584
991.579
991.575
991.571
991.567
991.563
991.559
991.555
991.551
991.547
991.542
991.538
991.534
991.53
991.527
991.523
991.52
991.517
991.513
991.51
991.507
991.504
991.501
991.497
991.494
991.491
991.488
991.486
991.483
991.48
991.477
991.474
991.472
991.469
991.467
991.464
991.462
991.46
991.457
991.455
991.453
991.451
991.449
991.446
991.444
991.442
991.441
991.439
991.437
991.435
991.434
991.432
991.43
991.429
991.427
991.425
991.424
991.423
991.421
991.42
991.419
991.418
991.417
991.416
991.415
991.414
991.413
991.412
991.411
991.41
991.409
991.409
991.408
991.407
991.407
991.406
991.406
991.405
991.405
991.405
991.404
991.404
991.404
991.404
991.404
991.404
996.153
996.134
996.116
996.096
996.077
996.058
996.038
996.019
996
995.98
995.96
995.941
995.921
995.901
995.881
995.861
995.842
995.822
995.802
995.781
995.762
995.742
995.722
995.703
995.683
995.664
995.644
995.623
995.602
995.582
995.563
995.543
995.523
995.503
995.484
995.464
995.443
995.423
995.403
995.383
995.362
995.342
995.322
995.302
995.282
995.261
995.24
995.221
995.202
995.181
995.161
995.14
995.12
995.099
995.079
995.059
995.038
995.018
994.999
994.979
994.958
994.938
994.918
994.899
994.879
994.859
994.839
994.819
994.799
994.779
994.759
994.738
994.718
994.698
994.679
994.659
994.639
994.619
994.6
994.58
994.559
994.54
994.52
994.5
994.48
994.46
994.44
994.421
994.401
994.382
994.362
994.343
994.323
994.303
994.284
994.265
994.246
994.227
994.208
994.189
994.17
994.151
994.132
994.113
994.093
994.074
994.055
994.036
994.017
993.998
993.979
993.961
993.943
993.925
993.906
993.888
993.869
993.851
993.832
993.813
993.795
993.777
993.759
993.741
993.722
993.704
993.686
993.668
993.651
993.633
993.616
993.599
993.581
993.562
993.544
993.527
993.509
993.491
993.474
993.458
993.441
993.423
993.406
993.389
993.372
993.354
993.338
993.321
993.304
993.288
993.272
993.256
993.24
993.223
993.207
993.191
993.174
993.158
993.142
993.126
993.11
993.094
993.079
993.063
993.048
993.033
993.017
993.001
992.986
992.97
992.955
992.939
992.925
992.91
992.895
992.881
992.866
992.851
992.837
992.822
992.808
992.793
992.779
992.765
992.751
992.737
992.723
992.708
992.694
992.68
992.666
992.653
992.641
992.628
992.615
992.601
992.587
992.572
992.558
992.546
992.533
992.521
992.509
992.496
992.483
992.47
992.458
992.445
992.434
992.422
992.41
992.399
992.387
992.376
992.365
992.354
992.342
992.331
992.32
992.309
992.298
992.287
992.276
992.265
992.255
992.244
992.234
992.223
992.213
992.202
992.192
992.182
992.172
992.162
992.152
992.142
992.132
992.123
992.113
992.104
992.095
992.085
992.076
992.066
992.056
992.046
992.035
992.024
992.015
992.006
991.998
991.99
991.982
991.974
991.966
991.958
991.95
991.942
991.933
991.925
991.916
991.908
991.901
991.893
991.885
991.878
991.87
991.862
991.855
991.847
991.839
991.832
991.825
991.818
991.812
991.805
991.798
991.791
991.784
991.777
991.771
991.764
991.758
991.752
991.745
991.739
991.733
991.727
991.722
991.716
991.71
991.704
991.698
991.692
991.686
991.68
991.674
991.668
991.663
991.657
991.65
991.644
991.639
991.634
991.629
991.624
991.62
991.615
991.611
991.606
991.602
991.597
991.593
991.588
991.583
991.579
991.575
991.571
991.567
991.563
991.559
991.555
991.551
991.546
991.542
991.538
991.534
991.531
991.527
991.524
991.52
991.517
991.513
991.51
991.507
991.504
991.501
991.497
991.494
991.491
991.488
991.486
991.483
991.48
991.477
991.474
991.472
991.469
991.467
991.464
991.462
991.46
991.457
991.455
991.453
991.451
991.449
991.446
991.444
991.443
991.441
991.439
991.437
991.435
991.433
991.432
991.43
991.429
991.427
991.425
991.424
991.423
991.421
991.42
991.419
991.418
991.417
991.416
991.415
991.414
991.413
991.412
991.411
991.41
991.409
991.409
991.408
991.407
991.407
991.406
991.406
991.405
991.405
991.405
991.404
991.404
991.404
991.404
991.404
991.404
996.153
996.135
996.116
996.096
996.077
996.058
996.038
996.019
995.999
995.98
995.96
995.94
995.921
995.902
995.881
995.861
995.842
995.821
995.802
995.781
995.761
995.742
995.722
995.703
995.683
995.664
995.644
995.623
995.603
995.582
995.563
995.543
995.523
995.503
995.483
995.463
995.443
995.423
995.403
995.383
995.362
995.342
995.322
995.302
995.282
995.261
995.241
995.222
995.202
995.181
995.16
995.14
995.12
995.1
995.079
995.059
995.039
995.019
994.998
994.978
994.959
994.938
994.918
994.898
994.879
994.859
994.839
994.819
994.799
994.779
994.759
994.739
994.718
994.698
994.679
994.659
994.639
994.619
994.599
994.579
994.56
994.54
994.52
994.5
994.48
994.46
994.44
994.42
994.401
994.382
994.362
994.342
994.323
994.303
994.284
994.265
994.246
994.227
994.208
994.189
994.17
994.151
994.132
994.113
994.093
994.073
994.055
994.036
994.017
993.998
993.98
993.961
993.943
993.925
993.906
993.888
993.869
993.851
993.832
993.813
993.795
993.777
993.759
993.74
993.722
993.704
993.686
993.668
993.651
993.633
993.616
993.599
993.581
993.563
993.544
993.527
993.509
993.491
993.474
993.458
993.441
993.423
993.406
993.389
993.372
993.354
993.338
993.321
993.305
993.288
993.272
993.256
993.24
993.223
993.207
993.19
993.174
993.158
993.142
993.126
993.11
993.095
993.079
993.063
993.048
993.033
993.018
993.002
992.986
992.97
992.954
992.939
992.925
992.91
992.896
992.881
992.866
992.851
992.837
992.822
992.808
992.794
992.78
992.766
992.751
992.737
992.722
992.708
992.693
992.679
992.666
992.653
992.641
992.628
992.615
992.601
992.587
992.573
992.559
992.546
992.534
992.521
992.509
992.496
992.483
992.47
992.458
992.446
992.434
992.422
992.41
992.399
992.387
992.376
992.365
992.353
992.342
992.331
992.32
992.309
992.298
992.287
992.276
992.265
992.255
992.244
992.234
992.223
992.213
992.202
992.192
992.182
992.172
992.162
992.152
992.142
992.132
992.123
992.113
992.104
992.094
992.085
992.076
992.066
992.056
992.045
992.034
992.024
992.015
992.006
991.998
991.99
991.982
991.974
991.966
991.958
991.949
991.941
991.933
991.925
991.917
991.909
991.901
991.893
991.885
991.878
991.87
991.862
991.854
991.847
991.839
991.832
991.825
991.818
991.812
991.805
991.798
991.791
991.784
991.777
991.771
991.764
991.758
991.752
991.745
991.739
991.733
991.728
991.722
991.716
991.71
991.704
991.698
991.692
991.686
991.68
991.673
991.668
991.662
991.656
991.65
991.644
991.639
991.634
991.629
991.625
991.62
991.615
991.611
991.606
991.602
991.597
991.592
991.588
991.583
991.579
991.575
991.571
991.567
991.563
991.559
991.554
991.55
991.546
991.542
991.538
991.534
991.531
991.527
991.524
991.52
991.517
991.513
991.51
991.507
991.504
991.501
991.497
991.494
991.491
991.488
991.486
991.483
991.48
991.477
991.474
991.472
991.469
991.467
991.464
991.462
991.46
991.457
991.455
991.453
991.451
991.449
991.446
991.444
991.443
991.441
991.439
991.437
991.435
991.433
991.432
991.43
991.429
991.427
991.425
991.424
991.423
991.421
991.42
991.419
991.418
991.417
991.416
991.415
991.414
991.413
991.412
991.411
991.41
991.409
991.409
991.408
991.407
991.407
991.406
991.406
991.405
991.405
991.405
991.404
991.404
991.404
991.404
991.404
991.404
996.154
996.135
996.116
996.096
996.077
996.057
996.038
996.019
995.999
995.98
995.96
995.941
995.921
995.902
995.881
995.861
995.842
995.822
995.801
995.781
995.761
995.741
995.722
995.703
995.683
995.663
995.644
995.623
995.602
995.583
995.563
995.544
995.524
995.503
995.483
995.463
995.443
995.423
995.404
995.383
995.362
995.342
995.322
995.302
995.282
995.261
995.241
995.222
995.201
995.181
995.16
995.14
995.12
995.1
995.079
995.059
995.039
995.019
994.999
994.979
994.959
994.938
994.918
994.899
994.879
994.859
994.839
994.819
994.799
994.778
994.758
994.739
994.719
994.699
994.678
994.658
994.638
994.619
994.599
994.58
994.56
994.54
994.52
994.501
994.481
994.46
994.44
994.42
994.401
994.381
994.362
994.342
994.323
994.303
994.284
994.265
994.246
994.228
994.209
994.19
994.17
994.151
994.132
994.112
994.093
994.073
994.054
994.036
994.017
993.998
993.98
993.962
993.943
993.925
993.906
993.888
993.87
993.851
993.832
993.813
993.795
993.777
993.759
993.741
993.723
993.704
993.686
993.668
993.651
993.633
993.616
993.598
993.581
993.563
993.545
993.527
993.509
993.492
993.474
993.457
993.44
993.423
993.407
993.389
993.372
993.355
993.338
993.321
993.305
993.288
993.272
993.256
993.239
993.223
993.207
993.191
993.174
993.158
993.142
993.126
993.11
993.094
993.078
993.063
993.048
993.033
993.018
993.002
992.986
992.969
992.954
992.94
992.925
992.91
992.896
992.881
992.866
992.852
992.837
992.823
992.808
992.794
992.78
992.765
992.75
992.736
992.721
992.707
992.692
992.679
992.666
992.654
992.641
992.628
992.615
992.601
992.588
992.574
992.56
992.547
992.534
992.522
992.509
992.496
992.483
992.47
992.458
992.446
992.434
992.422
992.411
992.399
992.387
992.376
992.365
992.353
992.342
992.331
992.32
992.309
992.298
992.287
992.276
992.265
992.254
992.244
992.234
992.223
992.213
992.203
992.192
992.182
992.173
992.163
992.152
992.142
992.132
992.123
992.113
992.104
992.094
992.085
992.075
992.065
992.055
992.045
992.034
992.024
992.015
992.007
991.999
991.991
991.982
991.974
991.966
991.958
991.949
991.941
991.933
991.925
991.917
991.909
991.901
991.893
991.885
991.878
991.87
991.862
991.854
991.847
991.839
991.832
991.825
991.818
991.812
991.805
991.798
991.791
991.784
991.777
991.771
991.764
991.758
991.752
991.746
991.74
991.734
991.728
991.722
991.716
991.71
991.704
991.698
991.692
991.685
991.678
991.673
991.667
991.662
991.656
991.65
991.645
991.64
991.634
991.629
991.625
991.62
991.615
991.611
991.606
991.602
991.597
991.592
991.588
991.583
991.579
991.575
991.571
991.567
991.563
991.558
991.554
991.55
991.546
991.542
991.538
991.535
991.531
991.527
991.524
991.52
991.517
991.514
991.51
991.507
991.504
991.5
991.497
991.494
991.491
991.488
991.486
991.483
991.48
991.477
991.474
991.472
991.469
991.467
991.464
991.462
991.46
991.457
991.455
991.453
991.451
991.449
991.447
991.444
991.443
991.441
991.439
991.437
991.435
991.433
991.432
991.43
991.429
991.427
991.426
991.424
991.423
991.421
991.42
991.419
991.418
991.417
991.416
991.415
991.414
991.413
991.412
991.411
991.41
991.409
991.409
991.408
991.407
991.407
991.406
991.406
991.405
991.405
991.405
991.404
991.404
991.404
991.404
991.404
991.404
996.154
996.135
996.115
996.096
996.077
996.057
996.038
996.018
995.999
995.979
995.96
995.941
995.922
995.901
995.881
995.861
995.842
995.822
995.802
995.781
995.761
995.741
995.722
995.702
995.683
995.663
995.644
995.623
995.603
995.583
995.563
995.543
995.524
995.504
995.483
995.463
995.444
995.424
995.403
995.382
995.362
995.342
995.322
995.302
995.282
995.262
995.242
995.222
995.201
995.181
995.16
995.14
995.12
995.1
995.079
995.059
995.039
995.019
994.999
994.979
994.959
994.938
994.918
994.899
994.88
994.86
994.839
994.819
994.799
994.778
994.758
994.738
994.718
994.698
994.678
994.658
994.638
994.619
994.599
994.579
994.56
994.54
994.52
994.501
994.481
994.46
994.44
994.42
994.401
994.381
994.362
994.342
994.323
994.303
994.284
994.265
994.246
994.227
994.209
994.19
994.171
994.151
994.132
994.112
994.093
994.073
994.054
994.036
994.017
993.998
993.98
993.962
993.943
993.924
993.906
993.888
993.87
993.851
993.832
993.813
993.795
993.777
993.759
993.741
993.722
993.704
993.686
993.668
993.65
993.633
993.616
993.598
993.581
993.563
993.545
993.527
993.509
993.492
993.474
993.457
993.44
993.423
993.406
993.389
993.372
993.355
993.338
993.321
993.305
993.288
993.272
993.256
993.239
993.223
993.207
993.19
993.174
993.158
993.142
993.126
993.11
993.094
993.078
993.063
993.048
993.033
993.018
993.002
992.986
992.97
992.954
992.94
992.925
992.91
992.896
992.881
992.867
992.852
992.838
992.823
992.808
992.794
992.779
992.764
992.749
992.735
992.72
992.706
992.693
992.68
992.667
992.654
992.64
992.627
992.614
992.601
992.588
992.574
992.561
992.547
992.535
992.522
992.509
992.496
992.483
992.47
992.458
992.446
992.434
992.422
992.411
992.399
992.387
992.376
992.365
992.353
992.342
992.331
992.32
992.309
992.298
992.287
992.276
992.265
992.254
992.244
992.233
992.223
992.213
992.203
992.192
992.183
992.173
992.163
992.153
992.142
992.132
992.123
992.113
992.104
992.094
992.084
992.075
992.065
992.054
992.044
992.034
992.024
992.016
992.007
991.999
991.991
991.982
991.974
991.966
991.957
991.949
991.941
991.933
991.925
991.917
991.909
991.901
991.893
991.886
991.878
991.87
991.862
991.854
991.846
991.839
991.832
991.825
991.819
991.812
991.804
991.797
991.79
991.784
991.777
991.771
991.765
991.758
991.752
991.746
991.74
991.734
991.728
991.722
991.716
991.71
991.704
991.697
991.691
991.684
991.678
991.673
991.667
991.662
991.656
991.651
991.645
991.64
991.635
991.629
991.625
991.62
991.615
991.611
991.606
991.602
991.597
991.592
991.588
991.583
991.579
991.575
991.571
991.567
991.562
991.558
991.554
991.55
991.546
991.542
991.538
991.535
991.531
991.527
991.524
991.52
991.517
991.514
991.51
991.507
991.504
991.5
991.497
991.494
991.491
991.488
991.485
991.483
991.48
991.477
991.474
991.472
991.469
991.467
991.464
991.462
991.46
991.457
991.455
991.453
991.451
991.449
991.446
991.444
991.442
991.441
991.439
991.437
991.435
991.433
991.432
991.43
991.429
991.427
991.425
991.424
991.423
991.421
991.42
991.419
991.418
991.417
991.416
991.415
991.414
991.413
991.412
991.411
991.41
991.409
991.409
991.408
991.407
991.407
991.406
991.406
991.405
991.405
991.405
991.404
991.404
991.404
991.404
991.404
991.404
996.154
996.135
996.116
996.096
996.077
996.057
996.037
996.018
995.999
995.98
995.96
995.941
995.922
995.901
995.881
995.861
995.841
995.822
995.802
995.782
995.761
995.741
995.721
995.702
995.683
995.663
995.643
995.623
995.603
995.583
995.563
995.543
995.524
995.504
995.484
995.463
995.443
995.423
995.403
995.382
995.362
995.342
995.322
995.302
995.282
995.262
995.242
995.222
995.202
995.181
995.16
995.14
995.12
995.099
995.079
995.059
995.039
995.019
994.999
994.979
994.959
994.939
994.919
994.899
994.88
994.86
994.839
994.819
994.799
994.778
994.758
994.738
994.718
994.698
994.678
994.658
994.638
994.618
994.599
994.579
994.56
994.54
994.52
994.501
994.481
994.461
994.441
994.421
994.401
994.381
994.362
994.343
994.323
994.303
994.284
994.265
994.246
994.227
994.209
994.19
994.171
994.152
994.132
994.112
994.092
994.073
994.055
994.036
994.017
993.998
993.98
993.962
993.943
993.925
993.906
993.888
993.87
993.851
993.832
993.814
993.795
993.777
993.759
993.74
993.722
993.704
993.686
993.668
993.65
993.633
993.616
993.598
993.581
993.563
993.546
993.527
993.509
993.491
993.474
993.457
993.44
993.423
993.406
993.389
993.372
993.355
993.338
993.322
993.305
993.289
993.272
993.256
993.239
993.222
993.206
993.19
993.175
993.159
993.143
993.126
993.11
993.093
993.078
993.063
993.048
993.033
993.018
993.002
992.986
992.97
992.955
992.94
992.925
992.91
992.896
992.881
992.867
992.853
992.838
992.823
992.809
992.794
992.779
992.764
992.748
992.733
992.719
992.706
992.693
992.68
992.667
992.654
992.64
992.627
992.614
992.601
992.588
992.574
992.561
992.548
992.535
992.522
992.509
992.496
992.483
992.47
992.458
992.446
992.434
992.422
992.41
992.399
992.387
992.376
992.365
992.354
992.342
992.331
992.32
992.309
992.298
992.287
992.276
992.265
992.254
992.244
992.233
992.223
992.213
992.203
992.193
992.183
992.173
992.163
992.152
992.142
992.132
992.123
992.113
992.103
992.093
992.084
992.074
992.064
992.053
992.044
992.034
992.025
992.016
992.008
991.999
991.991
991.983
991.974
991.966
991.957
991.949
991.941
991.933
991.925
991.917
991.909
991.901
991.893
991.886
991.878
991.87
991.862
991.854
991.846
991.839
991.832
991.825
991.818
991.811
991.804
991.797
991.79
991.784
991.777
991.771
991.765
991.758
991.752
991.746
991.74
991.734
991.728
991.722
991.716
991.71
991.703
991.696
991.69
991.684
991.678
991.673
991.667
991.662
991.657
991.651
991.646
991.64
991.635
991.63
991.625
991.62
991.615
991.611
991.606
991.601
991.597
991.592
991.588
991.583
991.579
991.575
991.571
991.567
991.562
991.558
991.554
991.55
991.546
991.542
991.539
991.535
991.531
991.527
991.524
991.52
991.517
991.514
991.51
991.507
991.504
991.5
991.497
991.494
991.491
991.488
991.485
991.483
991.48
991.477
991.474
991.472
991.469
991.467
991.464
991.462
991.46
991.457
991.455
991.453
991.451
991.449
991.446
991.444
991.442
991.441
991.439
991.437
991.435
991.433
991.432
991.43
991.429
991.427
991.426
991.424
991.423
991.421
991.42
991.419
991.418
991.417
991.416
991.415
991.414
991.413
991.412
991.411
991.41
991.409
991.409
991.408
991.407
991.407
991.406
991.406
991.405
991.405
991.405
991.404
991.404
991.404
991.404
991.404
991.404
996.154
996.135
996.116
996.097
996.077
996.057
996.037
996.018
995.999
995.979
995.96
995.941
995.921
995.901
995.881
995.861
995.842
995.822
995.802
995.782
995.762
995.741
995.722
995.703
995.683
995.663
995.643
995.623
995.603
995.583
995.563
995.543
995.524
995.504
995.484
995.464
995.443
995.423
995.403
995.383
995.362
995.342
995.322
995.302
995.282
995.262
995.242
995.222
995.201
995.181
995.16
995.14
995.12
995.099
995.079
995.059
995.039
995.019
994.999
994.979
994.959
994.939
994.919
994.899
994.879
994.86
994.839
994.819
994.798
994.778
994.758
994.738
994.717
994.697
994.678
994.658
994.638
994.618
994.599
994.579
994.56
994.54
994.521
994.501
994.481
994.461
994.441
994.421
994.401
994.381
994.362
994.343
994.323
994.303
994.284
994.266
994.247
994.227
994.208
994.19
994.171
994.152
994.131
994.112
994.092
994.073
994.055
994.036
994.017
993.998
993.98
993.962
993.944
993.925
993.906
993.888
993.87
993.851
993.832
993.814
993.795
993.777
993.759
993.74
993.722
993.704
993.686
993.668
993.65
993.633
993.616
993.598
993.581
993.563
993.545
993.527
993.508
993.491
993.474
993.457
993.44
993.423
993.406
993.389
993.372
993.355
993.338
993.322
993.305
993.289
993.272
993.255
993.239
993.222
993.206
993.19
993.175
993.159
993.142
993.126
993.109
993.093
993.078
993.063
993.048
993.033
993.018
993.002
992.986
992.97
992.955
992.94
992.925
992.91
992.896
992.881
992.867
992.853
992.839
992.824
992.809
992.794
992.779
992.763
992.746
992.732
992.719
992.706
992.693
992.68
992.667
992.654
992.641
992.627
992.614
992.601
992.587
992.574
992.561
992.548
992.535
992.523
992.51
992.497
992.483
992.47
992.458
992.446
992.434
992.422
992.41
992.399
992.387
992.376
992.365
992.354
992.342
992.331
992.32
992.309
992.298
992.287
992.276
992.265
992.254
992.244
992.233
992.223
992.213
992.203
992.193
992.183
992.173
992.163
992.152
992.142
992.132
992.122
992.112
992.102
992.093
992.083
992.074
992.064
992.054
992.044
992.034
992.025
992.017
992.008
992
991.991
991.983
991.974
991.966
991.957
991.949
991.941
991.933
991.925
991.917
991.909
991.901
991.893
991.886
991.878
991.87
991.862
991.854
991.846
991.839
991.832
991.825
991.818
991.811
991.804
991.797
991.791
991.784
991.777
991.771
991.765
991.758
991.752
991.746
991.74
991.734
991.728
991.722
991.716
991.709
991.703
991.696
991.689
991.684
991.678
991.673
991.667
991.662
991.657
991.651
991.646
991.64
991.635
991.63
991.625
991.62
991.615
991.611
991.606
991.601
991.597
991.592
991.588
991.583
991.579
991.575
991.571
991.567
991.562
991.558
991.554
991.55
991.546
991.542
991.539
991.535
991.531
991.527
991.524
991.52
991.517
991.514
991.51
991.507
991.504
991.5
991.497
991.494
991.491
991.488
991.485
991.483
991.48
991.477
991.474
991.472
991.469
991.467
991.464
991.462
991.46
991.457
991.455
991.453
991.451
991.449
991.446
991.444
991.442
991.441
991.439
991.437
991.435
991.433
991.432
991.43
991.429
991.427
991.425
991.424
991.423
991.421
991.42
991.419
991.418
991.417
991.416
991.415
991.414
991.413
991.412
991.411
991.41
991.409
991.409
991.408
991.407
991.407
991.406
991.406
991.405
991.405
991.405
991.404
991.404
991.404
991.404
991.404
991.404
996.154
996.135
996.116
996.097
996.077
996.057
996.038
996.018
995.998
995.979
995.96
995.941
995.921
995.901
995.881
995.862
995.842
995.821
995.802
995.782
995.762
995.742
995.722
995.702
995.683
995.663
995.643
995.623
995.603
995.583
995.563
995.543
995.524
995.504
995.483
995.463
995.443
995.423
995.403
995.382
995.362
995.342
995.322
995.302
995.282
995.262
995.242
995.222
995.201
995.181
995.16
995.14
995.12
995.1
995.08
995.06
995.04
995.019
994.999
994.979
994.959
994.939
994.919
994.899
994.879
994.859
994.839
994.818
994.798
994.778
994.758
994.737
994.717
994.697
994.678
994.658
994.638
994.619
994.599
994.58
994.56
994.54
994.52
994.5
994.481
994.461
994.441
994.421
994.401
994.381
994.362
994.343
994.323
994.304
994.285
994.266
994.247
994.228
994.208
994.189
994.17
994.151
994.131
994.112
994.092
994.074
994.055
994.036
994.017
993.999
993.98
993.962
993.943
993.925
993.907
993.888
993.87
993.851
993.832
993.814
993.795
993.777
993.759
993.74
993.722
993.704
993.686
993.668
993.65
993.633
993.616
993.599
993.581
993.563
993.545
993.526
993.508
993.491
993.474
993.457
993.44
993.423
993.406
993.389
993.372
993.355
993.339
993.322
993.305
993.289
993.272
993.256
993.239
993.222
993.206
993.19
993.174
993.158
993.142
993.126
993.109
993.094
993.079
993.063
993.048
993.033
993.018
993.002
992.986
992.97
992.955
992.94
992.925
992.91
992.896
992.882
992.867
992.853
992.839
992.824
992.81
992.794
992.778
992.761
992.745
992.731
992.719
992.706
992.693
992.68
992.667
992.654
992.641
992.627
992.614
992.601
992.587
992.574
992.561
992.548
992.535
992.523
992.51
992.497
992.484
992.471
992.458
992.446
992.434
992.422
992.41
992.399
992.388
992.376
992.365
992.354
992.342
992.331
992.32
992.309
992.298
992.287
992.276
992.265
992.254
992.244
992.233
992.223
992.213
992.203
992.193
992.183
992.173
992.163
992.152
992.142
992.132
992.122
992.112
992.102
992.092
992.083
992.073
992.064
992.054
992.044
992.035
992.026
992.017
992.008
992
991.991
991.983
991.974
991.966
991.958
991.949
991.941
991.933
991.925
991.917
991.909
991.901
991.893
991.886
991.878
991.87
991.862
991.854
991.846
991.839
991.832
991.825
991.818
991.811
991.804
991.797
991.791
991.784
991.777
991.771
991.765
991.758
991.752
991.746
991.74
991.734
991.727
991.721
991.715
991.709
991.702
991.695
991.689
991.684
991.678
991.673
991.667
991.662
991.657
991.651
991.646
991.64
991.635
991.63
991.625
991.62
991.615
991.611
991.606
991.601
991.597
991.592
991.588
991.583
991.579
991.575
991.571
991.567
991.562
991.558
991.554
991.55
991.546
991.542
991.539
991.535
991.531
991.527
991.524
991.52
991.517
991.514
991.51
991.507
991.504
991.5
991.497
991.494
991.491
991.488
991.485
991.483
991.48
991.477
991.474
991.472
991.469
991.467
991.464
991.462
991.46
991.457
991.455
991.453
991.451
991.449
991.446
991.444
991.442
991.441
991.439
991.437
991.435
991.433
991.432
991.43
991.429
991.427
991.425
991.424
991.423
991.421
991.42
991.419
991.418
991.417
991.416
991.415
991.414
991.413
991.412
991.411
991.41
991.409
991.409
991.408
991.407
991.407
991.406
991.406
991.405
991.405
991.405
991.404
991.404
991.404
991.404
991.404
991.404
996.154
996.135
996.116
996.097
996.077
996.057
996.038
996.018
995.999
995.979
995.96
995.94
995.92
995.9
995.881
995.862
995.842
995.821
995.802
995.782
995.762
995.742
995.722
995.702
995.683
995.663
995.643
995.623
995.603
995.583
995.563
995.543
995.524
995.504
995.483
995.463
995.443
995.423
995.403
995.382
995.362
995.342
995.322
995.302
995.282
995.262
995.242
995.221
995.201
995.18
995.16
995.14
995.12
995.1
995.08
995.06
995.04
995.02
995
994.979
994.959
994.939
994.919
994.899
994.879
994.859
994.839
994.818
994.798
994.777
994.757
994.737
994.717
994.697
994.678
994.658
994.638
994.619
994.6
994.58
994.56
994.54
994.52
994.5
994.481
994.461
994.441
994.421
994.401
994.381
994.362
994.343
994.324
994.304
994.285
994.266
994.247
994.228
994.208
994.189
994.17
994.151
994.131
994.112
994.092
994.073
994.055
994.036
994.018
993.999
993.981
993.962
993.943
993.925
993.906
993.888
993.869
993.851
993.832
993.814
993.795
993.777
993.759
993.74
993.722
993.704
993.686
993.668
993.651
993.633
993.616
993.598
993.581
993.563
993.545
993.526
993.508
993.491
993.474
993.457
993.44
993.423
993.406
993.389
993.373
993.356
993.339
993.322
993.306
993.289
993.272
993.256
993.239
993.222
993.206
993.19
993.174
993.158
993.142
993.126
993.11
993.094
993.078
993.063
993.048
993.033
993.018
993.003
992.986
992.97
992.955
992.94
992.925
992.91
992.896
992.882
992.867
992.853
992.839
992.824
992.809
992.793
992.776
992.76
992.745
992.732
992.719
992.706
992.693
992.68
992.667
992.654
992.64
992.627
992.614
992.6
992.587
992.574
992.561
992.548
992.536
992.523
992.51
992.497
992.484
992.471
992.458
992.446
992.434
992.422
992.411
992.399
992.388
992.376
992.365
992.354
992.342
992.331
992.32
992.309
992.298
992.287
992.276
992.265
992.255
992.244
992.233
992.223
992.213
992.202
992.192
992.182
992.172
992.162
992.152
992.142
992.131
992.121
992.111
992.102
992.092
992.083
992.073
992.064
992.054
992.045
992.035
992.026
992.017
992.008
992
991.991
991.983
991.974
991.966
991.958
991.949
991.941
991.933
991.924
991.916
991.909
991.901
991.893
991.886
991.878
991.87
991.862
991.854
991.847
991.839
991.832
991.825
991.818
991.811
991.804
991.797
991.791
991.784
991.777
991.771
991.765
991.758
991.752
991.746
991.74
991.733
991.727
991.721
991.715
991.708
991.702
991.695
991.689
991.684
991.678
991.673
991.667
991.662
991.657
991.651
991.646
991.64
991.635
991.63
991.625
991.62
991.615
991.611
991.606
991.601
991.597
991.592
991.588
991.583
991.579
991.575
991.571
991.566
991.562
991.558
991.554
991.55
991.546
991.542
991.538
991.535
991.531
991.527
991.524
991.52
991.517
991.514
991.51
991.507
991.503
991.5
991.497
991.494
991.491
991.488
991.485
991.483
991.48
991.477
991.474
991.472
991.469
991.467
991.464
991.462
991.46
991.457
991.455
991.453
991.451
991.449
991.446
991.444
991.442
991.441
991.439
991.437
991.435
991.433
991.432
991.43
991.429
991.427
991.425
991.424
991.423
991.421
991.42
991.419
991.418
991.417
991.416
991.415
991.414
991.413
991.412
991.411
991.41
991.409
991.409
991.408
991.407
991.407
991.406
991.406
991.405
991.405
991.405
991.404
991.404
991.404
991.404
991.404
991.404
996.153
996.134
996.116
996.097
996.077
996.057
996.038
996.018
995.999
995.98
995.96
995.94
995.92
995.901
995.881
995.861
995.842
995.822
995.802
995.783
995.763
995.742
995.722
995.702
995.682
995.662
995.643
995.623
995.603
995.583
995.563
995.543
995.523
995.504
995.484
995.464
995.443
995.423
995.403
995.383
995.362
995.342
995.322
995.302
995.282
995.262
995.241
995.221
995.201
995.18
995.16
995.14
995.12
995.1
995.08
995.06
995.04
995.02
995
994.979
994.959
994.939
994.919
994.899
994.879
994.858
994.839
994.818
994.798
994.778
994.757
994.737
994.717
994.697
994.678
994.658
994.638
994.619
994.599
994.579
994.56
994.54
994.52
994.5
994.48
994.461
994.441
994.421
994.401
994.381
994.362
994.343
994.323
994.304
994.285
994.266
994.247
994.228
994.208
994.189
994.17
994.15
994.131
994.112
994.092
994.073
994.055
994.036
994.018
994
993.981
993.962
993.944
993.925
993.906
993.888
993.869
993.851
993.832