/*--------------------------------*- C++ -*----------------------------------*\
  =========                 |
  \\      /  F ield         | OpenFOAM: The Open Source CFD Toolbox
   \\    /   O peration     | Website:  https://openfoam.org
    \\  /    A nd           | Version:  7
     \\/     M anipulation  |
\*---------------------------------------------------------------------------*/
FoamFile
{
    version     2.0;
    format      ascii;
    class       volScalarField;
    location    "6000";
    object      rho2;
}
// * * * * * * * * * * * * * * * * * * * * * * * * * * * * * * * * * * * * * //

dimensions      [1 -3 0 0 0 0 0];

internalField   nonuniform List<scalar> 
160000
(
1.17633
1.17606
1.17579
1.17551
1.17523
1.17495
1.17467
1.1744
1.17413
1.17385
1.17357
1.17329
1.17302
1.17273
1.17245
1.17218
1.17191
1.17164
1.17136
1.17107
1.1708
1.17053
1.17026
1.16999
1.16973
1.16946
1.16918
1.1689
1.16862
1.16835
1.16809
1.16783
1.16756
1.16729
1.16703
1.16677
1.16649
1.16622
1.16596
1.1657
1.16543
1.16517
1.1649
1.16464
1.16438
1.1641
1.16384
1.16359
1.16333
1.16308
1.16282
1.16255
1.16229
1.16203
1.16176
1.16151
1.16125
1.16099
1.16075
1.1605
1.16024
1.15998
1.15973
1.15949
1.15925
1.15901
1.15875
1.1585
1.15825
1.15802
1.15777
1.15751
1.15727
1.15702
1.15678
1.15654
1.1563
1.15606
1.15582
1.15558
1.15535
1.1551
1.15486
1.15462
1.15439
1.15415
1.15391
1.15368
1.15346
1.15322
1.153
1.15277
1.15253
1.15229
1.15207
1.15185
1.15163
1.15141
1.15119
1.15097
1.15075
1.15053
1.15031
1.15009
1.14987
1.14965
1.14943
1.14922
1.149
1.14878
1.14857
1.14836
1.14815
1.14795
1.14774
1.14753
1.14733
1.14712
1.14691
1.1467
1.14649
1.14629
1.1461
1.14589
1.14569
1.14549
1.14528
1.14509
1.1449
1.14471
1.14452
1.14433
1.14414
1.14394
1.14373
1.14354
1.14335
1.14316
1.14298
1.1428
1.14262
1.14243
1.14224
1.14207
1.14188
1.14169
1.14151
1.14133
1.14115
1.14098
1.14081
1.14064
1.14047
1.1403
1.14012
1.13996
1.13978
1.13961
1.13944
1.13927
1.13911
1.13894
1.13878
1.13862
1.13846
1.1383
1.13814
1.13797
1.13781
1.13765
1.1375
1.13734
1.13718
1.13703
1.13688
1.13673
1.13658
1.13643
1.13628
1.13613
1.13598
1.13584
1.13569
1.13555
1.13541
1.13527
1.13512
1.13498
1.13484
1.1347
1.13455
1.13442
1.1343
1.13417
1.13404
1.1339
1.13377
1.13362
1.13348
1.13335
1.13322
1.1331
1.13298
1.13286
1.13273
1.1326
1.13247
1.13235
1.13224
1.13212
1.13201
1.1319
1.13178
1.13167
1.13156
1.13145
1.13135
1.13124
1.13113
1.13101
1.1309
1.13079
1.13069
1.13059
1.13049
1.13039
1.13029
1.13018
1.13008
1.12998
1.12988
1.12979
1.12969
1.12959
1.1295
1.1294
1.12931
1.12921
1.12912
1.12903
1.12894
1.12885
1.12876
1.12867
1.12857
1.12848
1.12837
1.12828
1.12818
1.1281
1.12802
1.12794
1.12787
1.12779
1.12772
1.12764
1.12756
1.12749
1.12741
1.12733
1.12725
1.12717
1.1271
1.12703
1.12696
1.12688
1.12681
1.12674
1.12667
1.12659
1.12652
1.12645
1.12639
1.12632
1.12626
1.1262
1.12614
1.12607
1.126
1.12594
1.12588
1.12582
1.12576
1.1257
1.12564
1.12558
1.12553
1.12547
1.12542
1.12537
1.12531
1.12526
1.1252
1.12515
1.12509
1.12504
1.12498
1.12493
1.12488
1.12482
1.12476
1.1247
1.12465
1.1246
1.12456
1.12452
1.12448
1.12444
1.12439
1.12435
1.12431
1.12427
1.12423
1.12419
1.12414
1.1241
1.12406
1.12402
1.12399
1.12395
1.12392
1.12388
1.12384
1.1238
1.12376
1.12373
1.12369
1.12366
1.12362
1.12359
1.12356
1.12353
1.1235
1.12347
1.12344
1.12341
1.12338
1.12335
1.12333
1.1233
1.12327
1.12325
1.12322
1.1232
1.12317
1.12314
1.12312
1.1231
1.12307
1.12305
1.12303
1.12301
1.12299
1.12297
1.12295
1.12293
1.12291
1.12289
1.12287
1.12285
1.12284
1.12282
1.1228
1.12279
1.12277
1.12276
1.12274
1.12273
1.12271
1.1227
1.12268
1.12267
1.12266
1.12265
1.12264
1.12263
1.12262
1.12261
1.1226
1.12259
1.12258
1.12257
1.12257
1.12256
1.12255
1.12255
1.12254
1.12253
1.12253
1.12252
1.12252
1.12252
1.12251
1.12251
1.12251
1.1225
1.1225
1.1225
1.1225
1.1225
1.17633
1.17605
1.17578
1.17551
1.17523
1.17496
1.17468
1.1744
1.17413
1.17385
1.17357
1.17329
1.17302
1.17274
1.17245
1.17218
1.17191
1.17163
1.17135
1.17107
1.1708
1.17053
1.17026
1.16999
1.16972
1.16946
1.16918
1.1689
1.16862
1.16835
1.16809
1.16783
1.16756
1.16729
1.16703
1.16677
1.16649
1.16622
1.16597
1.1657
1.16543
1.16517
1.1649
1.16464
1.16438
1.1641
1.16384
1.16359
1.16333
1.16307
1.16281
1.16255
1.16229
1.16203
1.16177
1.16151
1.16125
1.161
1.16075
1.1605
1.16024
1.15999
1.15974
1.15949
1.15925
1.159
1.15875
1.15851
1.15826
1.15801
1.15776
1.15751
1.15727
1.15702
1.15678
1.15654
1.1563
1.15606
1.15583
1.15558
1.15534
1.1551
1.15486
1.15463
1.15439
1.15415
1.15391
1.15368
1.15346
1.15323
1.15299
1.15276
1.15253
1.15229
1.15207
1.15185
1.15163
1.15141
1.15119
1.15097
1.15075
1.15053
1.15032
1.15009
1.14986
1.14965
1.14943
1.14921
1.149
1.14878
1.14857
1.14836
1.14816
1.14795
1.14774
1.14754
1.14733
1.14712
1.14691
1.1467
1.14649
1.14629
1.14609
1.14589
1.14569
1.14549
1.14529
1.14509
1.1449
1.14471
1.14452
1.14433
1.14414
1.14393
1.14373
1.14354
1.14335
1.14316
1.14298
1.1428
1.14262
1.14243
1.14224
1.14206
1.14187
1.14169
1.14151
1.14133
1.14116
1.14099
1.14081
1.14064
1.14047
1.1403
1.14012
1.13995
1.13978
1.13961
1.13944
1.13927
1.13911
1.13894
1.13878
1.13862
1.13846
1.1383
1.13814
1.13798
1.13781
1.13765
1.13749
1.13734
1.13719
1.13703
1.13688
1.13673
1.13658
1.13643
1.13628
1.13613
1.13599
1.13584
1.1357
1.13556
1.13541
1.13527
1.13512
1.13498
1.13484
1.13469
1.13455
1.13442
1.1343
1.13417
1.13404
1.13391
1.13377
1.13362
1.13348
1.13335
1.13322
1.1331
1.13298
1.13286
1.13273
1.1326
1.13248
1.13235
1.13224
1.13212
1.13201
1.1319
1.13178
1.13167
1.13156
1.13145
1.13134
1.13123
1.13112
1.13101
1.1309
1.1308
1.13069
1.13059
1.13049
1.13039
1.13028
1.13018
1.13008
1.12998
1.12988
1.12979
1.12969
1.12959
1.1295
1.1294
1.12931
1.12921
1.12912
1.12903
1.12894
1.12885
1.12876
1.12867
1.12857
1.12848
1.12837
1.12827
1.12818
1.1281
1.12802
1.12794
1.12787
1.12779
1.12772
1.12764
1.12756
1.12748
1.12741
1.12733
1.12725
1.12717
1.1271
1.12703
1.12696
1.12688
1.12681
1.12674
1.12666
1.12659
1.12652
1.12645
1.12639
1.12632
1.12626
1.1262
1.12613
1.12607
1.126
1.12594
1.12588
1.12582
1.12576
1.1257
1.12564
1.12559
1.12553
1.12548
1.12542
1.12537
1.12531
1.12526
1.1252
1.12515
1.12509
1.12503
1.12498
1.12493
1.12487
1.12482
1.12476
1.1247
1.12465
1.12461
1.12456
1.12452
1.12448
1.12444
1.12439
1.12435
1.12431
1.12427
1.12423
1.12418
1.12414
1.1241
1.12406
1.12403
1.12399
1.12395
1.12391
1.12388
1.12384
1.1238
1.12376
1.12373
1.12369
1.12366
1.12362
1.12359
1.12356
1.12353
1.1235
1.12347
1.12344
1.12341
1.12338
1.12335
1.12332
1.1233
1.12327
1.12325
1.12322
1.12319
1.12317
1.12314
1.12312
1.12309
1.12307
1.12305
1.12303
1.12301
1.12299
1.12297
1.12295
1.12293
1.12291
1.12289
1.12287
1.12285
1.12284
1.12282
1.1228
1.12279
1.12277
1.12276
1.12274
1.12273
1.12271
1.1227
1.12269
1.12267
1.12266
1.12265
1.12264
1.12263
1.12262
1.12261
1.1226
1.12259
1.12258
1.12257
1.12257
1.12256
1.12255
1.12255
1.12254
1.12253
1.12253
1.12252
1.12252
1.12252
1.12251
1.12251
1.12251
1.1225
1.1225
1.1225
1.1225
1.1225
1.17633
1.17606
1.17578
1.17551
1.17523
1.17495
1.17468
1.1744
1.17412
1.17385
1.17357
1.17329
1.17302
1.17274
1.17246
1.17218
1.17191
1.17163
1.17135
1.17107
1.17079
1.17052
1.17025
1.16999
1.16972
1.16945
1.16918
1.16891
1.16863
1.16836
1.16809
1.16783
1.16756
1.16729
1.16703
1.16676
1.16649
1.16623
1.16597
1.1657
1.16543
1.16516
1.1649
1.16464
1.16437
1.1641
1.16385
1.16359
1.16334
1.16307
1.1628
1.16254
1.16229
1.16203
1.16177
1.16151
1.16126
1.161
1.16074
1.16049
1.16024
1.15999
1.15974
1.15949
1.15925
1.159
1.15875
1.1585
1.15826
1.15801
1.15776
1.15752
1.15726
1.15702
1.15678
1.15654
1.1563
1.15606
1.15582
1.15558
1.15534
1.1551
1.15486
1.15463
1.15439
1.15415
1.15392
1.15368
1.15345
1.15322
1.15299
1.15276
1.15253
1.1523
1.15207
1.15186
1.15164
1.15141
1.15119
1.15097
1.15075
1.15053
1.15031
1.15009
1.14986
1.14964
1.14943
1.14921
1.149
1.14878
1.14857
1.14836
1.14815
1.14795
1.14774
1.14754
1.14733
1.14712
1.14691
1.1467
1.14649
1.14629
1.14609
1.14589
1.14569
1.14549
1.14529
1.14509
1.1449
1.14471
1.14452
1.14433
1.14413
1.14393
1.14374
1.14355
1.14335
1.14316
1.14298
1.1428
1.14262
1.14243
1.14224
1.14206
1.14187
1.14169
1.14151
1.14133
1.14116
1.14099
1.14081
1.14064
1.14047
1.1403
1.14012
1.13995
1.13978
1.13961
1.13944
1.13927
1.13911
1.13894
1.13878
1.13862
1.13846
1.1383
1.13814
1.13798
1.13781
1.13765
1.13749
1.13734
1.13718
1.13703
1.13689
1.13674
1.13658
1.13643
1.13628
1.13613
1.13599
1.13584
1.1357
1.13556
1.13541
1.13527
1.13512
1.13498
1.13483
1.13468
1.13455
1.13442
1.1343
1.13417
1.13404
1.13391
1.13377
1.13362
1.13348
1.13335
1.13323
1.13311
1.13298
1.13285
1.13272
1.1326
1.13248
1.13236
1.13224
1.13212
1.13201
1.1319
1.13178
1.13167
1.13156
1.13145
1.13134
1.13123
1.13112
1.13102
1.13091
1.1308
1.13069
1.13059
1.13049
1.13039
1.13028
1.13018
1.13008
1.12998
1.12988
1.12979
1.12969
1.12959
1.1295
1.1294
1.12931
1.12921
1.12912
1.12903
1.12894
1.12885
1.12876
1.12867
1.12857
1.12847
1.12837
1.12827
1.12818
1.1281
1.12802
1.12795
1.12787
1.12779
1.12771
1.12764
1.12756
1.12748
1.1274
1.12733
1.12725
1.12718
1.1271
1.12703
1.12695
1.12688
1.12681
1.12674
1.12666
1.12659
1.12652
1.12645
1.12639
1.12632
1.12626
1.1262
1.12613
1.12607
1.126
1.12594
1.12588
1.12582
1.12576
1.1257
1.12564
1.12559
1.12553
1.12548
1.12542
1.12537
1.12531
1.12526
1.1252
1.12515
1.12509
1.12503
1.12497
1.12492
1.12487
1.12481
1.12475
1.1247
1.12466
1.12461
1.12457
1.12452
1.12448
1.12444
1.12439
1.12435
1.12431
1.12427
1.12423
1.12418
1.12414
1.1241
1.12407
1.12403
1.12399
1.12395
1.12391
1.12388
1.12384
1.1238
1.12376
1.12373
1.12369
1.12366
1.12363
1.12359
1.12356
1.12353
1.1235
1.12347
1.12344
1.12341
1.12338
1.12335
1.12332
1.1233
1.12327
1.12325
1.12322
1.12319
1.12317
1.12314
1.12312
1.1231
1.12307
1.12305
1.12303
1.12301
1.12299
1.12297
1.12295
1.12293
1.12291
1.12289
1.12287
1.12285
1.12284
1.12282
1.1228
1.12279
1.12277
1.12276
1.12274
1.12273
1.12271
1.1227
1.12269
1.12267
1.12266
1.12265
1.12264
1.12263
1.12262
1.12261
1.1226
1.12259
1.12258
1.12257
1.12257
1.12256
1.12255
1.12255
1.12254
1.12253
1.12253
1.12252
1.12252
1.12252
1.12251
1.12251
1.12251
1.1225
1.1225
1.1225
1.1225
1.1225
1.17633
1.17606
1.17578
1.17551
1.17523
1.17495
1.17467
1.1744
1.17412
1.17384
1.17357
1.1733
1.17302
1.17274
1.17246
1.17218
1.17191
1.17163
1.17135
1.17107
1.1708
1.17052
1.17025
1.16999
1.16972
1.16945
1.16918
1.1689
1.16863
1.16836
1.1681
1.16783
1.16757
1.1673
1.16702
1.16676
1.16649
1.16623
1.16597
1.1657
1.16543
1.16516
1.1649
1.16464
1.16437
1.16411
1.16385
1.16359
1.16333
1.16307
1.16281
1.16254
1.16228
1.16203
1.16177
1.16151
1.16126
1.161
1.16075
1.1605
1.16024
1.15999
1.15974
1.15949
1.15925
1.159
1.15875
1.1585
1.15825
1.158
1.15776
1.15752
1.15727
1.15703
1.15678
1.15653
1.15629
1.15606
1.15582
1.15558
1.15535
1.1551
1.15487
1.15463
1.1544
1.15416
1.15392
1.15368
1.15345
1.15322
1.15299
1.15276
1.15253
1.1523
1.15208
1.15185
1.15163
1.15142
1.1512
1.15098
1.15076
1.15054
1.15031
1.15009
1.14986
1.14964
1.14942
1.14921
1.149
1.14878
1.14857
1.14837
1.14816
1.14795
1.14774
1.14754
1.14733
1.14712
1.1469
1.1467
1.1465
1.14629
1.14609
1.14589
1.14569
1.14549
1.14529
1.14509
1.1449
1.14471
1.14452
1.14433
1.14413
1.14394
1.14374
1.14355
1.14335
1.14316
1.14298
1.14279
1.14261
1.14243
1.14225
1.14206
1.14188
1.14169
1.14151
1.14133
1.14116
1.14099
1.14081
1.14064
1.14047
1.14029
1.14012
1.13995
1.13978
1.13961
1.13944
1.13928
1.13911
1.13894
1.13878
1.13862
1.13846
1.13831
1.13815
1.13798
1.13781
1.13764
1.13749
1.13734
1.13719
1.13703
1.13688
1.13674
1.13659
1.13644
1.13629
1.13614
1.13599
1.13584
1.1357
1.13555
1.13541
1.13526
1.13511
1.13496
1.13482
1.13468
1.13455
1.13443
1.1343
1.13417
1.13404
1.1339
1.13377
1.13363
1.13349
1.13336
1.13323
1.13311
1.13298
1.13285
1.13272
1.1326
1.13248
1.13236
1.13224
1.13213
1.13201
1.1319
1.13178
1.13167
1.13156
1.13145
1.13134
1.13123
1.13113
1.13102
1.13091
1.1308
1.13069
1.13059
1.13049
1.13038
1.13028
1.13018
1.13008
1.12998
1.12988
1.12979
1.12969
1.1296
1.1295
1.1294
1.12931
1.12921
1.12912
1.12903
1.12894
1.12885
1.12876
1.12866
1.12857
1.12846
1.12836
1.12827
1.12818
1.12811
1.12803
1.12795
1.12787
1.12779
1.12771
1.12764
1.12756
1.12748
1.1274
1.12733
1.12725
1.12718
1.1271
1.12703
1.12696
1.12688
1.12681
1.12674
1.12666
1.12659
1.12652
1.12645
1.12639
1.12633
1.12626
1.1262
1.12613
1.12606
1.126
1.12594
1.12588
1.12582
1.12576
1.1257
1.12564
1.12559
1.12553
1.12548
1.12542
1.12537
1.12531
1.12526
1.1252
1.12514
1.12508
1.12502
1.12497
1.12492
1.12487
1.12481
1.12476
1.12471
1.12466
1.12461
1.12457
1.12452
1.12448
1.12444
1.12439
1.12435
1.12431
1.12427
1.12422
1.12418
1.12414
1.1241
1.12407
1.12403
1.12399
1.12395
1.12391
1.12387
1.12384
1.1238
1.12376
1.12373
1.12369
1.12366
1.12363
1.12359
1.12356
1.12353
1.1235
1.12347
1.12344
1.12341
1.12338
1.12335
1.12332
1.1233
1.12327
1.12325
1.12322
1.12319
1.12317
1.12314
1.12312
1.1231
1.12307
1.12305
1.12303
1.12301
1.12299
1.12297
1.12295
1.12293
1.12291
1.12289
1.12287
1.12285
1.12284
1.12282
1.1228
1.12279
1.12277
1.12276
1.12274
1.12273
1.12271
1.1227
1.12269
1.12267
1.12266
1.12265
1.12264
1.12263
1.12262
1.12261
1.1226
1.12259
1.12258
1.12257
1.12257
1.12256
1.12255
1.12255
1.12254
1.12253
1.12253
1.12252
1.12252
1.12252
1.12251
1.12251
1.12251
1.1225
1.1225
1.1225
1.1225
1.1225
1.17633
1.17606
1.17578
1.1755
1.17522
1.17494
1.17467
1.17439
1.17411
1.17384
1.17357
1.1733
1.17303
1.17274
1.17245
1.17218
1.17191
1.17163
1.17135
1.17107
1.17079
1.17052
1.17025
1.16999
1.16972
1.16945
1.16918
1.16891
1.16863
1.16836
1.16809
1.16783
1.16757
1.1673
1.16703
1.16676
1.1665
1.16623
1.16596
1.16569
1.16542
1.16516
1.16489
1.16464
1.16438
1.16411
1.16386
1.1636
1.16333
1.16307
1.1628
1.16254
1.16228
1.16203
1.16177
1.16151
1.16126
1.161
1.16075
1.1605
1.16024
1.15999
1.15974
1.1595
1.15926
1.15901
1.15876
1.15851
1.15825
1.158
1.15775
1.15751
1.15727
1.15702
1.15678
1.15653
1.15629
1.15606
1.15582
1.15558
1.15534
1.15511
1.15487
1.15464
1.1544
1.15416
1.15392
1.15368
1.15345
1.15322
1.15299
1.15276
1.15253
1.1523
1.15208
1.15185
1.15163
1.15142
1.1512
1.15098
1.15076
1.15054
1.15031
1.15009
1.14986
1.14964
1.14942
1.14921
1.149
1.14878
1.14858
1.14837
1.14816
1.14795
1.14774
1.14754
1.14733
1.14712
1.14691
1.1467
1.1465
1.14629
1.14609
1.14589
1.14569
1.14548
1.14529
1.14509
1.1449
1.14471
1.14452
1.14432
1.14413
1.14394
1.14375
1.14355
1.14335
1.14317
1.14297
1.14279
1.14261
1.14243
1.14224
1.14206
1.14188
1.14169
1.14151
1.14134
1.14116
1.14099
1.14081
1.14064
1.14046
1.14029
1.14012
1.13995
1.13978
1.13961
1.13944
1.13928
1.13911
1.13894
1.13877
1.13861
1.13846
1.13831
1.13815
1.13798
1.13781
1.13765
1.13749
1.13734
1.13719
1.13704
1.13689
1.13674
1.13659
1.13644
1.13629
1.13614
1.13599
1.13584
1.1357
1.13555
1.13539
1.13524
1.1351
1.13496
1.13482
1.13469
1.13456
1.13443
1.1343
1.13416
1.13403
1.1339
1.13377
1.13363
1.1335
1.13337
1.13324
1.13311
1.13298
1.13285
1.13272
1.1326
1.13248
1.13236
1.13224
1.13213
1.13201
1.1319
1.13178
1.13167
1.13156
1.13145
1.13134
1.13123
1.13112
1.13102
1.13091
1.1308
1.1307
1.13059
1.13048
1.13038
1.13028
1.13018
1.13008
1.12998
1.12989
1.12979
1.12969
1.1296
1.1295
1.1294
1.12931
1.12921
1.12912
1.12903
1.12894
1.12885
1.12875
1.12866
1.12855
1.12846
1.12836
1.12827
1.12819
1.12811
1.12803
1.12795
1.12787
1.12779
1.12771
1.12764
1.12756
1.12748
1.1274
1.12733
1.12725
1.12718
1.1271
1.12703
1.12696
1.12688
1.12681
1.12674
1.12666
1.12659
1.12652
1.12645
1.12639
1.12633
1.12626
1.12619
1.12613
1.12606
1.126
1.12594
1.12588
1.12582
1.12576
1.1257
1.12565
1.12559
1.12553
1.12548
1.12542
1.12537
1.12531
1.12526
1.1252
1.12513
1.12507
1.12502
1.12497
1.12492
1.12487
1.12482
1.12476
1.12471
1.12466
1.12461
1.12457
1.12452
1.12448
1.12444
1.12439
1.12435
1.12431
1.12427
1.12422
1.12418
1.12414
1.1241
1.12407
1.12403
1.12399
1.12395
1.12391
1.12387
1.12383
1.1238
1.12376
1.12373
1.12369
1.12366
1.12363
1.12359
1.12356
1.12353
1.1235
1.12347
1.12344
1.12341
1.12338
1.12335
1.12332
1.1233
1.12327
1.12324
1.12322
1.12319
1.12317
1.12314
1.12312
1.1231
1.12307
1.12305
1.12303
1.12301
1.12299
1.12297
1.12295
1.12293
1.12291
1.12289
1.12287
1.12285
1.12284
1.12282
1.1228
1.12279
1.12277
1.12276
1.12274
1.12273
1.12271
1.1227
1.12268
1.12267
1.12266
1.12265
1.12264
1.12263
1.12262
1.12261
1.1226
1.12259
1.12258
1.12257
1.12257
1.12256
1.12255
1.12255
1.12254
1.12253
1.12253
1.12252
1.12252
1.12252
1.12251
1.12251
1.12251
1.1225
1.1225
1.1225
1.1225
1.1225
1.17634
1.17607
1.17579
1.1755
1.17523
1.17494
1.17466
1.17439
1.17411
1.17385
1.17357
1.1733
1.17302
1.17274
1.17246
1.17218
1.1719
1.17163
1.17136
1.17108
1.17079
1.17052
1.17025
1.16998
1.16972
1.16945
1.16918
1.16891
1.16864
1.16836
1.16809
1.16783
1.16757
1.1673
1.16703
1.16676
1.1665
1.16623
1.16596
1.16569
1.16542
1.16516
1.1649
1.16464
1.16438
1.16411
1.16386
1.1636
1.16334
1.16307
1.1628
1.16254
1.16229
1.16203
1.16177
1.16151
1.16126
1.161
1.16075
1.1605
1.16024
1.15999
1.15974
1.1595
1.15926
1.15901
1.15876
1.15851
1.15825
1.158
1.15775
1.15751
1.15726
1.15702
1.15678
1.15653
1.15629
1.15605
1.15582
1.15558
1.15534
1.15511
1.15487
1.15464
1.1544
1.15416
1.15392
1.15368
1.15345
1.15322
1.15299
1.15276
1.15253
1.1523
1.15208
1.15186
1.15164
1.15142
1.1512
1.15098
1.15076
1.15054
1.15031
1.15008
1.14985
1.14964
1.14942
1.14921
1.149
1.14878
1.14857
1.14837
1.14816
1.14795
1.14774
1.14754
1.14733
1.14713
1.14691
1.1467
1.1465
1.1463
1.14609
1.14589
1.14568
1.14548
1.14528
1.14509
1.1449
1.1447
1.14451
1.14432
1.14413
1.14394
1.14375
1.14355
1.14335
1.14316
1.14297
1.14279
1.14261
1.14243
1.14224
1.14206
1.14188
1.1417
1.14152
1.14134
1.14116
1.14099
1.14081
1.14064
1.14046
1.14029
1.14012
1.13995
1.13978
1.13961
1.13945
1.13927
1.1391
1.13893
1.13877
1.13862
1.13846
1.1383
1.13815
1.13798
1.13781
1.13765
1.13749
1.13734
1.13719
1.13704
1.13688
1.13674
1.13659
1.13644
1.1363
1.13615
1.136
1.13585
1.13569
1.13554
1.13538
1.13523
1.13509
1.13495
1.13482
1.13469
1.13456
1.13443
1.1343
1.13416
1.13403
1.1339
1.13377
1.13363
1.1335
1.13337
1.13324
1.13312
1.13299
1.13286
1.13272
1.1326
1.13248
1.13236
1.13224
1.13213
1.13201
1.1319
1.13178
1.13167
1.13156
1.13145
1.13134
1.13123
1.13112
1.13101
1.13091
1.1308
1.1307
1.13059
1.13048
1.13038
1.13028
1.13018
1.13008
1.12998
1.12989
1.12979
1.1297
1.1296
1.1295
1.1294
1.12931
1.12921
1.12912
1.12902
1.12893
1.12884
1.12875
1.12865
1.12855
1.12845
1.12836
1.12828
1.12819
1.12811
1.12803
1.12795
1.12787
1.12779
1.12771
1.12764
1.12756
1.12748
1.1274
1.12733
1.12725
1.12718
1.1271
1.12703
1.12696
1.12688
1.12681
1.12673
1.12666
1.12659
1.12652
1.12645
1.12639
1.12633
1.12626
1.12619
1.12613
1.12606
1.126
1.12594
1.12588
1.12582
1.12576
1.1257
1.12565
1.12559
1.12553
1.12548
1.12542
1.12537
1.12531
1.12525
1.12519
1.12512
1.12507
1.12502
1.12497
1.12492
1.12487
1.12482
1.12477
1.12472
1.12467
1.12462
1.12457
1.12452
1.12448
1.12444
1.12439
1.12435
1.12431
1.12427
1.12422
1.12418
1.12414
1.1241
1.12407
1.12403
1.12399
1.12395
1.12391
1.12387
1.12384
1.1238
1.12377
1.12373
1.12369
1.12366
1.12363
1.12359
1.12356
1.12353
1.1235
1.12347
1.12344
1.12341
1.12338
1.12335
1.12332
1.1233
1.12327
1.12324
1.12322
1.12319
1.12317
1.12314
1.12312
1.1231
1.12307
1.12305
1.12303
1.12301
1.12299
1.12297
1.12295
1.12293
1.12291
1.12289
1.12287
1.12285
1.12284
1.12282
1.1228
1.12279
1.12277
1.12276
1.12274
1.12273
1.12271
1.1227
1.12268
1.12267
1.12266
1.12265
1.12264
1.12263
1.12262
1.12261
1.1226
1.12259
1.12258
1.12257
1.12257
1.12256
1.12255
1.12255
1.12254
1.12253
1.12253
1.12252
1.12252
1.12252
1.12251
1.12251
1.12251
1.1225
1.1225
1.1225
1.1225
1.1225
1.17634
1.17607
1.17579
1.17551
1.17523
1.17495
1.17466
1.17438
1.17411
1.17384
1.17357
1.1733
1.17302
1.17273
1.17245
1.17218
1.17191
1.17163
1.17136
1.17108
1.1708
1.17052
1.17025
1.16999
1.16972
1.16945
1.16917
1.1689
1.16863
1.16836
1.16809
1.16783
1.16756
1.1673
1.16704
1.16677
1.16649
1.16622
1.16596
1.16569
1.16543
1.16516
1.1649
1.16464
1.16437
1.16411
1.16385
1.1636
1.16333
1.16307
1.1628
1.16254
1.16229
1.16203
1.16177
1.16152
1.16126
1.161
1.16075
1.1605
1.16025
1.16
1.15975
1.1595
1.15925
1.15901
1.15876
1.1585
1.15825
1.158
1.15775
1.1575
1.15725
1.15701
1.15677
1.15653
1.15629
1.15605
1.15582
1.15558
1.15534
1.15511
1.15487
1.15464
1.1544
1.15416
1.15392
1.15368
1.15345
1.15322
1.15299
1.15277
1.15253
1.1523
1.15208
1.15186
1.15164
1.15141
1.15119
1.15098
1.15076
1.15054
1.15031
1.15008
1.14985
1.14964
1.14943
1.14922
1.149
1.14878
1.14858
1.14837
1.14816
1.14795
1.14774
1.14754
1.14733
1.14712
1.14691
1.1467
1.1465
1.1463
1.14609
1.14589
1.14568
1.14548
1.14529
1.14509
1.14489
1.1447
1.14451
1.14433
1.14414
1.14395
1.14375
1.14355
1.14335
1.14315
1.14297
1.14279
1.14261
1.14243
1.14225
1.14206
1.14188
1.1417
1.14152
1.14134
1.14117
1.14099
1.14081
1.14064
1.14046
1.14028
1.14011
1.13995
1.13978
1.13961
1.13944
1.13927
1.1391
1.13893
1.13877
1.13862
1.13846
1.1383
1.13815
1.13798
1.13782
1.13765
1.13749
1.13734
1.13719
1.13704
1.13689
1.13674
1.13659
1.13645
1.1363
1.13615
1.136
1.13585
1.13569
1.13553
1.13536
1.13521
1.13508
1.13496
1.13483
1.1347
1.13456
1.13443
1.1343
1.13416
1.13403
1.1339
1.13377
1.13363
1.1335
1.13337
1.13325
1.13312
1.13299
1.13286
1.13273
1.1326
1.13248
1.13236
1.13224
1.13213
1.13201
1.1319
1.13178
1.13167
1.13156
1.13145
1.13134
1.13123
1.13112
1.13102
1.13091
1.1308
1.1307
1.13059
1.13049
1.13038
1.13028
1.13018
1.13008
1.12998
1.12989
1.12979
1.1297
1.1296
1.1295
1.1294
1.1293
1.12921
1.12911
1.12902
1.12893
1.12883
1.12874
1.12865
1.12855
1.12846
1.12837
1.12828
1.1282
1.12812
1.12804
1.12796
1.12788
1.1278
1.12772
1.12764
1.12756
1.12748
1.1274
1.12733
1.12725
1.12718
1.1271
1.12703
1.12696
1.12688
1.12681
1.12673
1.12666
1.12659
1.12652
1.12645
1.12639
1.12632
1.12626
1.12619
1.12613
1.12606
1.126
1.12594
1.12588
1.12582
1.12576
1.1257
1.12565
1.12559
1.12553
1.12548
1.12542
1.12537
1.12531
1.12525
1.12518
1.12512
1.12507
1.12502
1.12497
1.12492
1.12487
1.12482
1.12477
1.12472
1.12467
1.12462
1.12457
1.12453
1.12448
1.12444
1.12439
1.12435
1.12431
1.12427
1.12422
1.12418
1.12414
1.1241
1.12406
1.12403
1.12399
1.12395
1.12391
1.12387
1.12384
1.1238
1.12377
1.12373
1.12369
1.12366
1.12363
1.12359
1.12356
1.12353
1.1235
1.12347
1.12344
1.12341
1.12338
1.12335
1.12332
1.1233
1.12327
1.12324
1.12322
1.12319
1.12317
1.12314
1.12312
1.1231
1.12308
1.12305
1.12303
1.12301
1.12299
1.12297
1.12295
1.12293
1.12291
1.12289
1.12287
1.12285
1.12284
1.12282
1.1228
1.12279
1.12277
1.12276
1.12274
1.12273
1.12271
1.1227
1.12268
1.12267
1.12266
1.12265
1.12264
1.12263
1.12262
1.12261
1.1226
1.12259
1.12258
1.12257
1.12257
1.12256
1.12255
1.12255
1.12254
1.12253
1.12253
1.12252
1.12252
1.12252
1.12251
1.12251
1.12251
1.1225
1.1225
1.1225
1.1225
1.1225
1.17634
1.17606
1.17579
1.17551
1.17523
1.17495
1.17467
1.17439
1.17411
1.17383
1.17356
1.17329
1.17302
1.17273
1.17245
1.17218
1.17191
1.17163
1.17135
1.17108
1.17081
1.17053
1.17026
1.16999
1.16972
1.16945
1.16917
1.1689
1.16863
1.16836
1.16809
1.16783
1.16757
1.1673
1.16703
1.16676
1.16649
1.16623
1.16596
1.16569
1.16543
1.16516
1.1649
1.16464
1.16437
1.16411
1.16385
1.16359
1.16333
1.16306
1.1628
1.16254
1.16229
1.16203
1.16177
1.16152
1.16126
1.16101
1.16076
1.1605
1.16025
1.16
1.15975
1.1595
1.15925
1.15901
1.15875
1.1585
1.15824
1.158
1.15775
1.1575
1.15725
1.15701
1.15677
1.15653
1.15629
1.15605
1.15582
1.15558
1.15534
1.15511
1.15487
1.15463
1.1544
1.15416
1.15392
1.15368
1.15345
1.15322
1.15299
1.15277
1.15254
1.15231
1.15208
1.15186
1.15164
1.15142
1.1512
1.15097
1.15075
1.15053
1.1503
1.15008
1.14986
1.14964
1.14943
1.14922
1.149
1.14879
1.14858
1.14837
1.14816
1.14795
1.14774
1.14754
1.14733
1.14712
1.14691
1.1467
1.1465
1.1463
1.14609
1.14589
1.14568
1.14548
1.14529
1.14509
1.14489
1.1447
1.14452
1.14433
1.14414
1.14394
1.14374
1.14354
1.14335
1.14316
1.14297
1.14279
1.14261
1.14242
1.14224
1.14206
1.14188
1.1417
1.14152
1.14134
1.14117
1.14099
1.14081
1.14064
1.14046
1.14028
1.14011
1.13994
1.13978
1.13961
1.13944
1.13927
1.1391
1.13894
1.13878
1.13862
1.13846
1.1383
1.13815
1.13798
1.13782
1.13765
1.13749
1.13734
1.13719
1.13703
1.13689
1.13674
1.1366
1.13645
1.1363
1.13616
1.136
1.13585
1.13569
1.13551
1.13535
1.13521
1.13508
1.13496
1.13483
1.13469
1.13456
1.13443
1.1343
1.13416
1.13403
1.1339
1.13376
1.13363
1.1335
1.13337
1.13325
1.13312
1.13299
1.13286
1.13273
1.1326
1.13248
1.13236
1.13224
1.13212
1.13201
1.1319
1.13179
1.13167
1.13156
1.13145
1.13134
1.13123
1.13112
1.13102
1.13091
1.1308
1.1307
1.13059
1.13049
1.13038
1.13028
1.13018
1.13008
1.12998
1.12989
1.12979
1.12969
1.1296
1.1295
1.1294
1.1293
1.1292
1.12911
1.12901
1.12892
1.12883
1.12874
1.12865
1.12855
1.12846
1.12837
1.12828
1.1282
1.12812
1.12804
1.12796
1.12788
1.1278
1.12772
1.12764
1.12756
1.12748
1.1274
1.12732
1.12725
1.12717
1.1271
1.12703
1.12696
1.12688
1.12681
1.12673
1.12666
1.12659
1.12652
1.12645
1.12639
1.12632
1.12626
1.12619
1.12613
1.12606
1.126
1.12594
1.12588
1.12582
1.12576
1.12571
1.12565
1.12559
1.12553
1.12547
1.12542
1.12536
1.1253
1.12524
1.12518
1.12512
1.12507
1.12502
1.12497
1.12492
1.12487
1.12482
1.12477
1.12472
1.12467
1.12462
1.12457
1.12453
1.12448
1.12444
1.12439
1.12435
1.12431
1.12427
1.12422
1.12418
1.12414
1.1241
1.12406
1.12403
1.12399
1.12395
1.12391
1.12387
1.12384
1.1238
1.12377
1.12373
1.12369
1.12366
1.12363
1.1236
1.12356
1.12353
1.1235
1.12347
1.12344
1.12341
1.12338
1.12335
1.12332
1.1233
1.12327
1.12324
1.12322
1.12319
1.12317
1.12314
1.12312
1.1231
1.12308
1.12305
1.12303
1.12301
1.12299
1.12297
1.12295
1.12293
1.12291
1.12289
1.12287
1.12285
1.12284
1.12282
1.1228
1.12279
1.12277
1.12276
1.12274
1.12273
1.12271
1.1227
1.12268
1.12267
1.12266
1.12265
1.12264
1.12263
1.12262
1.12261
1.1226
1.12259
1.12258
1.12257
1.12257
1.12256
1.12255
1.12255
1.12254
1.12253
1.12253
1.12252
1.12252
1.12252
1.12251
1.12251
1.12251
1.1225
1.1225
1.1225
1.1225
1.1225
1.17633
1.17606
1.17579
1.17551
1.17523
1.17495
1.17467
1.17439
1.17411
1.17384
1.17356
1.17329
1.17301
1.17273
1.17245
1.17218
1.1719
1.17163
1.17136
1.17108
1.17081
1.17053
1.17026
1.16998
1.16972
1.16945
1.16917
1.1689
1.16863
1.16836
1.1681
1.16783
1.16757
1.1673
1.16703
1.16676
1.1665
1.16623
1.16596
1.16569
1.16542
1.16516
1.1649
1.16464
1.16437
1.16411
1.16385
1.16359
1.16333
1.16306
1.1628
1.16255
1.16229
1.16203
1.16177
1.16152
1.16127
1.16101
1.16076
1.1605
1.16025
1.16
1.15975
1.1595
1.15925
1.159
1.15875
1.1585
1.15824
1.15799
1.15774
1.1575
1.15725
1.15701
1.15677
1.15653
1.15629
1.15606
1.15582
1.15558
1.15534
1.1551
1.15487
1.15463
1.1544
1.15416
1.15392
1.15368
1.15345
1.15322
1.15299
1.15277
1.15254
1.15231
1.15209
1.15186
1.15164
1.15142
1.1512
1.15097
1.15075
1.15053
1.1503
1.15008
1.14986
1.14964
1.14943
1.14922
1.149
1.1488
1.14859
1.14837
1.14816
1.14795
1.14774
1.14754
1.14733
1.14712
1.14691
1.14671
1.1465
1.1463
1.14609
1.14589
1.14568
1.14548
1.14529
1.14509
1.1449
1.14471
1.14452
1.14433
1.14413
1.14394
1.14374
1.14354
1.14334
1.14316
1.14297
1.14279
1.14261
1.14242
1.14224
1.14206
1.14188
1.1417
1.14152
1.14134
1.14117
1.14099
1.14081
1.14064
1.14046
1.14028
1.14011
1.13994
1.13977
1.13961
1.13944
1.13927
1.1391
1.13894
1.13878
1.13862
1.13846
1.1383
1.13815
1.13799
1.13782
1.13765
1.13749
1.13734
1.13719
1.13704
1.13689
1.13674
1.13659
1.13645
1.1363
1.13615
1.136
1.13584
1.13567
1.1355
1.13535
1.13522
1.13509
1.13496
1.13483
1.1347
1.13456
1.13443
1.1343
1.13416
1.13403
1.1339
1.13376
1.13363
1.1335
1.13338
1.13325
1.13312
1.13299
1.13287
1.13274
1.13261
1.13248
1.13236
1.13224
1.13213
1.13201
1.1319
1.13179
1.13167
1.13156
1.13145
1.13134
1.13123
1.13112
1.13102
1.13091
1.1308
1.1307
1.13059
1.13049
1.13038
1.13028
1.13018
1.13008
1.12998
1.12988
1.12979
1.12969
1.12959
1.1295
1.1294
1.1293
1.1292
1.1291
1.12901
1.12892
1.12883
1.12874
1.12865
1.12856
1.12846
1.12837
1.12829
1.1282
1.12812
1.12804
1.12796
1.12788
1.1278
1.12772
1.12764
1.12756
1.12748
1.1274
1.12732
1.12725
1.12717
1.1271
1.12703
1.12696
1.12688
1.12681
1.12674
1.12666
1.12659
1.12652
1.12645
1.12639
1.12632
1.12626
1.12619
1.12613
1.12607
1.126
1.12594
1.12588
1.12582
1.12576
1.12571
1.12565
1.12559
1.12553
1.12547
1.12542
1.12536
1.1253
1.12524
1.12518
1.12512
1.12507
1.12502
1.12497
1.12492
1.12487
1.12482
1.12477
1.12472
1.12467
1.12462
1.12457
1.12453
1.12448
1.12444
1.12439
1.12435
1.12431
1.12427
1.12423
1.12418
1.12414
1.1241
1.12406
1.12402
1.12399
1.12395
1.12391
1.12387
1.12384
1.1238
1.12376
1.12373
1.1237
1.12366
1.12363
1.1236
1.12356
1.12353
1.1235
1.12347
1.12344
1.12341
1.12338
1.12335
1.12332
1.1233
1.12327
1.12324
1.12322
1.12319
1.12317
1.12314
1.12312
1.1231
1.12307
1.12305
1.12303
1.12301
1.12299
1.12297
1.12295
1.12293
1.12291
1.12289
1.12287
1.12285
1.12284
1.12282
1.1228
1.12279
1.12277
1.12276
1.12274
1.12273
1.12271
1.1227
1.12268
1.12267
1.12266
1.12265
1.12264
1.12263
1.12262
1.12261
1.1226
1.12259
1.12258
1.12257
1.12257
1.12256
1.12255
1.12255
1.12254
1.12253
1.12253
1.12252
1.12252
1.12252
1.12251
1.12251
1.12251
1.1225
1.1225
1.1225
1.1225
1.1225
1.17633
1.17605
1.17579
1.17551
1.17523
1.17495
1.17467
1.17439
1.17412
1.17384
1.17357
1.17329
1.17301
1.17273
1.17245
1.17218
1.17191
1.17163
1.17136
1.17109
1.17081
1.17053
1.17025
1.16998
1.16971
1.16944
1.16917
1.1689
1.16863
1.16836
1.1681
1.16783
1.16756
1.1673
1.16703
1.16676
1.16649
1.16623
1.16596
1.16569
1.16542
1.16516
1.1649
1.16464
1.16437
1.16411
1.16385
1.16359
1.16332
1.16306
1.1628
1.16255
1.16229
1.16203
1.16178
1.16152
1.16127
1.16102
1.16076
1.1605
1.16025
1.16
1.15975
1.1595
1.15924
1.15899
1.15875
1.1585
1.15824
1.15799
1.15775
1.1575
1.15725
1.15701
1.15677
1.15653
1.15629
1.15606
1.15582
1.15558
1.15534
1.15511
1.15487
1.15463
1.15439
1.15416
1.15392
1.15368
1.15345
1.15322
1.15299
1.15276
1.15254
1.15231
1.15209
1.15187
1.15165
1.15142
1.15119
1.15097
1.15075
1.15052
1.1503
1.15008
1.14986
1.14964
1.14942
1.14921
1.14901
1.1488
1.14859
1.14838
1.14816
1.14795
1.14774
1.14753
1.14733
1.14712
1.14691
1.14671
1.1465
1.1463
1.14609
1.14589
1.14568
1.14548
1.14529
1.14509
1.1449