/*--------------------------------*- C++ -*----------------------------------*\
  =========                 |
  \\      /  F ield         | OpenFOAM: The Open Source CFD Toolbox
   \\    /   O peration     | Website:  https://openfoam.org
    \\  /    A nd           | Version:  7
     \\/     M anipulation  |
\*---------------------------------------------------------------------------*/
FoamFile
{
    version     2.0;
    format      ascii;
    class       volScalarField;
    location    "6000";
    object      T;
}
// * * * * * * * * * * * * * * * * * * * * * * * * * * * * * * * * * * * * * //

dimensions      [0 0 0 1 0 0 0];

internalField   nonuniform List<scalar> 
160000
(
300.035
300.106
300.177
300.248
300.321
300.393
300.465
300.536
300.605
300.678
300.752
300.823
300.895
300.97
301.043
301.114
301.185
301.255
301.328
301.402
301.473
301.544
301.614
301.685
301.755
301.825
301.898
301.972
302.044
302.115
302.184
302.253
302.324
302.395
302.463
302.533
302.605
302.677
302.747
302.816
302.886
302.955
303.026
303.095
303.165
303.238
303.309
303.376
303.443
303.511
303.579
303.65
303.722
303.791
303.861
303.93
303.999
304.068
304.132
304.198
304.268
304.338
304.404
304.469
304.533
304.6
304.668
304.737
304.803
304.866
304.933
305.002
305.068
305.135
305.2
305.265
305.33
305.394
305.458
305.524
305.588
305.655
305.72
305.784
305.849
305.914
305.978
306.04
306.101
306.165
306.227
306.289
306.354
306.419
306.481
306.541
306.601
306.662
306.722
306.781
306.841
306.901
306.961
307.024
307.084
307.145
307.204
307.262
307.323
307.383
307.442
307.499
307.556
307.614
307.67
307.727
307.784
307.841
307.901
307.96
308.016
308.071
308.126
308.182
308.238
308.295
308.352
308.406
308.459
308.513
308.565
308.617
308.67
308.727
308.784
308.838
308.891
308.944
308.995
309.045
309.096
309.15
309.201
309.251
309.304
309.357
309.407
309.458
309.507
309.555
309.603
309.652
309.699
309.748
309.796
309.844
309.893
309.941
309.99
310.037
310.084
310.131
310.176
310.222
310.267
310.311
310.358
310.404
310.45
310.495
310.54
310.586
310.629
310.672
310.715
310.757
310.8
310.842
310.885
310.929
310.97
311.011
311.053
311.093
311.133
311.175
311.216
311.257
311.297
311.338
311.379
311.416
311.452
311.489
311.528
311.566
311.604
311.647
311.688
311.725
311.761
311.796
311.83
311.865
311.902
311.939
311.976
312.011
312.044
312.077
312.11
312.142
312.175
312.207
312.239
312.27
312.301
312.333
312.365
312.397
312.43
312.461
312.49
312.519
312.548
312.578
312.608
312.637
312.667
312.696
312.724
312.752
312.78
312.808
312.837
312.865
312.892
312.919
312.945
312.972
312.998
313.024
313.05
313.077
313.105
313.133
313.163
313.192
313.218
313.243
313.266
313.289
313.311
313.333
313.355
313.377
313.4
313.422
313.444
313.467
313.492
313.515
313.536
313.556
313.577
313.598
313.62
313.641
313.661
313.684
313.705
313.724
313.743
313.762
313.78
313.798
313.817
313.837
313.857
313.875
313.892
313.909
313.927
313.944
313.962
313.978
313.995
314.011
314.027
314.043
314.059
314.075
314.091
314.107
314.124
314.14
314.156
314.172
314.187
314.203
314.22
314.238
314.254
314.267
314.279
314.292
314.304
314.316
314.328
314.341
314.353
314.366
314.378
314.39
314.402
314.414
314.426
314.438
314.448
314.459
314.47
314.481
314.491
314.502
314.514
314.526
314.537
314.547
314.556
314.565
314.574
314.583
314.592
314.601
314.61
314.618
314.627
314.635
314.644
314.652
314.66
314.668
314.675
314.682
314.69
314.697
314.705
314.712
314.719
314.725
314.732
314.738
314.744
314.75
314.756
314.762
314.767
314.773
314.778
314.784
314.789
314.793
314.798
314.803
314.808
314.812
314.817
314.821
314.826
314.83
314.833
314.837
314.84
314.844
314.847
314.85
314.853
314.856
314.859
314.861
314.864
314.866
314.868
314.87
314.872
314.874
314.876
314.878
314.879
314.881
314.882
314.883
314.884
314.885
314.886
314.887
314.887
314.888
314.888
314.888
300.037
300.108
300.177
300.249
300.32
300.392
300.464
300.536
300.607
300.678
300.752
300.824
300.895
300.968
301.042
301.114
301.183
301.255
301.33
301.403
301.474
301.544
301.615
301.686
301.755
301.824
301.897
301.971
302.044
302.115
302.185
302.254
302.324
302.395
302.463
302.533
302.607
302.676
302.744
302.816
302.887
302.956
303.026
303.095
303.165
303.238
303.309
303.375
303.442
303.512
303.582
303.651
303.721
303.791
303.861
303.928
303.998
304.066
304.133
304.2
304.268
304.337
304.404
304.469
304.534
304.601
304.668
304.734
304.802
304.868
304.935
305.003
305.069
305.134
305.199
305.265
305.33
305.394
305.458
305.524
305.59
305.655
305.719
305.783
305.847
305.914
305.978
306.04
306.102
306.165
306.228
306.291
306.355
306.419
306.48
306.54
306.6
306.661
306.722
306.781
306.841
306.901
306.961
307.023
307.086
307.145
307.204
307.264
307.323
307.383
307.442
307.499
307.556
307.613
307.67
307.727
307.784
307.842
307.901
307.959
308.016
308.072
308.127
308.183
308.239
308.295
308.351
308.405
308.459
308.513
308.565
308.617
308.671
308.728
308.784
308.837
308.89
308.944
308.995
309.045
309.096
309.149
309.201
309.252
309.305
309.357
309.407
309.457
309.506
309.554
309.603
309.652
309.699
309.748
309.797
309.845
309.894
309.942
309.99
310.037
310.084
310.131
310.177
310.222
310.266
310.311
310.358
310.404
310.45
310.496
310.542
310.586
310.628
310.671
310.715
310.757
310.8
310.843
310.886
310.928
310.97
311.011
311.052
311.092
311.133
311.175
311.216
311.257
311.297
311.34
311.38
311.417
311.452
311.488
311.526
311.565
311.605
311.648
311.688
311.724
311.76
311.795
311.83
311.866
311.903
311.94
311.976
312.01
312.044
312.077
312.11
312.142
312.175
312.207
312.239
312.27
312.302
312.334
312.365
312.397
312.429
312.46
312.489
312.519
312.548
312.578
312.608
312.637
312.667
312.696
312.724
312.752
312.78
312.809
312.837
312.865
312.892
312.919
312.945
312.972
312.998
313.023
313.05
313.078
313.105
313.133
313.164
313.193
313.219
313.243
313.266
313.288
313.31
313.333
313.355
313.377
313.4
313.422
313.445
313.468
313.492
313.514
313.535
313.556
313.577
313.599
313.62
313.641
313.662
313.684
313.704
313.724
313.743
313.762
313.78
313.798
313.817
313.837
313.857
313.875
313.892
313.909
313.927
313.944
313.962
313.978
313.995
314.011
314.026
314.043
314.059
314.075
314.091
314.108
314.124
314.14
314.157
314.172
314.187
314.204
314.222
314.239
314.253
314.266
314.279
314.291
314.304
314.316
314.328
314.341
314.353
314.366
314.378
314.39
314.403
314.415
314.426
314.437
314.448
314.459
314.47
314.481
314.492
314.503
314.515
314.526
314.536
314.546
314.556
314.565
314.574
314.583
314.592
314.601
314.61
314.618
314.627
314.636
314.644
314.652
314.66
314.668
314.675
314.683
314.69
314.698
314.705
314.712
314.719
314.725
314.732
314.738
314.744
314.75
314.756
314.762
314.767
314.773
314.778
314.784
314.789
314.793
314.798
314.803
314.808
314.812
314.817
314.821
314.826
314.83
314.833
314.837
314.84
314.844
314.847
314.85
314.853
314.856
314.859
314.861
314.864
314.866
314.868
314.87
314.873
314.874
314.876
314.878
314.879
314.881
314.882
314.883
314.884
314.885
314.886
314.887
314.887
314.888
314.888
314.888
300.036
300.106
300.177
300.249
300.321
300.393
300.463
300.536
300.608
300.678
300.752
300.824
300.894
300.966
301.041
301.113
301.185
301.258
301.33
301.402
301.475
301.546
301.617
301.686
301.756
301.826
301.897
301.969
302.043
302.114
302.183
302.253
302.324
302.395
302.464
302.534
302.606
302.676
302.744
302.815
302.886
302.957
303.027
303.096
303.167
303.238
303.307
303.374
303.442
303.513
303.584
303.653
303.721
303.79
303.859
303.928
303.997
304.065
304.134
304.201
304.268
304.336
304.404
304.47
304.534
304.601
304.669
304.735
304.802
304.869
304.935
305.001
305.069
305.134
305.199
305.265
305.33
305.394
305.46
305.525
305.589
305.654
305.719
305.783
305.847
305.912
305.977
306.041
306.104
306.166
306.229
306.293
306.355
306.418
306.479
306.539
306.599
306.66
306.72
306.781
306.84
306.901
306.962
307.023
307.086
307.147
307.206
307.264
307.323
307.382
307.441
307.499
307.556
307.613
307.67
307.727
307.784
307.843
307.902
307.959
308.015
308.071
308.127
308.183
308.239
308.295
308.35
308.405
308.459
308.512
308.565
308.618
308.673
308.728
308.783
308.836
308.89
308.943
308.995
309.045
309.096
309.149
309.201
309.252
309.305
309.356
309.407
309.457
309.505
309.554
309.603
309.652
309.699
309.748
309.798
309.846
309.894
309.942
309.99
310.037
310.083
310.13
310.177
310.222
310.267
310.311
310.357
310.403
310.45
310.497
310.542
310.586
310.629
310.672
310.714
310.756
310.799
310.843
310.885
310.928
310.97
311.01
311.051
311.092
311.134
311.176
311.217
311.258
311.301
311.343
311.38
311.416
311.452
311.488
311.526
311.565
311.605
311.646
311.686
311.723
311.759
311.794
311.83
311.867
311.904
311.94
311.975
312.01
312.043
312.077
312.11
312.142
312.175
312.207
312.239
312.271
312.302
312.334
312.365
312.396
312.427
312.459
312.489
312.52
312.549
312.579
312.608
312.637
312.667
312.696
312.724
312.752
312.78
312.808
312.836
312.865
312.892
312.919
312.945
312.971
312.998
313.024
313.05
313.078
313.106
313.134
313.165
313.194
313.219
313.242
313.265
313.287
313.31
313.333
313.355
313.378
313.4
313.423
313.446
313.469
313.491
313.513
313.534
313.556
313.577
313.598
313.62
313.641
313.663
313.684
313.704
313.723
313.743
313.761
313.78
313.799
313.818
313.838
313.857
313.875
313.892
313.91
313.927
313.944
313.961
313.978
313.994
314.01
314.026
314.042
314.058
314.075
314.091
314.107
314.124
314.141
314.158
314.174
314.189
314.206
314.222
314.237
314.252
314.265
314.278
314.291
314.304
314.316
314.329
314.341
314.353
314.366
314.378
314.391
314.403
314.414
314.426
314.437
314.448
314.459
314.47
314.482
314.493
314.504
314.515
314.525
314.536
314.546
314.555
314.565
314.574
314.583
314.592
314.601
314.61
314.619
314.627
314.636
314.644
314.652
314.66
314.668
314.675
314.683
314.69
314.698
314.705
314.712
314.719
314.725
314.731
314.738
314.744
314.75
314.756
314.762
314.767
314.773
314.778
314.784
314.789
314.793
314.798
314.803
314.808
314.813
314.817
314.821
314.825
314.829
314.833
314.837
314.841
314.844
314.847
314.85
314.853
314.856
314.859
314.861
314.864
314.866
314.868
314.871
314.873
314.874
314.876
314.878
314.879
314.881
314.882
314.883
314.884
314.885
314.886
314.887
314.887
314.888
314.888
314.888
300.036
300.106
300.177
300.249
300.322
300.394
300.465
300.537
300.609
300.681
300.752
300.823
300.894
300.966
301.04
301.113
301.184
301.257
301.33
301.403
301.474
301.546
301.617
301.686
301.757
301.828
301.897
301.97
302.043
302.113
302.182
302.252
302.322
302.393
302.465
302.535
302.606
302.675
302.743
302.815
302.887
302.958
303.028
303.097
303.167
303.237
303.306
303.374
303.443
303.513
303.583
303.654
303.722
303.79
303.86
303.928
303.996
304.064
304.132
304.2
304.268
304.336
304.404
304.469
304.534
304.6
304.668
304.735
304.803
304.871
304.937
305.001
305.067
305.134
305.2
305.267
305.331
305.396
305.461
305.524
305.588
305.654
305.718
305.781
305.846
305.911
305.977
306.041
306.104
306.167
306.23
306.292
306.355
306.417
306.478
306.539
306.6
306.659
306.718
306.78
306.84
306.901
306.962
307.024
307.086
307.147
307.207
307.265
307.324
307.382
307.44
307.498
307.556
307.613
307.67
307.727
307.784
307.843
307.902
307.959
308.015
308.071
308.127
308.183
308.238
308.295
308.351
308.406
308.459
308.512
308.565
308.619
308.673
308.727
308.782
308.836
308.89
308.943
308.995
309.047
309.098
309.149
309.2
309.252
309.304
309.356
309.407
309.456
309.505
309.554
309.603
309.652
309.7
309.749
309.797
309.846
309.894
309.942
309.989
310.036
310.084
310.131
310.178
310.223
310.266
310.31
310.356
310.402
310.451
310.498
310.543
310.586
310.628
310.671
310.714
310.756
310.799
310.842
310.884
310.927
310.969
311.01
311.051
311.093
311.136
311.178
311.22
311.262
311.303
311.342
311.379
311.415
311.452
311.489
311.527
311.565
311.604
311.644
311.684
311.721
311.757
311.793
311.83
311.867
311.905
311.94
311.975
312.009
312.043
312.076
312.109
312.142
312.175
312.208
312.239
312.271
312.302
312.334
312.365
312.396
312.427
312.458
312.49
312.52
312.55
312.579
312.609
312.638
312.667
312.696
312.724
312.752
312.78
312.808
312.836
312.864
312.892
312.919
312.945
312.972
312.998
313.024
313.051
313.079
313.107
313.137
313.167
313.194
313.218
313.241
313.264
313.286
313.309
313.332
313.355
313.378
313.401
313.424
313.446
313.469
313.49
313.512
313.534
313.555
313.577
313.598
313.619
313.641
313.663
313.684
313.704
313.724
313.743
313.761
313.78
313.799
313.818
313.838
313.857
313.875
313.892
313.909
313.927
313.944
313.961
313.978
313.994
314.01
314.026
314.042
314.058
314.075
314.091
314.108
314.126
314.144
314.16
314.175
314.19
314.205
314.221
314.236
314.25
314.264
314.278
314.291
314.304
314.316
314.329
314.341
314.353
314.366
314.378
314.391
314.403
314.414
314.425
314.437
314.448
314.459
314.471
314.482
314.493
314.504
314.515
314.525
314.535
314.545
314.555
314.565
314.574
314.583
314.592
314.601
314.61
314.619
314.627
314.636
314.644
314.652
314.66
314.668
314.675
314.683
314.69
314.698
314.705
314.712
314.718
314.725
314.731
314.738
314.744
314.75
314.756
314.762
314.767
314.773
314.778
314.784
314.789
314.794
314.798
314.803
314.808
314.813
314.817
314.821
314.825
314.829
314.833
314.837
314.841
314.844
314.847
314.85
314.853
314.856
314.859
314.861
314.864
314.866
314.868
314.871
314.873
314.874
314.876
314.878
314.879
314.881
314.882
314.883
314.884
314.885
314.886
314.887
314.887
314.888
314.888
314.888
300.035
300.105
300.177
300.25
300.322
300.395
300.466
300.537
300.61
300.681
300.752
300.821
300.892
300.968
301.042
301.112
301.184
301.256
301.329
301.403
301.476
301.547
301.617
301.686
301.757
301.827
301.897
301.97
302.042
302.113
302.184
302.253
302.321
302.392
302.465
302.535
302.604
302.674
302.745
302.817
302.888
302.959
303.028
303.097
303.166
303.235
303.304
303.372
303.443
303.514
303.584
303.654
303.723
303.791
303.859
303.928
303.996
304.064
304.133
304.2
304.268
304.336
304.403
304.468
304.533
304.6
304.667
304.735
304.803
304.871
304.937
305.002
305.069
305.135
305.201
305.267
305.332
305.396
305.46
305.525
305.589
305.653
305.717
305.781
305.846
305.911
305.976
306.041
306.104
306.167
306.23
306.292
306.355
306.417
306.478
306.539
306.6
306.659
306.718
306.778
306.839
306.901
306.962
307.024
307.086
307.148
307.207
307.265
307.324
307.383
307.44
307.497
307.554
307.613
307.671
307.727
307.783
307.842
307.901
307.958
308.015
308.071
308.127
308.183
308.24
308.296
308.351
308.405
308.459
308.513
308.565
308.619
308.673
308.726
308.781
308.836
308.89
308.943
308.996
309.048
309.099
309.149
309.2
309.252
309.303
309.355
309.406
309.455
309.505
309.554
309.603
309.652
309.701
309.75
309.798
309.846
309.894
309.942
309.988
310.036
310.084
310.132
310.179
310.223
310.267
310.31
310.355
310.402
310.45
310.498
310.542
310.585
310.628
310.671
310.714
310.756
310.798
310.84
310.883
310.925
310.968
311.011
311.053
311.096
311.139
311.182
311.224
311.264
311.303
311.34
311.377
311.415
311.453
311.491
311.528
311.566
311.604
311.643
311.682
311.719
311.756
311.792
311.829
311.867
311.905
311.941
311.975
312.009
312.042
312.076
312.109
312.143
312.175
312.208
312.239
312.271
312.302
312.334
312.365
312.396
312.427
312.458
312.489
312.52
312.55
312.58
312.609
312.638
312.667
312.696
312.724
312.752
312.779
312.807
312.836
312.865
312.892
312.919
312.945
312.972
312.999
313.026
313.053
313.081
313.11
313.139
313.167
313.193
313.217
313.24
313.263
313.286
313.309
313.332
313.355
313.378
313.401
313.424
313.446
313.469
313.49
313.512
313.534
313.555
313.577
313.598
313.619
313.641
313.663
313.685
313.705
313.724
313.742
313.761
313.78
313.8
313.819
313.838
313.857
313.874
313.892
313.909
313.927
313.944
313.961
313.977
313.994
314.01
314.026
314.042
314.058
314.075
314.093
314.111
314.129
314.145
314.16
314.175
314.19
314.205
314.22
314.235
314.249
314.264
314.278
314.291
314.303
314.316
314.328
314.341
314.354
314.366
314.378
314.391
314.403
314.414
314.425
314.437
314.448
314.46
314.471
314.483
314.493
314.504
314.514
314.525
314.535
314.545
314.555
314.565
314.574
314.583
314.592
314.601
314.61
314.619
314.627
314.636
314.645
314.652
314.66
314.668
314.675
314.683
314.69
314.698
314.705
314.711
314.718
314.725
314.731
314.738
314.744
314.75
314.756
314.762
314.767
314.773
314.778
314.784
314.789
314.794
314.799
314.803
314.808
314.813
314.817
314.821
314.825
314.829
314.833
314.837
314.841
314.844
314.847
314.85
314.853
314.856
314.859
314.861
314.864
314.866
314.868
314.871
314.873
314.874
314.876
314.878
314.879
314.881
314.882
314.883
314.884
314.885
314.886
314.887
314.887
314.888
314.888
314.888
300.035
300.104
300.176
300.25
300.322
300.395
300.467
300.539
300.61
300.68
300.751
300.822
300.893
300.968
301.041
301.114
301.185
301.256
301.327
301.401
301.475
301.548
301.618
301.687
301.757
301.828
301.898
301.969
302.04
302.112
302.184
302.253
302.322
302.392
302.463
302.534
302.604
302.674
302.746
302.818
302.888
302.959
303.028
303.096
303.166
303.235
303.304
303.372
303.442
303.514
303.585
303.654
303.722
303.791
303.859
303.928
303.997
304.065
304.132
304.2
304.268
304.334
304.402
304.468
304.533
304.6
304.667
304.735
304.802
304.871
304.938
305.004
305.071
305.136
305.201
305.267
305.333
305.397
305.461
305.524
305.589
305.653
305.717
305.781
305.845
305.911
305.976
306.04
306.105
306.168
306.229
306.291
306.355
306.418
306.478
306.539
306.599
306.659
306.719
306.779
306.838
306.899
306.962
307.026
307.088
307.148
307.206
307.264
307.323
307.383
307.441
307.497
307.554
307.613
307.671
307.727
307.783
307.84
307.899
307.958
308.014
308.071
308.127
308.183
308.24
308.296
308.352
308.406
308.46
308.513
308.566
308.619
308.673
308.725
308.779
308.836
308.891
308.944
308.997
309.048
309.099
309.149
309.2
309.252
309.303
309.354
309.405
309.455
309.505
309.554
309.603
309.652
309.701
309.751
309.799
309.847
309.893
309.941
309.988
310.037
310.086
310.133
310.178
310.223
310.267
310.311
310.356
310.402
310.45
310.496
310.541
310.584
310.627
310.671
310.714
310.756
310.797
310.839
310.881
310.924
310.967
311.01
311.053
311.098
311.144
311.187
311.226
311.264
311.302
311.339
311.376
311.414
311.453
311.491
311.529
311.566
311.604
311.643
311.681
311.718
311.755
311.791
311.829
311.866
311.904
311.94
311.975
312.009
312.042
312.076
312.109
312.143
312.175
312.207
312.239
312.27
312.302
312.334
312.366
312.397
312.427
312.458
312.489
312.519
312.55
312.58
312.609
312.638
312.667
312.696
312.724
312.751
312.778
312.807
312.836
312.865
312.892
312.919
312.946
312.974
313.001
313.027
313.055
313.083
313.112
313.139
313.166
313.191
313.215
313.238
313.262
313.285
313.309
313.332
313.355
313.378
313.401
313.424
313.446
313.468
313.49
313.512
313.534
313.555
313.576
313.598
313.619
313.641
313.664
313.685
313.705
313.724
313.742
313.761
313.781
313.8
313.82
313.838
313.856
313.874
313.892
313.909
313.926
313.944
313.96
313.977
313.994
314.01
314.026
314.042
314.059
314.076
314.095
314.114
314.13
314.145
314.16
314.175
314.189
314.204
314.219
314.234
314.249
314.263
314.277
314.291
314.303
314.316
314.328
314.341
314.354
314.366
314.379
314.391
314.403
314.414
314.425
314.437
314.448
314.46
314.472
314.483
314.493
314.504
314.514
314.524
314.535
314.545
314.555
314.565
314.574
314.583
314.592
314.601
314.61
314.619
314.628
314.636
314.645
314.652
314.66
314.668
314.676
314.683
314.69
314.698
314.705
314.711
314.718
314.725
314.731
314.738
314.744
314.75
314.756
314.762
314.767
314.773
314.778
314.784
314.789
314.794
314.799
314.803
314.808
314.813
314.817
314.821
314.825
314.829
314.833
314.837
314.841
314.844
314.847
314.85
314.853
314.856
314.859
314.861
314.864
314.866
314.868
314.871
314.873
314.874
314.876
314.878
314.879
314.881
314.882
314.883
314.884
314.885
314.886
314.887
314.887
314.888
314.888
314.888
300.035
300.104
300.175
300.248
300.32
300.394
300.468
300.54
300.611
300.681
300.752
300.822
300.895
300.969
301.042
301.113
301.185
301.256
301.327
301.399
301.474
301.547
301.617
301.686
301.756
301.828
301.899
301.97
302.041
302.112
302.184
302.254
302.322
302.392
302.462
302.533
302.605
302.676
302.747
302.817
302.888
302.958
303.028
303.096
303.166
303.236
303.304
303.373
303.443
303.513
303.584
303.653
303.722
303.791
303.86
303.927
303.996
304.064
304.132
304.199
304.267
304.333
304.401
304.469
304.534
304.599
304.667
304.736
304.804
304.871
304.937
305.005
305.072
305.137
305.202
305.267
305.332
305.397
305.461
305.525
305.589
305.653
305.716
305.781
305.846
305.911
305.975
306.04
306.104
306.167
306.229
306.29
306.354
306.417
306.478
306.537
306.598
306.66
306.72
306.779
306.838
306.9
306.964
307.027
307.088
307.148
307.206
307.264
307.323
307.383
307.44
307.496
307.554
307.613
307.671
307.727
307.783
307.841
307.9
307.958
308.015
308.071
308.126
308.183
308.241
308.296
308.351
308.406
308.461
308.514
308.566
308.619
308.672
308.725
308.78
308.836
308.892
308.946
308.997
309.048
309.098
309.149
309.2
309.252
309.303
309.354
309.404
309.454
309.503
309.553
309.603
309.652
309.702
309.752
309.8
309.847
309.893
309.94
309.988
310.038
310.086
310.133
310.178
310.222
310.267
310.311
310.356
310.402
310.449
310.496
310.541
310.584
310.627
310.671
310.714
310.755
310.797
310.838
310.88
310.923
310.966
311.009
311.053
311.101
311.149
311.19
311.228
311.264
311.301
311.338
311.376
311.414
311.452
311.491
311.529
311.567
311.605
311.643
311.68
311.718
311.754
311.79
311.828
311.865
311.902
311.94
311.975
312.009
312.043
312.076
312.11
312.142
312.175
312.207
312.239
312.27
312.302
312.334
312.366
312.397
312.427
312.458
312.488
312.519
312.55
312.58
312.61
312.639
312.667
312.696
312.723
312.751
312.779
312.807
312.836
312.865
312.892
312.92
312.948
312.976
313.002
313.029
313.056
313.084
313.112
313.139
313.165
313.19
313.214
313.238
313.261
313.285
313.308
313.332
313.355
313.378
313.401
313.424
313.447
313.469
313.491
313.513
313.534
313.555
313.576
313.598
313.62
313.642
313.663
313.684
313.704
313.724
313.742
313.762
313.781
313.8
313.819
313.838
313.856
313.874
313.891
313.909
313.926
313.943
313.96
313.977
313.994
314.01
314.026
314.043
314.06
314.078
314.097
314.115
314.131
314.145
314.16
314.175
314.189
314.204
314.219
314.234
314.249
314.263
314.277
314.29
314.303
314.316
314.329
314.342
314.354
314.366
314.379
314.391
314.403
314.414
314.426
314.437
314.449
314.46
314.471
314.483
314.493
314.504
314.514
314.524
314.535
314.545
314.555
314.564
314.574
314.583
314.592
314.601
314.61
314.619
314.628
314.636
314.645
314.652
314.66
314.668
314.676
314.683
314.69
314.697
314.704
314.711
314.718
314.725
314.731
314.738
314.744
314.75
314.756
314.762
314.767
314.773
314.778
314.784
314.789
314.794
314.799
314.803
314.808
314.813
314.817
314.821
314.825
314.829
314.833
314.837
314.841
314.844
314.847
314.85
314.853
314.856
314.859
314.861
314.864
314.866
314.868
314.871
314.873
314.874
314.876
314.878
314.879
314.881
314.882
314.883
314.884
314.885
314.886
314.887
314.887
314.888
314.888
314.888
300.035
300.105
300.176
300.247
300.321
300.394
300.466
300.539
300.611
300.682
300.753
300.823
300.895
300.969
301.042
301.112
301.184
301.258
301.329
301.4
301.472
301.544
301.616
301.686
301.756
301.827
301.9
301.972
302.042
302.113
302.184
302.253
302.321
302.392
302.464
302.535
302.605
302.675
302.745
302.817
302.887
302.957
303.027
303.096
303.166
303.236
303.305
303.374
303.444
303.514
303.584
303.653
303.722
303.791
303.859
303.927
303.994
304.063
304.13
304.199
304.267
304.334
304.401
304.468
304.534
304.6
304.668
304.737
304.806
304.872
304.939
305.006
305.073
305.137
305.202
305.267
305.332
305.396
305.46
305.524
305.589
305.653
305.718
305.782
305.846
305.91
305.975
306.04
306.105
306.167
306.228
306.29
306.353
306.415
306.477
306.538
306.598
306.659
306.72
306.78
306.84
306.902
306.965
307.027
307.087
307.147
307.205
307.264
307.323
307.382
307.439
307.497
307.554
307.612
307.669
307.726
307.784
307.842
307.9
307.957
308.014
308.071
308.127
308.184
308.241
308.296
308.35
308.405
308.46
308.514
308.566
308.617
308.671
308.726
308.782
308.838
308.892
308.946
308.997
309.047
309.099
309.15
309.201
309.252
309.303
309.354
309.403
309.453
309.503
309.553
309.603
309.652
309.702
309.752
309.801
309.848
309.894
309.941
309.989
310.038
310.086
310.132
310.177
310.222
310.267
310.312
310.355
310.402
310.45
310.496
310.541
310.584
310.628
310.672
310.713
310.755
310.796
310.838
310.88
310.922
310.965
311.009
311.055
311.105
311.152
311.191
311.227
311.263
311.301
311.339
311.376
311.414
311.452
311.491
311.529
311.567
311.605
311.643
311.68
311.717
311.754
311.79
311.827
311.864
311.901
311.938
311.975
312.01
312.043
312.077
312.109
312.142
312.174
312.206
312.238
312.27
312.302
312.334
312.366
312.397
312.427
312.458
312.488
312.519
312.55
312.58
312.61
312.639
312.667
312.696
312.724
312.751
312.779
312.808
312.836
312.865
312.894
312.922
312.95
312.977
313.003
313.03
313.057
313.084
313.111
313.138
313.164
313.189
313.214
313.237
313.261
313.284
313.308
313.331
313.355
313.378
313.401
313.424
313.447
313.469
313.491
313.513
313.534
313.555
313.577
313.598
313.62
313.642
313.663
313.684
313.704
313.724
313.743
313.762
313.781
313.8
313.819
313.838
313.856
313.874
313.891
313.909
313.926
313.943
313.96
313.977
313.994
314.011
314.027
314.044
314.061
314.079
314.098
314.115
314.13
314.145
314.159
314.174
314.189
314.204
314.219
314.234
314.248
314.262
314.276
314.29
314.303
314.316
314.329
314.342
314.354
314.366
314.378
314.391
314.403
314.414
314.426
314.437
314.449
314.46
314.471
314.482
314.493
314.504
314.514
314.524
314.535
314.545
314.555
314.564
314.573
314.583
314.592
314.601
314.61
314.619
314.628
314.637
314.645
314.652
314.66
314.668
314.675
314.683
314.69
314.697
314.704
314.711
314.718
314.725
314.731
314.738
314.744
314.75
314.756
314.762
314.767
314.773
314.778
314.784
314.789
314.794
314.799
314.803
314.808
314.813
314.817
314.821
314.825
314.83
314.833
314.837
314.841
314.844
314.847
314.85
314.853
314.856
314.859
314.861
314.864
314.866
314.868
314.871
314.873
314.874
314.876
314.878
314.88
314.881
314.882
314.883
314.884
314.885
314.886
314.887
314.887
314.888
314.888
314.888
300.035
300.105
300.176
300.248
300.32
300.394
300.467
300.539
300.61
300.681
300.753
300.825
300.897
300.971
301.042
301.112
301.185
301.258
301.328
301.399
301.471
301.544
301.616
301.687
301.757
301.828
301.9
301.972
302.042
302.113
302.183
302.252
302.322
302.392
302.464
302.534
302.604
302.674
302.745
302.818
302.888
302.957
303.026
303.096
303.166
303.236
303.305
303.374
303.444
303.515
303.584
303.652
303.721
303.791
303.858
303.926
303.994
304.062
304.13
304.199
304.267
304.334
304.401
304.468
304.535
304.602
304.668
304.737
304.806
304.873
304.94
305.007
305.073
305.137
305.202
305.268
305.332
305.395
305.459
305.524
305.589
305.654
305.718
305.782
305.846
305.91
305.975
306.04
306.104
306.167
306.228
306.29
306.352
306.414
306.476
306.537
306.598
306.658
306.72
306.781
306.841
306.902
306.965
307.027
307.088
307.147
307.205
307.264
307.322
307.379
307.437
307.496
307.554
307.613
307.67
307.727
307.785
307.842
307.899
307.957
308.015
308.071
308.127
308.184
308.241
308.297
308.351
308.405
308.459
308.512
308.565
308.618
308.672
308.726
308.782
308.838
308.893
308.945
308.996
309.047
309.099
309.151
309.201
309.252
309.302
309.353
309.403
309.453
309.503
309.553
309.603
309.652
309.702
309.752
309.801
309.849
309.896
309.943
309.99
310.038
310.085
310.132
310.178
310.223
310.267
310.311
310.355
310.4
310.448
310.496
310.541
310.585
310.628
310.671
310.713
310.755
310.797
310.838
310.88
310.922
310.966
311.013
311.061
311.108
311.15
311.189
311.226
311.263
311.301
311.339
311.377
311.415
311.453
311.491
311.53
311.568
311.605
311.643
311.68
311.717
311.753
311.79
311.827
311.863
311.9
311.937
311.974
312.009
312.043
312.076
312.109
312.142
312.174
312.207
312.238
312.27
312.302
312.334
312.366
312.397
312.427
312.458
312.488
312.519
312.55
312.58
312.609
312.639
312.668
312.696
312.724
312.752
312.78
312.808
312.837
312.866
312.895
312.923
312.951
312.977
313.004
313.03
313.057
313.083
313.11
313.137
313.163
313.189
313.213
313.237
313.261
313.284
313.308
313.332
313.355
313.378
313.401
313.424
313.447
313.469
313.492
313.513
313.535
313.556
313.577
313.598
313.619
313.641
313.663
313.684
313.704
313.724
313.743
313.762
313.782
313.8
313.819
313.837
313.856
313.874
313.891
313.909
313.926
313.943
313.96
313.978
313.995
314.011
314.028
314.045
314.063
314.08
314.098
314.114
314.13
314.145
314.159
314.174
314.189
314.204
314.218
314.233
314.248
314.262
314.276
314.289
314.303
314.316
314.329
314.342
314.354
314.366
314.378
314.39
314.403
314.414
314.426
314.437
314.449
314.46
314.471
314.482
314.493
314.504
314.514
314.524
314.535
314.545
314.555
314.564
314.573
314.583
314.592
314.601
314.61
314.619
314.628
314.636
314.644
314.652
314.66
314.668
314.675
314.683
314.69
314.697
314.704
314.711
314.718
314.725
314.731
314.738
314.744
314.75
314.756
314.762
314.767
314.773
314.778
314.784
314.789
314.794
314.799
314.804
314.808
314.813
314.817
314.821
314.825
314.83
314.833
314.837
314.841
314.844
314.847
314.85
314.853
314.856
314.859
314.861
314.864
314.866
314.868
314.871
314.873
314.874
314.876
314.878
314.88
314.881
314.882
314.883
314.884
314.885
314.886
314.887
314.887
314.888
314.888
314.888
300.036
300.107
300.177
300.247
300.32
300.394
300.466
300.538
300.609
300.681
300.752
300.825
300.897
300.97
301.042
301.113
301.185
301.257
301.328
301.398
301.47
301.545
301.617
301.687
301.758
301.83
301.9
301.971
302.042
302.112
302.182
302.252
302.323
302.392
302.462
302.533
302.605
302.675
302.745
302.817
302.888
302.957
303.026
303.096
303.166
303.235
303.305
303.375
303.445
303.516
303.584
303.651
303.721
303.79
303.858
303.926
303.994
304.061
304.129
304.198
304.266
304.334
304.401
304.468
304.536
304.603
304.67
304.737
304.806
304.872
304.939
305.006
305.072
305.137
305.203
305.268
305.332
305.395
305.46
305.524
305.589
305.653
305.717
305.783
305.847
305.91
305.974
306.04
306.104
306.167
306.228
306.291
306.353
306.414
306.474
306.535
306.597
306.658
306.72
306.781
306.841
306.904
306.966
307.026
307.087
307.147
307.206
307.264
307.321
307.379
307.436
307.495