/*--------------------------------*- C++ -*----------------------------------*\
  =========                 |
  \\      /  F ield         | OpenFOAM: The Open Source CFD Toolbox
   \\    /   O peration     | Website:  https://openfoam.org
    \\  /    A nd           | Version:  7
     \\/     M anipulation  |
\*---------------------------------------------------------------------------*/
FoamFile
{
    version     2.0;
    format      ascii;
    class       surfaceScalarField;
    location    "1500";
    object      alphaPhi;
}
// * * * * * * * * * * * * * * * * * * * * * * * * * * * * * * * * * * * * * //

dimensions      [0 3 -1 0 0 0 0];

internalField   nonuniform List<scalar> 
319200
(
4.28376e-17
7.00408e-17
1.16829e-16
4.74227e-17
8.56537e-17
-2.3504e-17
2.27831e-16
5.313e-17
2.56167e-16
7.49232e-17
2.87504e-16
6.68923e-17
3.70058e-16
9.90889e-17
4.97785e-16
6.16802e-17
4.83442e-16
7.79416e-18
5.98043e-16
4.78845e-17
6.28757e-16
5.99181e-17
6.96645e-16
6.54592e-18
6.87578e-16
1.11476e-16
4.78793e-16
1.42542e-16
4.8877e-16
5.75775e-17
5.47441e-16
3.14313e-17
5.3771e-16
9.3576e-17
6.65049e-16
2.54188e-17
9.68272e-16
-4.7712e-17
8.67274e-16
-4.5026e-17
9.97116e-16
-2.13771e-17
1.10681e-15
-5.16917e-18
1.29579e-15
-6.9345e-17
1.37733e-15
-9.2442e-17
1.49622e-15
-1.1324e-17
1.4164e-15
1.94085e-16
1.32468e-15
2.71912e-16
6.35481e-16
1.09836e-16
1.25916e-15
1.52075e-16
4.32502e-16
3.06016e-17
1.07928e-15
-6.42829e-17
7.55802e-16
-1.42797e-16
1.78702e-15
-3.4451e-17
1.53644e-15
6.03433e-17
1.85536e-15
8.26217e-17
1.93386e-15
1.12797e-16
1.92697e-15
2.71626e-17
1.72476e-15
2.23095e-16
1.38202e-15
3.59671e-16
1.36818e-15
3.18447e-17
1.52635e-15
-5.9166e-17
1.61521e-15
5.76121e-18
1.89215e-15
1.27046e-16
1.73024e-15
1.44985e-16
1.66245e-15
8.90589e-17
1.64614e-15
-2.67747e-18
1.69412e-15
-2.76544e-17
1.744e-15
3.87355e-17
1.76707e-15
9.07816e-17
1.9001e-15
-4.19003e-17
2.55911e-15
-3.22489e-16
1.86508e-15
-6.3543e-17
3.03047e-15
3.23673e-16
9.20586e-16
3.24584e-17
3.06352e-15
4.55903e-17
5.63557e-16
5.30619e-17
5.21691e-16
-1.56437e-17
4.26587e-16
1.39122e-16
5.39222e-16
-2.84566e-17
1.40613e-15
-1.55011e-16
6.96423e-16
6.9912e-18
1.1851e-15
2.55292e-16
8.14223e-17
9.07915e-17
9.80354e-16
4.70967e-17
6.69644e-16
-1.03595e-16
1.16049e-15
-1.05457e-16
1.10969e-15
1.25867e-16
9.45095e-16
2.85073e-16
6.88613e-16
3.15766e-16
1.02098e-15
-1.54376e-16
-2.36609e-16
-2.25051e-16
1.63911e-15
-1.68253e-16
-2.53399e-16
-9.05891e-17
2.12919e-15
5.8789e-17
2.27686e-17
5.47243e-17
2.99414e-15
1.93759e-17
1.71832e-16
-3.42014e-17
2.91229e-15
-1.55134e-17
-1.78163e-17
4.22661e-19
3.01468e-15
-4.39573e-19
-1.55704e-16
-1.15477e-16
3.27086e-15
1.64851e-16
7.84215e-16
2.52222e-16
7.13982e-16
2.93414e-16
2.95001e-16
9.55891e-17
7.37803e-16
-1.12529e-16
2.51934e-16
-7.75871e-17
6.85523e-16
-4.78646e-17
6.41648e-16
-1.06578e-16
1.35089e-15
6.20745e-17
8.63833e-16
-1.59559e-16
2.46958e-15
-1.1241e-16
-2.74843e-16
-4.20111e-17
2.52511e-15
7.90643e-17
4.20941e-16
9.29635e-17
5.21527e-16
8.15147e-17
3.81054e-16
9.16843e-17
5.00342e-16
7.8626e-17
4.41755e-16
1.19694e-17
7.39988e-16
2.51995e-17
5.87692e-16
-1.78298e-17
7.8592e-16
-1.30324e-16
7.33546e-16
9.46505e-17
7.01522e-16
6.93077e-17
8.85421e-16
-1.7125e-16
8.81766e-16
-1.11991e-17
7.85129e-16
8.45921e-17
1.6266e-15
-2.67115e-17
1.30624e-16
-1.22264e-16
2.72616e-15
-9.33079e-17
3.24466e-16
-7.85769e-17
2.16908e-15
-1.10756e-16
1.24889e-15
-2.89017e-17
1.04998e-15
1.37395e-16
9.34619e-16
6.87495e-17
8.83173e-16
-9.11661e-19
9.58425e-16
-1.59031e-17
6.84657e-16
-8.78883e-17
1.90503e-15
1.50817e-16
5.34451e-16
2.37774e-16
6.00948e-16
-1.09415e-16
9.03609e-16
-2.6439e-16
1.26534e-15
-2.56652e-16
1.65543e-15
-2.30831e-16
2.00707e-15
-2.39081e-16
2.09015e-15
-2.24964e-17
1.847e-15
1.37755e-16
1.52699e-15
1.81054e-16
1.51774e-15
-5.83776e-17
1.59301e-15
-7.96991e-17
1.53742e-15
1.04497e-16
1.61636e-15
1.00673e-16
1.81243e-15
-1.40561e-16
1.59665e-15
-2.08099e-16
4.84275e-16
1.13448e-17
1.28761e-15
3.92727e-16
7.72513e-16
-8.56709e-17
1.81307e-15
-2.69774e-16
1.24635e-15
-1.87512e-17
1.56141e-15
-9.91778e-17
1.43294e-15
-6.16788e-17
1.34646e-15
1.06242e-16
1.36037e-15
7.33495e-18
-8.01247e-17
-4.0869e-16
2.27556e-15
-1.15478e-16
4.36272e-16
3.71562e-17
3.7403e-15
4.17176e-17
1.50477e-15
2.5757e-17
1.00748e-15
1.65495e-16
7.23272e-16
4.05493e-16
6.36497e-16
-2.15414e-18
8.78157e-16
-3.23355e-16
8.94287e-16
-1.06891e-16
8.88066e-16
1.5229e-17
8.70062e-16
-2.09549e-17
1.41163e-15
-1.60552e-16
1.0697e-15
-3.50802e-16
1.61746e-15
-1.01916e-16
1.29643e-15
5.04373e-17
1.11971e-15
1.60198e-16
1.05982e-15
1.75548e-16
1.06844e-15
-2.38372e-17
1.36182e-15
-1.8023e-16
1.55424e-15
9.88321e-19
1.58886e-15
1.21328e-16
2.41944e-15
1.93423e-16
1.39947e-15
1.12538e-16
2.26312e-15
3.3057e-17
4.27264e-16
-1.58723e-16
2.55213e-15
-1.98465e-16
2.99542e-16
-4.25413e-17
5.09592e-15
1.12039e-16
1.26937e-15
-3.21616e-17
1.09092e-15
1.35182e-16
1.22522e-15
-1.30541e-16
1.23468e-15
7.7717e-17
1.40271e-15
-2.97606e-16
1.77212e-15
-4.73283e-16
2.37582e-15
-2.27008e-16
2.28747e-15
1.18446e-16
2.2301e-15
9.13027e-17
2.47728e-15
7.5455e-17
1.85197e-15
4.93248e-16
1.29388e-15
4.34995e-16
8.86777e-16
1.36001e-16
6.52201e-16
-1.23692e-16
1.09809e-15
-1.23825e-16
6.81735e-16
5.31694e-17
6.92875e-16
1.01465e-16
5.16126e-16
5.09774e-17
2.00642e-15
2.89335e-17
6.28488e-16
-9.17666e-17
2.5354e-15
1.66621e-17
8.76818e-16
-2.95084e-17
2.68651e-15
2.61156e-16
1.54154e-15
5.60316e-17
2.43605e-15
-2.25903e-16
1.26627e-15
8.03361e-16
7.18967e-16
9.97604e-16
4.00595e-15
2.63621e-16
1.16943e-15
2.85208e-17
2.99959e-15
2.79178e-16
3.47341e-15
2.98463e-16
3.45506e-15
4.41297e-16
3.05673e-15
1.17486e-16
3.00515e-15
-2.43807e-16
2.60163e-15
1.19613e-16
3.21419e-15
-7.76381e-18
3.37123e-15
8.35166e-17
3.67976e-15
-7.21966e-17
3.52745e-15
2.72936e-18
3.63162e-15
2.53353e-16
3.82896e-15
1.23105e-16
4.00477e-15
-1.3422e-16
4.46713e-15
1.70788e-16
4.02586e-15
2.21476e-16
4.53889e-15
-2.76919e-16
2.87888e-15
-3.22429e-16
5.16827e-15
-2.32459e-17
3.05357e-15
7.33518e-17
6.34637e-15
5.78157e-16
3.32504e-15
7.50162e-16
3.51709e-15
6.35832e-16
2.89791e-15
3.02454e-16
3.28511e-15
3.07852e-16
7.24646e-16
4.67396e-18
6.9292e-16
-4.97569e-17
2.56613e-15
-8.5278e-17
1.02183e-15
3.6359e-18
2.2437e-15
2.41384e-16
1.35846e-15
1.03918e-16
5.91219e-16
2.14613e-16
6.9367e-16
2.97978e-17
1.99429e-15
-2.3568e-16
1.25709e-15
-2.51428e-16
2.44464e-15
-7.1771e-17
1.0496e-15
1.04928e-16
2.22471e-15
-4.63748e-17
1.67139e-15
-1.02087e-16
2.98355e-15
-2.10364e-17
1.88667e-15
7.28497e-17
1.69692e-15
2.15176e-16
1.28629e-15
-5.75518e-18
1.20857e-15
-2.98041e-16
1.06129e-15
-2.74524e-16
6.97518e-16
-1.0408e-16
4.10988e-16
-2.43419e-16
-3.89174e-16
5.99687e-16
-2.57225e-15
8.9328e-16
1.50788e-16
6.71212e-16
2.05507e-15
4.7874e-16
5.6934e-16
5.56666e-16
1.03294e-15
1.68874e-16
1.40681e-15
-1.03846e-16
1.79662e-15
-2.43297e-16
2.02423e-15
-9.4098e-17
2.06832e-15
6.84875e-17
2.29967e-15
-2.31264e-16
2.52398e-15
-2.68202e-17
2.59623e-15
2.06148e-16
2.88169e-15
5.3145e-16
2.89678e-15
6.32422e-16
2.9265e-15
4.15855e-16
2.66004e-15
2.26075e-16
2.95265e-15
-2.32332e-16
3.12207e-15
-1.04852e-16
3.31184e-15
-1.2332e-16
3.0947e-15
-1.84589e-16
2.27743e-15
-2.12316e-16
1.98925e-15
1.0237e-16
1.34963e-15
4.99251e-16
1.5797e-15
8.40954e-18
1.98723e-15
-1.62839e-16
2.31891e-15
-8.69206e-17
2.7755e-15
-1.32106e-16
2.46545e-15
-1.31487e-16
2.13306e-15
-1.72442e-16
1.261e-15
3.01428e-16
9.15877e-16
3.64686e-16
1.18e-15
1.53065e-16
1.59349e-15
3.24836e-17
1.54315e-15
4.88895e-18
1.40859e-15
2.21837e-16
1.14417e-15
2.16633e-16
7.7734e-16
3.34485e-17
1.33139e-15
-2.44712e-16
4.4213e-15
-3.47756e-16
4.2878e-15
-4.37973e-16
4.58536e-15
-1.52155e-16
4.10122e-15
7.80305e-16
2.66538e-15
7.11785e-16
1.83267e-15
2.93003e-16
1.80604e-15
-2.74674e-16
2.2435e-15
-2.87345e-16
2.25322e-15
-3.43135e-16
2.38544e-15
3.12523e-17
1.93294e-15
2.09368e-16
1.71246e-15
1.30143e-16
6.27577e-16
2.35591e-17
2.0384e-16
4.25781e-16
-1.70482e-15
1.49799e-15
-2.46448e-15
1.93102e-15
1.91915e-15
8.90358e-16
2.4107e-15
4.96756e-17
2.65556e-15
2.87508e-16
2.78051e-15
3.30309e-16
3.1585e-15
2.9123e-16
3.58137e-15
2.29147e-16
4.43496e-15
-1.64982e-17
4.34086e-15
-5.43048e-17
4.90413e-15
2.38135e-16
4.26999e-15
2.55879e-16
5.62563e-15
1.37169e-16
3.68786e-15
3.24288e-16
6.95139e-15
2.42414e-16
1.52782e-15
-5.15896e-16
7.06213e-15
1.77345e-16
4.7587e-15
2.59218e-16
4.75113e-15
1.42142e-16
4.0137e-15
1.40731e-16
3.4772e-15
2.87083e-18
3.24538e-15
-8.13199e-17
2.29582e-15
-1.39797e-16
4.32025e-15
-5.43523e-17
1.78097e-15
-2.92686e-16
1.9962e-15
2.64839e-16
1.38336e-15
4.45816e-16
1.47711e-15
7.87416e-17
2.00103e-15
2.93144e-17
2.18229e-15
2.9269e-16
4.20165e-15
-1.15307e-16
2.1651e-15
-3.18761e-16
4.06067e-15
5.85762e-17
2.45893e-15
-3.7292e-16
4.43401e-15
-2.20588e-16
4.40286e-15
-4.41981e-16
5.0099e-15
-7.55339e-16
6.56304e-15
-6.44185e-16
2.98846e-15
1.63985e-16
6.24247e-15
7.12732e-16
3.67742e-15
3.52272e-16
6.39863e-15
-1.55176e-16
6.32173e-15
-7.48136e-17
7.63486e-15
-2.55527e-16
7.30381e-15
4.69024e-16
9.19155e-15
9.52057e-16
4.05019e-15
3.68984e-17
9.52446e-15
7.49814e-16
2.52574e-15
3.79336e-16
4.13494e-15
-1.54358e-17
4.84075e-15
-3.55997e-17
4.86564e-15
2.78636e-17
3.7583e-15
3.00256e-16
2.93305e-15
1.18848e-16
2.5193e-15
-2.96898e-16
3.36422e-15
-1.13431e-16
2.61365e-15
-1.78545e-17
3.03605e-15
7.40728e-17
1.32824e-15
7.92147e-17
2.47775e-15
1.88975e-16
2.5808e-15
-1.03463e-17
3.11629e-15
-2.32179e-16
1.57917e-15
-2.81627e-16
3.4322e-15
-1.20146e-16
-4.91459e-16
-6.68867e-16
2.60279e-15
2.58539e-16
2.30133e-15
-2.6743e-16
1.29316e-14
-4.15826e-16
3.34639e-15
6.47491e-16
2.16887e-15
9.48217e-16
2.49086e-15
-1.51717e-16
2.95912e-15
-7.01425e-16
4.36908e-15
-9.23023e-16
4.6711e-15
-1.12019e-16
4.66461e-15
4.75018e-16
4.3327e-15
6.13351e-16
3.18038e-15
1.37998e-15
1.81257e-15
3.70976e-16
2.72086e-15
2.12969e-16
1.07792e-15
1.68255e-16
3.36675e-15
8.36303e-17
1.80501e-15
7.2614e-17
1.63284e-15
-2.56184e-16
2.53254e-15
-1.37245e-15
2.80864e-15
-7.66231e-16
2.37128e-15
-6.1067e-17
2.7419e-15
-6.748e-17
2.56406e-15
4.84234e-16
2.03981e-15
8.0393e-16
1.9557e-15
8.84914e-17
1.69077e-15
-1.22855e-16
1.5509e-15
2.20685e-16
2.22112e-15
-8.52084e-17
3.48809e-15
-3.10703e-16
4.87223e-15
-5.27111e-16
5.60038e-15
-4.21604e-16
8.11243e-15
6.84441e-18
9.60007e-15
-6.00399e-16
1.18388e-14
-6.96873e-16
1.34586e-16
6.16929e-17
1.10198e-16
8.28048e-19
3.88062e-17
7.86928e-17
6.00682e-17
1.18492e-16
2.50223e-17
2.02325e-16
2.95719e-17
3.01474e-16
7.07929e-17
2.63449e-16
7.65619e-17
2.60151e-16
8.11765e-18
2.97588e-16
5.34339e-17
3.35645e-16
4.58822e-17
3.67479e-16
4.46798e-17
4.56473e-16
8.90856e-18
6.10341e-16
1.43444e-16
2.1726e-16
1.25081e-16
7.23051e-16
2.79762e-16
4.67199e-16
7.53176e-17
6.84649e-16
-3.53866e-17
5.89633e-16
-6.42914e-17
5.37029e-16
3.14131e-17
5.89008e-16
1.86448e-17
6.4363e-16
2.73391e-17
6.63281e-16
-2.49426e-17
7.21773e-16
1.75219e-18
6.87106e-16
6.95051e-17
8.04859e-16
4.8046e-17
1.1865e-15
4.60574e-17
4.54431e-16
9.52061e-17
1.17994e-15
3.12085e-16
3.95633e-16
4.9089e-17
8.93116e-17
-4.19651e-17
1.02227e-16
7.30787e-17
2.52821e-16
6.42416e-17
3.16913e-16
4.8599e-17
9.04778e-16
3.51772e-17
1.09365e-15
-1.54665e-17
8.98011e-16
3.41778e-17
6.55222e-16
4.36863e-17
9.02791e-16
1.11865e-16
1.18152e-15
9.98941e-17
1.11254e-15
2.34603e-17
1.05668e-15
9.27007e-17
1.08871e-15
6.51435e-17
1.06575e-15
1.43743e-16
9.51548e-16
1.86427e-16
1.05991e-15
-3.8713e-17
1.12309e-15
-4.0587e-17
7.29702e-16
1.1152e-16
6.14943e-16
9.94637e-17
7.50714e-16
5.96305e-17
8.38483e-16
-6.8436e-18
7.28932e-16
-1.18907e-16
7.50712e-16
-3.21815e-17
5.61337e-16
-2.2113e-17
2.87444e-15
5.56982e-17
1.129e-15
2.7459e-16
1.56873e-15
3.02578e-16
5.80048e-16
1.9435e-16
4.48188e-16
1.45372e-16
4.44753e-16
-7.38525e-17
3.18161e-16
-9.70618e-17
6.21583e-16
3.86818e-17
3.02275e-16
1.10372e-16
3.71341e-16
3.63923e-17
4.78262e-16
-3.75051e-17
1.81208e-16
6.59675e-17
3.08504e-16
-3.09347e-17
6.84192e-16
-1.58362e-16
9.67161e-16
-1.47106e-16
1.65396e-15
-9.12098e-17
1.28326e-15
5.05574e-17
1.22046e-15
2.77944e-16
3.41782e-16
1.22343e-16
5.85735e-16
1.36893e-16
4.18531e-16
6.51279e-17
9.22374e-16
3.41198e-17
1.86431e-17
4.04516e-17
7.28517e-16
1.7144e-16
6.88656e-16
2.7369e-17
1.10031e-15
-1.71367e-16
2.06918e-17
-8.26041e-17
5.97978e-16
1.11932e-16
6.55308e-16
7.67391e-17
9.99081e-16
-1.03479e-17
1.48332e-15
-1.02291e-16
1.46585e-15
2.14696e-16
5.27504e-16
2.19016e-16
7.95158e-16
2.92511e-16
5.19046e-16
-4.84579e-17
1.82061e-15
-1.44266e-16
-2.83986e-17
-1.75956e-16
2.17154e-15
2.78436e-17
1.80279e-16
-1.68109e-16
3.49e-15
3.78813e-17
6.56633e-16
1.67937e-16
4.40897e-16
1.9978e-16
4.60528e-16
8.66989e-17
4.22677e-16
1.16561e-16
2.08561e-16
2.091e-17
6.84723e-16
-4.26955e-17
4.99433e-16
-3.24568e-17
1.86171e-15
2.6715e-17
5.51787e-16
2.23481e-18
1.01203e-15
-2.43571e-16
7.19656e-16
6.72788e-18
6.55974e-16
1.24299e-16
9.44453e-16
-1.14977e-16
1.34723e-15
-1.00227e-16
2.42643e-16
5.04235e-17
1.6939e-15
1.58266e-16
-1.04245e-16
1.02749e-16
1.4443e-15
8.26711e-17
9.08924e-16
5.34361e-17
9.55128e-16
-8.36032e-17
1.09551e-15
-1.94082e-17
1.01135e-15
-3.10708e-17
8.85346e-16
-6.36033e-17
8.17859e-16
-1.37185e-16
7.03828e-16
-1.80473e-16
3.10517e-16
-2.10129e-16
2.14984e-15
-1.39827e-16
1.91801e-15
8.77874e-17
9.95071e-16
1.64424e-16
1.46936e-15
-6.76862e-17
8.6652e-16
-1.55045e-16
9.38266e-16
-1.12477e-16
1.04593e-15
-2.98571e-17
1.20973e-15
6.2329e-17
1.53634e-15
1.60325e-17
1.58526e-15
-1.28452e-17
1.83865e-15
7.87639e-17
1.95085e-15
-1.17098e-17
2.73759e-15
-5.61465e-16
1.80839e-15
-4.36201e-16
1.79631e-15
9.00614e-17
2.19735e-15
1.51617e-16
2.65104e-15
-5.16914e-17
1.94553e-15
4.15828e-16
1.27561e-15
2.96371e-16
1.53286e-15
5.71921e-17
1.67496e-15
-5.56118e-17
1.06956e-15
1.04587e-16
2.58795e-15
1.38892e-16
9.09803e-16
-2.7078e-16
2.64956e-15
-5.82772e-17
8.92638e-16
-3.589e-17
6.79385e-16
-6.2559e-17
8.61166e-16
-8.25014e-18
1.2086e-15
3.87913e-18
1.58409e-15
-8.27927e-17
2.15393e-15
-1.5327e-16
2.21495e-15
-6.27511e-17
1.61883e-15
2.67571e-16
1.33703e-15
2.49963e-16
8.48189e-16
-4.90116e-17
1.4999e-15
-3.89062e-16
8.60251e-16
-1.57585e-16
9.86482e-16
-2.00059e-16
9.96909e-16
-1.34251e-16
1.32517e-15
-2.15512e-16
1.55314e-15
-1.12825e-16
1.65531e-15
3.01564e-17
1.39633e-15
5.46523e-18
9.82821e-16
1.55151e-16
8.12674e-16
1.0078e-16
1.24254e-15
-1.34296e-16
7.88043e-16
-2.34475e-16
1.91229e-15
9.70358e-17
1.49015e-15
2.51342e-16
-4.97916e-16
1.26136e-16
1.78194e-15
2.78102e-16
-5.5055e-16
-1.47387e-16
1.01672e-15
-1.06003e-16
1.91789e-15
-4.51459e-16
4.50691e-15
-2.98752e-16
2.08126e-15
3.16654e-16
1.65035e-15
3.56433e-16
1.34145e-15
-9.55985e-17
1.14435e-15
-4.02751e-16
1.20127e-15
-2.33509e-16
1.48925e-15
-3.85249e-17
2.19528e-15
-1.34819e-16
2.56825e-15
2.21006e-16
2.48541e-15
4.45882e-16
2.82077e-15
1.74869e-16
3.8754e-15
2.79904e-16
2.4372e-15
2.61287e-16
9.79767e-16
2.97885e-17
1.14958e-15
-3.26195e-18
2.34014e-15
1.16547e-18
4.30262e-16
7.57915e-16
1.11157e-15
6.73642e-16
2.08721e-16
3.18306e-16
8.72764e-16
7.33092e-17
1.69266e-15
3.14354e-16
1.85647e-15
3.66222e-16
2.62427e-15
5.07175e-17
1.4958e-15
6.1344e-16
1.23364e-15
5.30149e-16
5.56416e-15
3.20312e-16
2.88616e-15
-2.35326e-16
5.35604e-15
2.30569e-16
4.70073e-15
6.51901e-17
5.59229e-15
-3.68089e-17
5.86561e-15
-1.40086e-16
5.40899e-15
2.74998e-16
4.18099e-15
6.50831e-16
4.29365e-15
4.32991e-16
4.55039e-15
-8.68973e-17
4.92832e-15
-2.00985e-16
4.8574e-15
1.12265e-16
4.77677e-15
1.73502e-16
5.64847e-15
-4.65849e-17
5.74697e-15
6.64266e-17
5.40593e-15
2.35935e-16
5.55184e-15
4.78859e-17
5.69566e-15
-6.16596e-17
4.61455e-15
-1.31051e-16
5.06715e-15
-4.51926e-17
3.77915e-15
1.63734e-16
4.50629e-15
3.54376e-16
5.00694e-15
3.10316e-16
5.90032e-15
2.10503e-16
6.01604e-15
2.73038e-16
7.11099e-15
3.15402e-16
3.45987e-15
6.17604e-17
7.8978e-15
6.35767e-16
1.64331e-15
4.12106e-16
5.48712e-15
5.82752e-16
2.36754e-16
-1.46692e-16
5.02144e-15
7.97529e-17
1.70373e-15
-6.27181e-17
2.6193e-15
-2.14314e-16
2.86655e-15
-1.52007e-17
2.01728e-15
4.86577e-16
1.83785e-15
7.83799e-17
2.02595e-15
-2.96785e-16
2.66336e-15
-1.84864e-16
2.5592e-15
6.32684e-17
2.30109e-15
2.29781e-16
2.15638e-15
1.20167e-16
3.05565e-15
-1.8663e-16
3.64489e-15
-4.61457e-16
4.05082e-15
-1.8639e-16
3.36871e-15
-1.87603e-16
3.76523e-15
-4.93904e-16
-1.49062e-15
-2.08896e-16
2.64032e-15
8.42163e-16
-4.24161e-16
2.69372e-15
6.30661e-15
7.15352e-16
9.4522e-16
4.81306e-17
3.03066e-15
3.52485e-16
6.32906e-15
4.19338e-16
1.60124e-15
4.40669e-16
2.54884e-15
4.12416e-16
2.87669e-15
-1.86403e-16
2.96997e-15
-1.74891e-16
3.36334e-15
-2.88423e-16
3.99788e-15
-5.01389e-16
4.20339e-15
-1.86319e-16
4.67264e-15
1.09037e-16
4.94137e-15
3.52885e-16
5.77711e-15
3.15774e-16
5.68963e-15
1.96951e-16
5.55659e-15
5.14694e-17
4.82724e-15
-4.73702e-17
4.25517e-15
1.26864e-16
4.50049e-15
-5.67958e-16
4.86238e-15
-3.69996e-16
4.3673e-15
2.08226e-16
3.91267e-15
7.59895e-16
4.09535e-15
2.87821e-16
3.92548e-15
2.26247e-16
3.62092e-15
1.57976e-16
3.62276e-15
-6.56521e-17
4.33307e-15
-5.56255e-16
3.48395e-15
-5.61112e-16
2.32135e-15
-1.60326e-16
5.49865e-15
4.3715e-16
2.50316e-15
5.7563e-16
2.79671e-15
2.03354e-16
2.68158e-15
-4.31396e-17
2.55868e-15
-3.17938e-16
1.43534e-15
-3.94185e-16
6.11814e-15
6.73539e-17
1.57769e-15
2.80313e-16
5.2812e-15
3.615e-17
3.32238e-15
-4.85457e-16
3.89677e-15
-4.18087e-16
4.70678e-15
-3.76028e-16
5.45204e-15
3.05823e-16
5.47435e-15
7.22471e-16
5.76694e-15
-1.50439e-16
4.27691e-15
-2.50772e-16
2.92285e-15
2.12594e-16
2.82275e-15
-1.46628e-17
1.55133e-15
-2.0368e-16
3.90269e-15
3.27141e-16
1.59711e-15
1.71405e-16
9.33844e-15
-1.36673e-16
-8.65474e-16
1.33881e-15
7.15415e-16
2.6843e-15
2.43206e-15
7.51759e-16
4.03724e-15
-2.32453e-16
4.59148e-15
-4.68772e-17
5.21996e-15
3.80155e-16
5.77773e-15
2.72364e-16
5.92776e-15
1.70318e-16
5.81626e-15
3.72684e-16
5.69823e-15
1.30571e-16
5.80271e-15
-1.10877e-16
5.92977e-15
-1.60631e-17
6.50843e-15
-1.44135e-16
3.82179e-15
-1.49721e-16
9.53334e-15
2.85124e-16
3.12309e-15
5.42632e-16
7.63153e-15
6.01385e-16
5.88761e-15
1.01025e-17
6.8776e-15
-2.10727e-16
8.27898e-15
5.55635e-17
6.06153e-15
2.37164e-16
7.95329e-15
1.68999e-16
5.62943e-15
-9.51868e-16
1.37264e-14
-6.48458e-16
4.46586e-15
2.41958e-16
1.17695e-14
5.97707e-16
5.62659e-15
-7.46536e-17
4.3371e-15
-1.19945e-16
4.70423e-15
5.12538e-16
4.65628e-15
7.13558e-16
5.45796e-15
6.72899e-16
5.45354e-15
6.83453e-16
3.72695e-15
1.30426e-16
3.8752e-15
-2.50527e-16
5.05601e-15
-3.94303e-16
3.36844e-15
-3.39259e-16
4.55792e-15
-4.88778e-16
4.99676e-15
-8.18096e-16
4.17434e-15
-3.36919e-16
3.63521e-15
3.78885e-16
4.31376e-15
2.79383e-16
4.54427e-15
7.9161e-17
3.20034e-15
1.13933e-16
4.49071e-15
4.08431e-17
4.43733e-15
5.89011e-17
6.22351e-15
4.96728e-16
3.69667e-15
3.0031e-16
3.28152e-15
4.32881e-16
2.57612e-15
2.75809e-18
6.82947e-15
-2.33127e-16
3.20339e-15
4.70939e-18
5.06371e-15
1.49888e-16
5.39126e-15
1.19759e-16
5.80265e-15
-4.36773e-17
6.11544e-15
-1.17303e-16
4.37547e-15
4.14216e-16
4.08633e-15
3.6342e-16
4.57523e-15
2.11082e-16
2.66217e-15
-1.00133e-16
5.87959e-15
-2.01247e-16
3.21568e-15
-1.84209e-16
6.29534e-15
-9.23889e-18
2.7344e-15
-3.06812e-18
5.8634e-15
-4.21809e-16
1.38863e-15
-1.49694e-15
8.02875e-15
-4.44036e-16
1.94414e-15
-3.32838e-16
8.20258e-15
-4.88238e-16
2.24309e-15
1.47418e-16
6.475e-15
7.44118e-16
2.85961e-15
7.0178e-16
5.96478e-15
5.53691e-16
3.94707e-15
-2.56246e-16
3.19273e-15
5.25348e-17
3.52166e-15
-2.06163e-16
5.74024e-15
-6.65671e-17
5.28468e-15
-3.19843e-16
4.6232e-15
3.82287e-17
6.37735e-15
9.70305e-16
3.77137e-15
7.90216e-16
1.31564e-14
-1.76856e-16
3.4036e-15
-1.84236e-16
4.94483e-15
-1.75794e-16
8.41346e-15
1.52424e-16
4.20103e-15
-1.18325e-15
4.10026e-15
-8.37759e-16
3.86427e-15
-1.24065e-16
3.05919e-15
4.73828e-16
3.22182e-15
1.33646e-16
4.33561e-15
-5.19567e-16
4.45111e-15
-2.59183e-16
3.67992e-15
-2.62393e-17
2.19649e-15
-2.33943e-16
3.27491e-15
-1.03883e-16
3.62016e-15
2.72495e-16
4.50914e-15
-6.15507e-16
7.78705e-15
-1.48204e-16
3.46605e-15
3.11363e-16
7.52896e-15
1.14233e-16
6.93685e-15
-6.73051e-16
-2.65325e-16
2.93666e-17
1.52711e-16
1.06357e-17
5.90484e-17
1.08828e-16
1.29279e-16
1.39699e-16
1.33795e-16
8.55723e-17
2.06275e-17
9.27555e-17
1.51956e-17
2.27485e-16
7.61909e-17
1.21082e-16
2.60682e-18
1.86503e-16
2.48983e-17
2.2185e-16
4.5404e-18
2.06041e-16
5.3766e-17
1.67588e-16
4.14023e-17
1.80499e-16
9.69967e-17
8.33244e-16
1.96132e-16
4.44282e-16
7.49711e-17
1.04068e-15
1.50003e-16
1.91677e-16
5.06745e-17
1.06363e-16
4.51481e-17
1.8283e-16
9.27428e-17
2.49737e-16
1.01363e-16
2.86574e-16
1.26332e-16
4.69161e-16
4.83013e-17
2.51925e-16
6.32569e-17
2.87741e-16
1.26323e-16
3.94753e-16
-3.9537e-18
2.41611e-16
-2.80525e-17
7.46187e-16
1.04025e-16
7.1397e-17
3.19439e-17
1.31136e-15
1.8472e-16
2.90655e-16
1.62069e-16
2.16405e-16
1.07946e-16
1.8475e-16
1.09083e-16
3.38282e-16
9.97707e-17
1.41818e-16
2.09272e-16
3.15972e-16
8.2846e-17
3.77219e-16
2.70272e-17
2.56053e-16
1.37544e-16
3.34914e-16
2.20372e-16
4.77321e-16
1.63624e-16
3.82135e-16
1.60235e-16
3.60382e-16
5.39154e-18
3.38803e-16
-1.26593e-17
4.8956e-16
1.24696e-17
4.88723e-16
-2.71117e-17
9.52855e-16
-1.66698e-17
5.19022e-16
1.63264e-16
6.02947e-16
1.33062e-16
7.8462e-16
2.82632e-17
9.77832e-16
-3.78978e-17
9.69409e-16
1.73071e-16
4.21452e-16
1.8644e-16
4.44108e-16
2.01019e-17
4.18376e-16
2.6296e-17
4.9649e-16
4.83327e-17
1.43744e-15
-7.21883e-18
1.34281e-15
-8.47938e-17
2.22273e-15
1.0762e-16
1.45796e-15
4.37976e-17
9.3026e-16
1.56564e-16
6.91818e-16
2.30262e-16
5.80068e-16
1.25382e-16
1.13618e-15
3.39021e-17
6.5033e-16
-7.02845e-17
8.56933e-16
6.53714e-17
1.3682e-15
2.35473e-17
9.33567e-16
1.03854e-16
1.12128e-15
1.10251e-16
7.64088e-16
1.90217e-17
7.44319e-16
6.79988e-18
1.10107e-15
-5.38676e-17
1.37139e-15
-1.05344e-16
1.3498e-15
4.66425e-17
7.79217e-16
2.27652e-16
9.71661e-16
3.13965e-16
7.82582e-16
-2.49285e-17
2.1051e-15
-9.08569e-17
8.04476e-16
-1.00775e-16
2.7109e-15
-8.26293e-17
6.60552e-16
5.00006e-17
7.06717e-16
1.55677e-16
6.92055e-16
1.62095e-17
1.09978e-15
-9.33428e-17
1.18729e-15
-2.36761e-18
9.05428e-16
2.229e-16
1.04586e-15
1.6331e-16
1.16271e-15
1.50456e-16
1.81634e-15
-4.46506e-17
6.85303e-16
3.89232e-17
1.11293e-15
1.61763e-16
9.89622e-16
-5.36212e-18
1.89405e-15
-3.23995e-17
1.03407e-15
-3.05463e-17
1.23053e-15
-1.65165e-17
1.25383e-15
7.97536e-17
1.26456e-15
2.37624e-16
1.26611e-15
8.92732e-17
1.52193e-15
-8.22158e-17
1.46432e-15
1.45381e-16
1.11015e-15
3.34833e-16
1.00427e-15
3.35955e-17
9.25814e-16
-3.2151e-16
2.41485e-15
-8.46061e-17
1.24397e-15
-1.26019e-16
1.27045e-15
-8.98716e-17
1.05708e-15
1.10955e-17
9.85662e-16
5.43401e-17
9.65347e-16
-2.62892e-17
1.16377e-15
-6.11008e-17
1.12664e-15
-5.08424e-17
1.59402e-15
1.19553e-16
1.13545e-15
3.02023e-16
2.08014e-15
3.98951e-16
1.12143e-15
-1.2063e-17
1.27979e-15
-1.37229e-16
1.37921e-15
-1.09992e-16
1.37299e-15
-3.78754e-17
1.29406e-15
-9.82892e-17
1.1278e-15
-1.28959e-16
1.51315e-15
-1.10198e-16
1.03957e-15
-1.15206e-17
1.29688e-15
6.80409e-17
1.49402e-15
5.85492e-17
9.87018e-16
1.73371e-17
1.38552e-15
6.54476e-17
1.33875e-15
-4.41928e-17
1.54167e-15
-1.36669e-16
1.87557e-15
-1.55363e-16
2.07237e-15
-9.19772e-17
2.09905e-15
3.60248e-17
2.23609e-15
-9.36245e-17
3.064e-15
-1.84339e-16
1.70933e-15
-1.67738e-16
2.26335e-15
-1.84714e-16
1.55459e-15
-3.29004e-17
1.82109e-15
-8.19605e-17
1.76252e-15
3.85106e-17
1.81244e-15
1.96613e-16
1.61906e-15
1.67422e-16
1.33094e-15
2.83636e-16
1.52024e-15
-3.02936e-16
2.71222e-15
-5.01641e-16
-8.80741e-16
-2.25799e-16
1.62152e-15
2.38614e-16
1.50968e-15
1.18045e-16
7.79563e-16
1.95941e-16
6.82421e-16
-6.54495e-17
1.02593e-15
-2.31015e-16
9.73493e-16
-4.34028e-17
1.30142e-15
1.52576e-16
1.58292e-15
-1.13341e-16
2.04902e-15
-1.76384e-16
2.00451e-15
-1.73693e-16
2.88251e-15
-5.45415e-16
2.50909e-15
-2.23872e-16
1.69598e-15
2.95305e-16
1.45552e-15
2.52223e-16
1.41079e-15
-7.77705e-17
1.41404e-15
-2.44139e-16
1.26854e-15
-1.27337e-16
1.25041e-15
-1.5137e-16
1.41178e-15
-1.67748e-16
1.94286e-15
6.77076e-17
9.25237e-16
1.03497e-16
1.18623e-15
6.09941e-18
1.98321e-15
-8.12145e-17
2.02782e-15
-1.23916e-16
1.87717e-15
-7.36991e-17
1.98151e-15
2.85823e-17
3.43241e-15
-8.26584e-17
-2.5076e-16
-3.2601e-16
4.60453e-15
-9.69846e-17
-4.44415e-16
1.92456e-16
3.38174e-15
3.19327e-16
1.73838e-15
-1.68759e-16
2.71419e-15
-3.1109e-16
3.23803e-15
-3.0637e-16
2.99725e-15
-1.60052e-17
2.31386e-15
1.26063e-16
1.82531e-15
1.18158e-16
1.60595e-15
4.95434e-17
1.38059e-15
-1.51259e-16
1.89766e-15
-1.2058e-16
2.55726e-15
8.1046e-17
2.79634e-15
1.05556e-16
2.72382e-15
-3.36456e-17
3.93386e-15
1.8666e-16
9.9227e-16
-2.18444e-16
4.36563e-15
2.146e-16
-5.27472e-16
1.03402e-15
-6.1669e-16
1.09329e-15
1.0109e-15
4.60011e-16
2.18967e-15
2.30699e-17
2.50378e-15
1.43107e-16
2.68103e-15
5.75861e-16
3.91424e-15
1.1744e-16
2.27294e-15
7.44271e-17
3.36746e-15
1.17371e-16
4.20984e-15
-1.6851e-16
4.26577e-15
3.30013e-16
4.75604e-15
2.97613e-16
5.3406e-15
-6.96327e-17
5.32533e-15
1.47737e-17
4.98912e-15
-2.61729e-17
6.22763e-15
-2.65118e-16
5.77182e-15
1.55716e-16
6.87722e-15
2.10447e-16
6.53846e-15
1.96883e-16
6.22325e-15
2.91872e-16
5.80635e-15
2.06044e-16
5.67679e-15
2.95197e-16
6.31192e-15
5.41007e-17
7.06734e-15
-7.38327e-17
4.57442e-15
-7.47621e-17
5.70331e-15
2.80472e-17
6.06299e-15
-4.2939e-17
6.25374e-15
4.42216e-17
5.93016e-15
4.54142e-17
4.38471e-15
8.07742e-17
5.20103e-15
1.33172e-16
5.86699e-15
2.18374e-16
5.90354e-15
2.61328e-16
4.90416e-15
-1.74757e-17
6.68872e-15
9.95287e-17
4.53011e-15
-1.76683e-16
7.07592e-15
4.11021e-16
4.22122e-15
3.47151e-16
6.27813e-15
3.7929e-16
2.66303e-15
2.10228e-16
6.85384e-15
9.11484e-16
3.08537e-15
3.84039e-16
2.58033e-15
-1.41001e-16
1.78321e-15
-6.67406e-17
2.66131e-15
-1.55565e-16
3.98374e-15
-3.45345e-16
3.54721e-15
-9.41877e-17
2.88457e-15
2.45623e-16
2.54849e-15
3.39831e-17
3.1908e-15
-3.35422e-16
3.67534e-15
-5.1073e-16
4.31237e-15
-4.75412e-16
4.07319e-15
-2.90023e-16
3.93601e-15
-2.8454e-16
3.68864e-15
-1.56756e-16
3.82483e-15
-1.58365e-16
6.66712e-16
-1.88941e-16
3.07451e-15
-2.79758e-16
-6.65993e-16
-2.0502e-17
7.49757e-15
1.206e-15
3.06255e-15
-1.38661e-16
4.30771e-15
5.00794e-16
5.61045e-15
4.94338e-16
4.74098e-15
4.74681e-16
4.47668e-15
6.88072e-16
4.86177e-15
2.13501e-16
5.10057e-15
-2.86742e-16
4.67315e-15
-4.19167e-17
4.44522e-15
-2.89612e-16
4.05992e-15
-6.91094e-16
4.10185e-15
9.89816e-17
4.5414e-15
1.82127e-16
5.43715e-15
2.33861e-16
5.44655e-15
2.36606e-17
5.64832e-15
-2.70889e-16
5.69943e-15
-3.23209e-16
5.83569e-15
-6.79358e-17
5.70154e-15
3.75159e-16
4.43502e-15
3.94438e-17
4.30807e-15
-6.67166e-16
4.14034e-15
4.03243e-16
4.39937e-15
4.00082e-16
5.15069e-15
-1.86837e-16
4.37681e-15
-3.61782e-16
5.54385e-15
2.59006e-16
4.40495e-15
-3.11737e-16
6.61998e-15
-5.07207e-16
4.25462e-15
-6.58913e-16
3.67129e-15
1.0574e-16
2.93199e-15
5.28221e-16
7.11723e-15
2.81077e-16
3.26648e-15
-8.44436e-17
7.28632e-15
1.10136e-17
2.51883e-15
8.04723e-17
5.80943e-15
4.09646e-16
4.49323e-15
9.19174e-17
5.57813e-15
-1.41369e-16
5.17809e-15
8.60094e-18
5.00195e-15
2.95994e-17
4.53685e-15
-1.54813e-16
5.12483e-15
-8.25883e-16
6.36218e-15
-1.09555e-15
6.58336e-15
4.29024e-16
5.91012e-15
4.45504e-16
5.7018e-15
-4.15271e-16
8.45856e-15
-6.7132e-17
1.24573e-15
-2.52171e-16
9.32522e-15
2.38046e-16
5.48159e-16
4.65593e-16
7.23844e-15
-1.70659e-16
-2.18155e-15
2.43245e-16
2.47403e-17
1.62869e-15
3.12128e-15
8.05475e-17
4.94546e-15
-6.46774e-16
7.15718e-15
-1.84804e-15
8.20423e-15
-1.93902e-16
6.27084e-15
2.97637e-16
5.83238e-15
5.4396e-16
5.92188e-15
7.25895e-17
6.05321e-15
2.34082e-16
6.32243e-15
1.26783e-16
5.66542e-15
4.31733e-17
6.65501e-15
6.5331e-17
4.88689e-15
-1.99683e-16
7.41864e-15
6.7269e-17
4.10666e-15
2.54174e-16
5.86026e-15
3.62905e-16
7.02653e-15
1.55192e-16
5.97305e-15
1.9639e-16
6.41835e-15
3.0261e-16
5.71468e-15
-2.27918e-16
8.35478e-15
-6.78685e-16
4.95108e-15
-5.03452e-16
1.18993e-14
-1.14099e-16
2.64254e-15
2.9149e-16
5.33817e-15
2.82017e-16
5.79888e-15
2.51554e-16
5.65553e-15
3.53127e-17
5.35306e-15
2.32974e-16
5.47547e-15
3.57742e-16
6.61734e-15
1.75891e-16
7.66706e-15
3.0581e-16
7.27923e-15
1.10176e-15
5.94618e-15
3.54397e-16
5.83911e-15
-2.06492e-16
5.47862e-15
-7.48771e-16
5.51855e-15
-9.29877e-16
6.16551e-15
-7.34788e-16
6.47374e-15
-1.34141e-15
7.26189e-15
-6.38452e-16
5.94677e-15
-1.59943e-16
4.86361e-15
4.56175e-16
4.34882e-15
1.96443e-16
5.12372e-15
-2.95876e-17
4.91567e-15
6.53091e-16
4.361e-15
3.37974e-16
3.51217e-15
-3.4436e-16
9.23584e-15
-2.87568e-16
-8.53377e-16
4.05998e-16
7.88284e-15
5.32438e-16
5.16138e-15
-4.38788e-16
5.8687e-15
-2.95803e-16
6.43221e-15
-4.08572e-16
7.05255e-15
-4.30706e-16
7.03296e-15
5.58748e-17
6.89958e-15
3.35404e-16
6.20579e-15
1.15247e-16
6.71319e-15
-2.15043e-17
5.28158e-15
1.69842e-16
5.84256e-15
5.63791e-16
3.90769e-15
1.69779e-16
4.42453e-15
-5.32354e-16
5.15302e-15
-6.22626e-16
8.42833e-15
-6.19068e-16
1.75934e-15
-2.42406e-16
6.48618e-15
1.26751e-16
2.7897e-15
2.51935e-16
2.76605e-15
-4.49077e-16
3.90881e-15
-1.91566e-15
4.13505e-15
-2.13598e-16
4.66543e-15
1.07092e-16
5.27129e-15
-3.21729e-16
5.25314e-15
-7.58683e-16
7.11216e-15
-2.02329e-16
1.0777e-15
-4.07275e-16
7.84323e-15
1.12003e-16
8.06462e-16
-4.50572e-18
5.57539e-15
4.53054e-16
2.51869e-15
-1.18508e-16
3.7633e-15
4.95275e-16
4.36629e-15
6.5205e-16
1.38917e-15
-3.11599e-17
3.39652e-15
-1.95417e-16
3.55763e-15
-8.04933e-18
8.60615e-16
-1.28155e-15
3.39327e-15
-8.53229e-16
3.01634e-15
-8.63471e-16
3.29983e-15
-5.80386e-16
3.63196e-15
-7.9709e-17
3.63012e-15
-8.42157e-17
2.83713e-15
4.92789e-17
2.17507e-15
8.80696e-18
3.09577e-15
-8.57198e-16
3.55609e-15
-6.86091e-16
3.75167e-15
-2.79311e-16
4.1288e-15
-9.54432e-17
3.60075e-15
-6.95388e-17
2.58492e-15
8.63492e-17
7.4836e-15
6.3298e-17
3.53913e-15
1.47962e-17
7.19225e-15
3.66611e-16
2.37713e-16
4.16051e-17
2.01406e-16
4.55112e-18
7.93985e-17
-4.30718e-18
-4.49151e-17
-2.36124e-17
-1.70677e-17
-5.09479e-17
-1.17358e-17
7.62127e-17
4.60523e-17
2.03353e-16
8.78176e-17
2.84601e-17
-7.31573e-18
1.68071e-17
1.51466e-17