/*--------------------------------*- C++ -*----------------------------------*\
  =========                 |
  \\      /  F ield         | OpenFOAM: The Open Source CFD Toolbox
   \\    /   O peration     | Website:  https://openfoam.org
    \\  /    A nd           | Version:  7
     \\/     M anipulation  |
\*---------------------------------------------------------------------------*/
FoamFile
{
    version     2.0;
    format      ascii;
    class       volScalarField;
    location    "1500";
    object      alpha.wetting;
}
// * * * * * * * * * * * * * * * * * * * * * * * * * * * * * * * * * * * * * //

dimensions      [0 0 0 0 0 0 0];

internalField   nonuniform List<scalar> 
160000
(
0.542812
0.542812
0.419463
0.463791
0.428985
0.420081
0.503168
0.609572
0.496349
0.498726
0.482655
0.460508
0.446541
0.510339
0.501909
0.468855
0.468855
0.511604
0.599007
0.564201
0.447321
0.447321
0.522196
0.495879
0.409334
0.409334
0.54325
0.543266
0.543251
0.543268
0.536492
0.437794
0.437789
0.437801
0.437795
0.443533
0.571958
0.57196
0.571961
0.571963
0.39968
0.39968
0.45505
0.560961
0.560963
0.560966
0.560968
0.439142
0.439142
0.439142
0.453497
0.560497
0.560495
0.56053
0.560491
0.50289
0.460628
0.460629
0.473908
0.514531
0.514546
0.514531
0.514556
0.514531
0.514544
0.466581
0.455084
0.455083
0.455084
0.513335
0.513363
0.513335
0.513376
0.513335
0.513377
0.513334
0.513391
0.513332
0.513389
0.513331
0.513393
0.51333
0.513376
0.489086
0.489093
0.492853
0.488706
0.488697
0.489583
0.470546
0.470564
0.513589
0.513643
0.513589
0.482229
0.482214
0.522913
0.52291
0.522913
0.522911
0.522916
0.493188
0.500845
0.500843
0.511443
0.484462
0.484464
0.529179
0.529213
0.529179
0.529228
0.529179
0.518542
0.505593
0.505596
0.489669
0.489669
0.53959
0.539581
0.539606
0.527456
0.534435
0.550535
0.550535
0.550535
0.519902
0.486437
0.486441
0.488489
0.467635
0.467635
0.470829
0.549692
0.520316
0.476698
0.476675
0.476698
0.476683
0.476698
0.476694
0.487118
0.477484
0.477484
0.53527
0.535231
0.53527
0.535231
0.515598
0.482824
0.482822
0.502407
0.502411
0.502415
0.484968
0.48497
0.525632
0.525648
0.525632
0.509123
0.482377
0.482375
0.482377
0.482375
0.478412
0.472997
0.518524
0.518543
0.518524
0.518568
0.518523
0.518566
0.481782
0.481876
0.488694
0.488691
0.493657
0.522053
0.522042
0.512625
0.510466
0.510467
0.541726
0.512551
0.512555
0.525323
0.535669
0.529428
0.48698
0.486978
0.52151
0.458675
0.446941
0.4469
0.446941
0.446907
0.446943
0.52964
0.529645
0.505128
0.459377
0.459437
0.459397
0.460717
0.497122
0.528257
0.528263
0.52827
0.532913
0.539935
0.539936
0.531719
0.498834
0.49885
0.524702
0.518322
0.516689
0.516684
0.521715
0.521674
0.521715
0.521674
0.519599
0.519589
0.550953
0.550954
0.551013
0.53637
0.480786
0.480832
0.480799
0.480832
0.521775
0.520616
0.520821
0.520845
0.520822
0.520854
0.520822
0.520513
0.521644
0.521668
0.530981
0.52256
0.522553
0.526408
0.497062
0.495367
0.491934
0.451982
0.449762
0.457807
0.457826
0.44964
0.457962
0.501945
0.501943
0.501941
0.471439
0.492081
0.492078
0.475407
0.475425
0.490105
0.505557
0.524188
0.524188
0.524188
0.51685
0.503001
0.472779
0.472783
0.51204
0.512036
0.512031
0.508985
0.534615
0.534596
0.534585
0.497286
0.491355
0.492919
0.52794
0.527939
0.52794
0.502113
0.493719
0.474634
0.466824
0.519556
0.522741
0.480341
0.480339
0.537275
0.537275
0.537284
0.537281
0.508428
0.50843
0.515906
0.515887
0.521922
0.49994
0.45912
0.443391
0.443406
0.443416
0.450499
0.450509
0.465913
0.518707
0.518691
0.518708
0.51939
0.519421
0.483026
0.460969
0.460857
0.460972
0.512809
0.497888
0.49788
0.501888
0.509426
0.499706
0.499751
0.502211
0.510446
0.508293
0.50145
0.499259
0.481859
0.465888
0.465843
0.465887
0.465849
0.465887
0.467013
0.440518
0.377388
0.377303
0.377386
0.377328
0.377359
0.378565
0.623313
0.63153
0.631647
0.631528
0.631668
0.631471
0.572684
0.546062
0.518378
0.518373
0.532639
0.532623
0.532639
0.501321
0.494621
0.494589
0.513533
0.532632
0.50614
0.495336
0.495384
0.495302
0.513634
0.513617
0.513788
0.513623
0.525131
0.525139
0.525131
0.515866
0.515874
0.516153
0.516158
0.525366
0.525343
0.525378
0.525343
0.519732
0.507834
0.507828
0.507817
0.507806
0.497732
0.497744
0.49775
0.499072
0.492385
0.475956
0.470594
0.468744
0.468721
0.405758
0.271991
0.27215
0.272174
0.272191
0.469464
0.451385
0.596941
0.418057
0.418056
0.437956
0.470036
0.470032
0.490093
0.485412
0.48439
0.50608
0.528619
0.52863
0.528619
0.503382
0.468855
0.508842
0.47168
0.447326
0.447326
0.519673
0.522197
0.522197
0.450547
0.543247
0.543266
0.543251
0.543268
0.51589
0.452805
0.448078
0.455145
0.437795
0.437801
0.554478
0.554484
0.508891
0.571962
0.461965
0.39968
0.39968
0.412925
0.550729
0.560961
0.560963
0.542559
0.471575
0.43916
0.439142
0.439142
0.553042
0.543992
0.52538
0.525421
0.553405
0.55011
0.48773
0.50711
0.507115
0.514531
0.514543
0.472593
0.506594
0.509976
0.462048
0.510049
0.513328
0.513327
0.513332
0.478923
0.464494
0.464484
0.50166
0.482855
0.482863
0.482844
0.482864
0.513331
0.513354
0.506585
0.496096
0.512086
0.51347
0.513471
0.492862
0.488692
0.513595
0.513588
0.513632
0.513589
0.513633
0.513589
0.513087
0.479897
0.500614
0.491015
0.483185
0.469645
0.469652
0.469625
0.469652
0.529994
0.552545
0.519712
0.525522
0.525523
0.493083
0.493055
0.493089
0.493055
0.493089
0.53176
0.531775
0.539519
0.539525
0.539532
0.539574
0.539597
0.539581
0.498129
0.498136
0.498124
0.498136
0.498134
0.515101
0.49533
0.509269
0.519275
0.476096
0.467635
0.489486
0.549729
0.549726
0.549717
0.554279
0.558592
0.479621
0.490804
0.533672
0.535228
0.535219
0.535261
0.535221
0.506674
0.479509
0.528036
0.496628
0.482822
0.487059
0.47527
0.475272
0.517165
0.525634
0.525631
0.525646
0.525641
0.51628
0.473187
0.486984
0.486986
0.47565
0.45439
0.454393
0.472999
0.518543
0.518524
0.513059
0.469461
0.462843
0.462901
0.462873
0.493049
0.53858
0.538624
0.553458
0.522048
0.52204
0.544075
0.52466
0.54574
0.545731
0.512555
0.53766
0.553805
0.55383
0.487254
0.486978
0.553803
0.553812
0.553788
0.499664
0.49843
0.505063
0.505061
0.529639
0.529647
0.521274
0.459374
0.459437
0.459387
0.459437
0.482611
0.528243
0.528249
0.528257
0.470627
0.470656
0.474784
0.474784
0.474785
0.493727
0.524702
0.524702
0.524702
0.528958
0.524412
0.471283
0.471298
0.471275
0.47765
0.503717
0.550951
0.550954
0.551036
0.550962
0.551076
0.550971
0.55108
0.550971
0.551037
0.52275
0.458731
0.458733
0.458731
0.520824
0.492544
0.492555
0.492555
0.492557
0.492557
0.550408
0.550504
0.550516
0.550513
0.550619
0.550513
0.542951
0.449685
0.449824
0.449791
0.457807
0.449678
0.449623
0.498464
0.492934
0.463179
0.46317
0.463179
0.463181
0.463187
0.512342
0.522424
0.522432
0.502978
0.46655
0.466555
0.531287
0.53129
0.531287
0.476005
0.449813
0.449814
0.449813
0.506347
0.536719
0.505498
0.466743
0.466807
0.484073
0.507945
0.511708
0.505523
0.46672
0.466819
0.466734
0.46682
0.466808
0.504977
0.522742
0.536475
0.541229
0.489231
0.454868
0.454863
0.550534
0.550502
0.55054
0.550491
0.550652
0.525586
0.443333
0.44337
0.443379
0.443771
0.455884
0.484528
0.484529
0.484529
0.518717
0.518755
0.518752
0.503242
0.460861
0.460969
0.460847
0.460969
0.524091
0.537317
0.537366
0.537321
0.537395
0.537323
0.537475
0.537319
0.518207
0.517872
0.46386
0.463902
0.507189
0.533165
0.498301
0.471916
0.480579
0.465887
0.465861
0.525802
0.526358
0.468455
0.469667
0.484808
0.39267
0.377355
0.482795
0.63153
0.631596
0.572485
0.477521
0.474906
0.474988
0.474941
0.505075
0.540134
0.540117
0.515349
0.519567
0.532629
0.532676
0.532631
0.532702
0.532632
0.532703
0.532632
0.53276
0.532632
0.506756
0.488316
0.488433
0.488333
0.488431
0.488343
0.488431
0.496037
0.511065
0.522871
0.522908
0.525386
0.525343
0.52539
0.525343
0.525538
0.515376
0.497094
0.497176
0.505483
0.491892
0.491894
0.499948
0.526486
0.526465
0.506106
0.523409
0.468788
0.468766
0.506135
0.448136
0.272085
0.272086
0.272188
0.272174
0.469464
0.499909
0.596941
0.596941
0.562568
0.465468
0.526869
0.522051
0.490877
0.511617
0.511619
0.511622
0.512015
0.528619
0.528631
0.528619
0.500046
0.438287
0.463181
0.500563
0.500562
0.499418
0.484542
0.501491
0.543243
0.543251
0.543247
0.54327
0.543247
0.50787
0.498666
0.501708
0.466505
0.437806
0.437801
0.531993
0.540417
0.508884
0.505756
0.501152
0.516975
0.512089
0.493442
0.502883
0.44888
0.448887
0.478325
0.501771
0.501772
0.501771
0.473473
0.473468
0.508072
0.553405
0.553405
0.553417
0.553405
0.513289
0.461294
0.461294
0.483455
0.514531
0.451396
0.449099
0.462042
0.462049
0.462041
0.46205
0.470698
0.513327
0.513325
0.497472
0.464494
0.464487
0.513326
0.513321
0.513358
0.513325
0.513361
0.508014
0.521903
0.468734
0.467132
0.467133
0.513478
0.5064
0.516232
0.472752
0.472737
0.492289
0.491092
0.48907
0.501324
0.479028
0.479028
0.500619
0.500622
0.500622
0.500624
0.500627
0.528441
0.528434
0.528461
0.552552
0.552561
0.481151
0.481152
0.481151
0.526786
0.526779
0.526786
0.526779
0.520712
0.518312
0.518802
0.518801
0.534196
0.505566
0.467552
0.467561
0.467556
0.511691
0.511901
0.511889
0.498904
0.498907
0.516993
0.519275
0.519275
0.515287
0.519582
0.519603
0.519589
0.519603
0.533427
0.533424
0.558603
0.54202
0.481795
0.486562
0.535217
0.467287
0.467238
0.518006
0.505709
0.479507
0.516689
0.520277
0.502418
0.518664
0.518666
0.510974
0.517156
0.471769
0.469312
0.469309
0.531626
0.481137
0.461316
0.461318
0.486994
0.541887
0.540835
0.53482
0.508322
0.488807
0.488815
0.488862
0.491597
0.462902
0.462805
0.462901
0.462806
0.462901
0.469731
0.553482
0.553486
0.55349
0.553494
0.54658
0.496116
0.480139
0.533736
0.553292
0.553295
0.553805
0.553876
0.553804
0.553874
0.481527
0.462488
0.465383
0.507451
0.502413
0.505065
0.497778
0.497757
0.504674
0.488323
0.459417
0.47505
0.504046
0.496152
0.470204
0.470225
0.470209
0.470223
0.491579
0.49158
0.49158
0.501225
0.527605
0.498649
0.498613
0.523686
0.528954
0.528958
0.484674
0.47128
0.505658
0.550934
0.550963
0.550945
0.551001
0.550954
0.551019
0.550963
0.551049
0.550971
0.546451
0.520658
0.520675
0.493251
0.461626
0.481054
0.46186
0.461864
0.494329
0.550444
0.550448
0.550456
0.550456
0.550461
0.550504
0.526632
0.481794
0.449799
0.449684
0.449795
0.451432
0.464888
0.452479
0.448794
0.453148
0.493529
0.488929
0.480647
0.513587
0.506778
0.466823
0.504785
0.518079
0.518068
0.522441
0.518136
0.51814
0.501258
0.466334
0.466328
0.466328
0.523966
0.552187
0.552165
0.552199
0.552173
0.536767
0.557535
0.469361
0.466718
0.466806
0.46672
0.466806
0.46672
0.466806
0.48692
0.540288
0.540287
0.540295
0.540293
0.541222
0.541224
0.541231
0.540114
0.550506
0.55065
0.550506
0.55066
0.550502
0.55065
0.54628
0.443269
0.443317
0.495504
0.572171
0.552281
0.457185
0.457063
0.457062
0.496909
0.517217
0.460978
0.460975
0.460916
0.460972
0.460934
0.513445
0.537333
0.537316
0.537337
0.537317
0.537404
0.537321
0.537474
0.475521
0.459272
0.459279
0.459278
0.459279
0.487668
0.526663
0.533168
0.491992
0.471925
0.490066
0.474645
0.518452
0.593838
0.608633
0.602309
0.553015
0.487587
0.495507
0.527046
0.514109
0.474992
0.474881
0.474984
0.474781
0.474984
0.53764
0.540132
0.540134
0.540132
0.523009
0.515338
0.540213
0.489942
0.464525
0.464562
0.466594
0.532382
0.532632
0.532759
0.532632
0.51559
0.470455
0.592225
0.59523
0.577159
0.630004
0.628087
0.521801
0.454858
0.454714
0.454858
0.454738
0.454858
0.454849
0.493097
0.478942
0.478891
0.520727
0.520814
0.513161
0.505477
0.525598
0.526505
0.526498
0.526493
0.477847
0.504004
0.524225
0.524226
0.524227
0.524227
0.386659
0.272031
0.272182
0.272097
0.272182
0.489879
0.497409
0.517988
0.522574
0.519293
0.526869
0.526869
0.510149
0.478369
0.470519
0.470519
0.474859
0.47516
0.504402
0.524296
0.460394
0.449818
0.438289
0.473145
0.484133
0.500563
0.500563
0.484547
0.50149
0.497298
0.497298
0.53747
0.508929
0.424793
0.43624
0.511349
0.519028
0.526704
0.529992
0.529995
0.529999
0.495953
0.495956
0.521302
0.521304
0.521312
0.521315
0.480299
0.481417
0.460671
0.44888
0.448886
0.448881
0.462411
0.501772
0.501768
0.496108
0.467091
0.474407
0.448867
0.448865
0.454872
0.473971
0.497103
0.498361
0.498359
0.498371
0.422428
0.449096
0.48829
0.509136
0.517625
0.573043
0.57306
0.475005
0.475014
0.48261
0.513782
0.513775
0.499707
0.438629
0.438604
0.438629
0.438602
0.489765
0.532577
0.53261
0.488896
0.514147
0.51704
0.517008
0.517048
0.517008
0.47291
0.453244
0.453243
0.489059
0.489078
0.479028
0.501213
0.491207
0.387
0.458878
0.500624
0.500624
0.472646
0.552628
0.552615
0.552546
0.562928
0.520552
0.481247
0.48271
0.51422
0.50344
0.512997
0.526796
0.478244
0.46485
0.523762
0.530259
0.530274
0.492537
0.467561
0.467552
0.474355
0.456558
0.44543
0.44545
0.498908
0.498908
0.482236
0.482234
0.501242
0.506431
0.48634
0.500345
0.498474
0.579881
0.590113
0.5901
0.570873
0.464914
0.464962
0.464889
0.464961
0.464912
0.529243
0.529226
0.529298
0.529227
0.529298
0.520955
0.521422
0.503563
0.464793
0.464796
0.464793
0.497284
0.539954
0.54191
0.541886
0.541924
0.541887
0.541934
0.541887
0.541933
0.536859
0.475669
0.437862
0.50187
0.568692
0.594959
0.59494
0.594966
0.527599
0.462901
0.516057
0.516063
0.487425
0.48744
0.48744
0.487448
0.529025
0.537044
0.445552
0.445562
0.508431
0.553822
0.553805
0.553874
0.553806
0.549867
0.438796
0.438858
0.462471
0.507451
0.507446
0.459075
0.459053
0.459058
0.506215
0.506212
0.491926
0.459785
0.431393
0.539395
0.563336
0.5633
0.563335
0.47427
0.470188
0.470222
0.47021
0.470222
0.527056
0.527632
0.527606
0.527632
0.527606
0.526646
0.515584
0.514147
0.504189
0.548392
0.550915
0.544496
0.504236
0.475203
0.475217
0.489815
0.498654
0.522897
0.537248
0.538549
0.525957
0.449408
0.427271
0.514059
0.600393
0.600426
0.600401
0.533995
0.45734
0.457344
0.45734
0.482265
0.550496
0.550513
0.550496
0.550522
0.548257
0.449799
0.449717
0.460512
0.464859
0.448794
0.448795
0.507799
0.513606
0.513574
0.513638
0.513585
0.51364
0.513589
0.517548
0.526851
0.526849
0.52419
0.465681
0.462307
0.532689
0.585031
0.585083
0.57039
0.487652
0.487649
0.487652
0.498175
0.552198
0.571062
0.563726
0.545889
0.499735
0.466746
0.466806
0.479664
0.486938
0.486936
0.468892
0.468895
0.498589
0.54029
0.540295
0.522986
0.523008
0.550492
0.550496
0.550554
0.506121
0.47922
0.479197
0.525921
0.493956
0.434057
0.442395
0.580594
0.600683
0.600779
0.600683
0.600739
0.561036
0.459233
0.458214
0.458214
0.458214
0.510764
0.518277
0.460933
0.460972
0.460937
0.460974
0.471264
0.537216
0.537332
0.509163
0.492225
0.497765
0.477661
0.475763
0.510744
0.514913
0.523101
0.523096
0.490624
0.518915
0.557213
0.577951
0.608645
0.608633
0.608769
0.608645
0.608863
0.588374
0.48517
0.472217
0.472237
0.527065
0.546366
0.54634
0.532271
0.477012
0.474984
0.474942
0.474987
0.476126
0.48189
0.540157
0.540215
0.540213
0.540215
0.533278
0.535077
0.535069
0.521156
0.454263
0.461403
0.458346
0.507186
0.473513
0.405948
0.541039
0.639725
0.639692
0.639799
0.639693
0.589006
0.492891
0.454858
0.454749
0.454858
0.454774
0.48178
0.520724
0.501446
0.47894
0.478933
0.520767
0.520905
0.520767
0.520818
0.526513
0.461212
0.457495
0.457578
0.457545
0.457578
0.505589
0.524227
0.524227
0.491729
0.4373
0.310402
0.272197
0.272182
0.502304
0.576762
0.537695
0.510882
0.510779
0.497599
0.485803
0.487182
0.459663
0.459663
0.476658
0.474859
0.503611
0.453717
0.453723
0.497349
0.497352
0.497359
0.497362
0.483992
0.476595
0.476597
0.4832
0.485066
0.485063
0.50422
0.537464
0.476498
0.416227
0.41622
0.416211
0.416218
0.492905
0.416224
0.514225
0.551515
0.551502
0.551528
0.514326
0.514358
0.519361
0.507841
0.471428
0.471432
0.51371
0.513947
0.488785
0.488787
0.471533
0.471532
0.497852
0.467089
0.467092
0.468871
0.512128
0.512129
0.484911
0.484885
0.484013
0.484013
0.498224
0.457199
0.422407
0.422417
0.422408
0.422423
0.422429
0.563356
0.574431
0.574462
0.57442
0.57445
0.565086
0.492273
0.501615
0.447659
0.438629
0.443919
0.438629
0.438613
0.43863
0.535209
0.535205
0.535207
0.516362
0.501143
0.501123
0.513785
0.509479
0.497102
0.460917
0.476918
0.511286
0.511275
0.507947
0.470905
0.380041
0.38005
0.380047
0.398161
0.380059
0.498062
0.591244
0.591222
0.591283
0.591206
0.591268
0.507593
0.50464
0.482201
0.466524
0.496767
0.464156
0.464203
0.464147
0.464203
0.530259
0.519748
0.467556
0.494928
0.488065
0.457444
0.482694
0.493345
0.475403
0.475403
0.475403
0.505517
0.505513
0.502566
0.406624
0.391068
0.391036
0.391057
0.569448
0.590146
0.590104
0.590124
0.590088
0.510184
0.46493
0.464961
0.464923
0.464965
0.505424
0.50396
0.503929
0.521422
0.521422
0.518633
0.506195
0.509743
0.509426
0.463795
0.463843
0.463774
0.463843
0.463814
0.513313
0.541895
0.5217
0.374266
0.372275
0.372321
0.372283
0.374713
0.372301
0.563656
0.594966
0.594948
0.594955
0.521322
0.516033
0.516068
0.519648
0.519649
0.51965
0.509091
0.509089
0.522575
0.489954
0.445542
0.445551
0.445542
0.498277
0.553804
0.553875
0.439041
0.438837
0.438826
0.438858
0.458921
0.459041
0.459045
0.459049
0.500319
0.506212
0.506215
0.459409
0.386214
0.386211
0.506382
0.5633
0.563346
0.5633
0.515569
0.474631
0.51229
0.527542
0.527543
0.527542
0.501194
0.480453
0.48044
0.48045
0.526439
0.535855
0.535863
0.53587
0.535877
0.494882
0.49432
0.494318
0.475214
0.475197
0.497726
0.532738
0.53723
0.537232
0.52919
0.525534
0.388192
0.37839
0.378391
0.550378
0.600401
0.60043
0.600402
0.600468
0.600397
0.597538
0.486064
0.482437
0.482436
0.465562
0.449719
0.449803
0.44972
0.449799
0.481794
0.484824
0.488812
0.511422
0.507774
0.513569
0.513595
0.509713
0.487643
0.449031
0.449032
0.449031
0.473058
0.49332
0.387839
0.379701
0.379712
0.379727
0.545475
0.585051
0.585112
0.58505
0.56145
0.585052
0.585109
0.585052
0.580074
0.516484
0.466821
0.466798
0.46682
0.49045
0.494736
0.479267
0.479271
0.48234
0.482337
0.476217
0.465981
0.465982
0.486123
0.535872
0.550473
0.550542
0.550496
0.541123
0.483551
0.372961
0.372952
0.372961
0.37297
0.372973
0.558737
0.600778
0.600683
0.595249
0.533929
0.533937
0.542053
0.542035
0.539114
0.537988
0.537976
0.537969
0.537958
0.534127
0.53412
0.526738
0.467384
0.467464
0.467332
0.467464
0.467332
0.467464
0.467413
0.493225
0.523101
0.5231
0.523101
0.453288
0.371302
0.371282
0.371275
0.371286
0.371297
0.523776
0.608645
0.608813
0.608645
0.608728
0.608631
0.608647
0.485813
0.462537
0.462498
0.462537
0.502627
0.514084
0.514088
0.508649
0.514104
0.514247
0.514251
0.514256
0.512651
0.512676
0.540213
0.540199
0.532417
0.52176
0.496415
0.454239
0.450562
0.430139
0.331761
0.318809
0.318858
0.318839
0.576379
0.639774
0.639711
0.639803
0.639696
0.47509
0.454771
0.454858
0.531808
0.5252
0.483878
0.520787
0.520748
0.520832
0.52075
0.520919
0.520767
0.514077
0.542824
0.542883
0.542824
0.542883
0.518264
0.459173
0.457545
0.457583
0.457552
0.472843
0.510122
0.472995
0.312051
0.272198
0.272198
0.464992
0.57193
0.503539
0.468642
0.472731
0.505424
0.48426
0.48426
0.51488
0.520164
0.520162
0.502603
0.518266
0.51826
0.518268
0.482472
0.482485
0.493105
0.497365
0.496322
0.525467
0.455194
0.434729
0.434729
0.49668
0.471353
0.471354
0.474146
0.48778
0.482365
0.416206
0.41621
0.416219
0.416219
0.548249
0.551507
0.551533
0.551502
0.551538
0.551496
0.551517
0.550763
0.492113
0.513947
0.513947
0.513947
0.474915
0.474917
0.496222
0.479055
0.459812
0.459813
0.489335
0.489338
0.48934
0.512132
0.512132
0.501576
0.499397
0.499398
0.478743
0.481417
0.447473
0.422408
0.422423
0.42242
0.422426
0.49121
0.574462
0.574425
0.574457
0.557997
0.479003
0.47897
0.501614
0.501625
0.501614
0.485243
0.446995
0.482312
0.493786
0.493768
0.4938
0.514812
0.530308
0.530311
0.530314
0.530317
0.455445
0.445749
0.44575
0.511298
0.511279
0.45532
0.432068
0.380041
0.38005
0.380035
0.38005
0.380047
0.380059
0.58329
0.591228
0.591283
0.589488
0.525868
0.501606
0.515787
0.515786
0.515787
0.461068
0.461083
0.488567
0.52869
0.486355
0.464178
0.464208
0.50938
0.552618
0.55262
0.552625
0.552628
0.513428
0.503791
0.475561
0.489729
0.498799
0.498808
0.479469
0.395062
0.391064
0.391015
0.391048
0.391036
0.590103
0.59012
0.590184
0.590104
0.590127
0.566675
0.495986
0.494909
0.521554
0.467029
0.467069
0.507248
0.514206
0.514215
0.475048
0.475062
0.496673
0.509765
0.50975
0.509786
0.50975
0.49867
0.514235
0.541899
0.541895
0.541966
0.541895
0.446538
0.372321
0.372262
0.372318
0.372285
0.372301
0.496173
0.594955
0.594973
0.589259
0.574758
0.574751
0.498038
0.494902
0.494903
0.538262
0.526591
0.526593
0.526591
0.497748
0.445563
0.459408
0.500206
0.492147
0.438803
0.438692
0.438818
0.438776
0.497709
0.493478
0.459201
0.460049
0.459057
0.459053
0.468163
0.459981
0.386181
0.386211
0.386208
0.386211
0.49497
0.563328
0.563302
0.531799
0.515538
0.52119
0.488171
0.488177
0.503377
0.527543
0.506437
0.483666
0.480765
0.480439
0.489354
0.462804
0.448325
0.448327
0.448325
0.454236
0.500963
0.529371
0.529375
0.529379
0.523657
0.53016
0.537219
0.53723
0.455574
0.378371
0.378387
0.378389
0.37839
0.478343
0.596387
0.600405
0.600449
0.558922
0.487871
0.487828
0.506394
0.512871
0.512868
0.483713
0.461925
0.462806
0.462843
0.44983
0.472489
0.53201
0.53365
0.533657
0.483864
0.478658
0.478638
0.478658
0.478649
0.480232
0.535217
0.535177
0.513405
0.441126
0.379665
0.379687
0.379701
0.379712
0.505632
0.585072
0.585051
0.585114
0.585052
0.585107
0.585052
0.532902
0.475494
0.475483
0.475472
0.531535
0.554843
0.55484
0.55486
0.55484
0.491307
0.458351
0.458352
0.495558
0.52773
0.527733
0.46113
0.461135
0.469074
0.427243
0.411149
0.411108
0.404231
0.372953
0.372961
0.372957
0.372968
0.372991
0.53971
0.600683
0.600779
0.600683
0.600749
0.53437
0.54752
0.506486
0.459317
0.459163
0.459318
0.459213
0.45932
0.45928
0.493977
0.539678
0.539685
0.539687
0.499645
0.467438
0.467464
0.479423
0.50499
0.504984
0.489798
0.489786
0.498542
0.498546
0.46634
0.371234
0.371264
0.371275
0.371286
0.530556
0.608704
0.608645
0.608728
0.607894
0.607436
0.484204
0.484284
0.508135
0.508138
0.50814
0.508142
0.510323
0.514094
0.514096
0.514099
0.514004
0.514247
0.494677
0.487345
0.487341
0.486367
0.48507
0.484957
0.484957
0.494313
0.534324
0.502945
0.346349
0.31876
0.318855
0.318809
0.318839
0.531816
0.639711
0.639844
0.639715
0.639906
0.639696
0.639921
0.639691
0.532231
0.478178
0.478195
0.517974
0.515149
0.477948
0.477943
0.477948
0.496621
0.496612
0.496613
0.542824
0.542881
0.542822
0.542868
0.54281
0.542852
0.542799
0.498453
0.510122
0.510114
0.474465
0.272229
0.272214
0.272198
0.518879
0.478349
0.467817
0.467821
0.51007
0.505426
0.48426
0.51654
0.520164
0.520163
0.508516
0.505993
0.45959
0.459593
0.485916
0.486004
0.505528
0.506601
0.516789
0.525467
0.525468
0.465518
0.491428
0.516011
0.516014
0.516016
0.483887
0.487781
0.48778
0.489184
0.416203
0.416217
0.416214
0.416223
0.551522
0.551528
0.551506
0.533424
0.533379
0.551505
0.551491
0.551507
0.492115
0.497666
0.476358
0.476358
0.487002
0.49622
0.496215
0.496224
0.496215
0.468398
0.489333
0.489335
0.487658
0.512131
0.512132
0.47182
0.470298
0.470299
0.470948
0.48142
0.444641
0.422423
0.422418
0.535688
0.436769
0.574436
0.574435
0.574469
0.574428
0.574475
0.57442
0.533219
0.443188
0.443194
0.478676
0.449762
0.444854
0.444868
0.444861
0.444872
0.507157
0.523926
0.523959
0.503616
0.481665
0.478284
0.478283
0.478281
0.45763
0.511302
0.473673
0.432083
0.432072
0.445708
0.484758
0.44973
0.380045
0.461394
0.391301
0.591212
0.591272
0.591212
0.591262
0.566319
0.500213
0.50021
0.515787
0.501955
0.459568
0.528663
0.52869
0.528689
0.523592
0.464208
0.539656
0.552602
0.552604
0.521078
0.476651
0.476652
0.476651
0.503767
0.501357
0.494054
0.498817
0.498799
0.482542
0.46333
0.408868
0.391069
0.391046
0.391057
0.581544
0.590184
0.590112
0.590177
0.579083
0.495986
0.495994
0.521555
0.521546
0.521567
0.521546
0.467343
0.456314
0.456319
0.475049
0.516319
0.482024
0.481957
0.509711
0.498039
0.486322
0.486316
0.511187
0.541895
0.541943
0.541895
0.541966
0.507708
0.402284
0.45427
0.382205
0.372318
0.372301
0.546969
0.595014
0.594955
0.579963
0.562386
0.562393
0.562383
0.562371
0.555426
0.550739
0.543944
0.52219
0.46942
0.445579
0.445575
0.510939
0.500124
0.438802
0.438675
0.438803
0.47
0.475104
0.497704
0.522931
0.553687
0.557202
0.557225
0.550999
0.506302
0.431948
0.386195
0.386202
0.38621
0.386208
0.480204
0.563302
0.563349
0.563304
0.563388
0.536622
0.480178
0.503373
0.503372
0.487017
0.487034
0.503037
0.480439
0.480448
0.492879
0.527848
0.527916
0.515852
0.469925
0.490391
0.491276
0.491282
0.525875
0.529799
0.529795
0.526194
0.524465
0.524462
0.450964
0.378363
0.378389
0.37839
0.378391
0.531611
0.600405
0.600562
0.600405
0.600566
0.600402
0.58748
0.533051
0.461155
0.45471
0.454804
0.454714
0.454804
0.460678
0.482416
0.512029
0.514247
0.504847
0.504846
0.512639
0.54127
0.541278
0.541279
0.541285
0.541279
0.535226
0.488445
0.427794
0.390289
0.379654
0.379674
0.379687
0.379701
0.495169
0.585051
0.585112
0.585051
0.585103
0.585052
0.585144
0.585051
0.558899
0.481388
0.475567
0.475579
0.475587
0.486088
0.519649
0.504218
0.458346
0.458351
0.458351
0.458352
0.49951
0.527752
0.527757
0.52872
0.528718
0.52872
0.454467
0.451117
0.487063
0.488874
0.379142
0.37296
0.372991
0.372999
0.489045
0.600691
0.600683
0.600763
0.600683
0.596401
0.563349
0.459317
0.45919
0.459317
0.473644
0.504619
0.520341
0.52035
0.520355
0.520361
0.532132
0.548273
0.548298
0.548273
0.491615
0.479431
0.479455
0.503673
0.543923
0.543918
0.543926
0.492184
0.371238
0.371232
0.371244
0.371264
0.371275
0.535161
0.608632
0.608758
0.608272
0.607828
0.607826
0.607828
0.549374
0.495886
0.507018
0.484872
0.484887
0.48489
0.509604
0.514094
0.514095
0.496888
0.496883
0.505993
0.492922
0.530721
0.548995
0.54163
0.527853
0.554149
0.55415
0.55415
0.554151
0.475674
0.382782
0.318807
0.318858
0.318839
0.515142
0.639729
0.639728
0.63977
0.639707
0.639799
0.639696
0.527858
0.45792
0.51795
0.51795
0.51795
0.493153
0.477968
0.49013
0.526394
0.496612
0.496613
0.5428
0.542869
0.492156
0.476115
0.476317
0.476117
0.476316
0.476118
0.476316
0.476267
0.491127
0.370697
0.272288
0.272214
0.272214
0.481012
0.504663
0.48386
0.529553
0.529552
0.4852
0.485203
0.500881
0.495333
0.493825
0.497197
0.481424
0.504841
0.504842
0.504842
0.505126
0.505525
0.479884
0.479883
0.483768
0.525471
0.51863
0.522621
0.474481
0.474482
0.520586
0.520598
0.483019
0.490428
0.490422
0.440572
0.438291
0.509474
0.523414
0.551532
0.533244
0.50429
0.50428
0.544966
0.526604
0.551495
0.551486
0.551503
0.55148
0.551486
0.51815
0.516985
0.492857
0.473565
0.47356
0.47597
0.459753
0.459754
0.463946
0.48354
0.483538
0.512132
0.508731
0.50873
0.508728
0.481887
0.479359
0.47341
0.451043
0.487646
0.555878
0.574436
0.574428
0.574466
0.574428
0.574489
0.505786
0.473972
0.473968
0.519788
0.52882
0.528818
0.51441
0.518839
0.507019
0.48389
0.467629
0.461449
0.461469
0.471229
0.471229
0.522247
0.469805
0.466612
0.466615
0.508694
0.511307
0.511303
0.511311
0.511299
0.511325
0.484743
0.507628
0.507626
0.50465
0.413021
0.545315
0.540073
0.540076
0.576261
0.572472
0.504128
0.490415
0.453411
0.453413
0.453412
0.453413
0.470378
0.510809
0.53113
0.534428
0.534436
0.454963
0.454981
0.523974
0.53427
0.501864
0.487762
0.473112
0.473112
0.473112
0.498407
0.498818
0.498799
0.471867
0.408914
0.470171
0.590096
0.590105
0.590184
0.590121
0.5902
0.559199
0.514732
0.521212
0.510797
0.510772
0.516894
0.497148
0.456315
0.456314
0.456315
0.516332
0.516319
0.516336
0.482008
0.484158
0.513125
0.496105
0.486316
0.486322
0.514332
0.522874
0.538218
0.541924
0.494361
0.49253
0.498484
0.537457
0.537465
0.537482
0.548378
0.59504
0.594975
0.568291
0.568246
0.595026
0.517745
0.497193
0.497197
0.52152
0.550748
0.485123
0.46243
0.462436
0.519346
0.523481
0.523668
0.51137
0.438676
0.438785
0.440512
0.521324
0.519208
0.483267
0.483253
0.483266
0.554173
0.557202
0.557224
0.535053
0.490169
0.489138
0.48601
0.461386
0.466577
0.558718
0.563324
0.563304
0.563375
0.563306
0.523257
0.454568
0.454598
0.454581
0.454596
0.499199
0.527852
0.527846
0.527871
0.527848
0.527897
0.527848
0.527929
0.49328
0.490388
0.508636
0.527041
0.527036
0.503671
0.503677
0.526186
0.526168
0.526161
0.500492
0.439567
0.45583
0.464205
0.464214
0.548921
0.562213
0.53824
0.53702
0.537019
0.564127
0.570152
0.4825
0.461151
0.461738
0.473074
0.477818
0.467919
0.481466
0.48146
0.481462
0.487869
0.532065
0.541247
0.541248
0.541256
0.528965
0.523271
0.54721
0.525147
0.494024
0.471515
0.447177
0.465985
0.467454
0.467392
0.390418
0.38108
0.545353
0.585023
0.549683
0.520519
0.520485
0.536223
0.566737
0.552485
0.526445
0.519744
0.50965
0.515381
0.515381
0.515381
0.511065
0.4714
0.458368
0.482653
0.504792
0.504785
0.488676
0.470522
0.470548
0.528691
0.52872
0.452916
0.447726
0.447787
0.455713
0.517611
0.529285
0.529292
0.529285
0.469822
0.49217
0.527222
0.596434
0.600683
0.600751
0.600683
0.556974
0.526226
0.502746
0.478085
0.499334
0.50465
0.497595
0.497594
0.497595
0.529412
0.548272
0.548365
0.548273
0.548368
0.548272
0.547025
0.524554
0.524557
0.462706
0.435273
0.435271
0.435273
0.45679
0.533255
0.533259
0.533267
0.56533
0.60862
0.608745
0.608632
0.608743
0.60862
0.589472
0.482411
0.47891
0.478912
0.481972
0.48197
0.491258
0.51573
0.503919
0.481851
0.481882
0.528607
0.53085
0.509306
0.548999
0.548995
0.548999
0.506035
0.50495
0.504955
0.508988
0.55415
0.546321
0.489332
0.437385
0.440538
0.499388
0.620375
0.639806
0.639732
0.639783
0.639732
0.639878
0.639715
0.496755
0.456262
0.456267
0.474092
0.474087
0.474089
0.47409
0.530964
0.542791
0.542785
0.542797
0.542794
0.542964
0.542802
0.505173
0.476334
0.525003
0.525028
0.524967
0.5179
0.52498
0.525071
0.438979
0.272235
0.272268
0.272298
0.272214
0.461494
0.504663
0.468616
0.4774
0.532856
0.532856
0.48861
0.489787
0.490938
0.493824
0.490051
0.464956
0.493269
0.451692
0.451692
0.502153
0.493079
0.479883
0.517849
0.539187
0.539187
0.539212
0.539213
0.526397
0.496417
0.520595
0.520583
0.483025
0.484313
0.439278
0.438296
0.438293
0.456914
0.456912
0.551541
0.551566
0.551541
0.551561
0.551531
0.526623
0.466469
0.466482
0.493939
0.503187
0.473342
0.473347
0.473348
0.476174
0.518854
0.518873
0.493822
0.499653
0.503691
0.458143
0.458146
0.505898
0.505901
0.496376
0.505342
0.457102
0.452135
0.452133
0.400552
0.374249
0.374261
0.374267
0.374273
0.574424
0.574428
0.574468
0.57442
0.574453
0.542794
0.539654
0.539652
0.484031
0.481399
0.481399
0.535271
0.549512
0.477385
0.461979
0.461976
0.503557
0.517313
0.523436
0.538984
0.512839
0.48449
0.466613
0.466618
0.511282
0.511307
0.510251