/*--------------------------------*- C++ -*----------------------------------*\
  =========                 |
  \\      /  F ield         | OpenFOAM: The Open Source CFD Toolbox
   \\    /   O peration     | Website:  https://openfoam.org
    \\  /    A nd           | Version:  7
     \\/     M anipulation  |
\*---------------------------------------------------------------------------*/
FoamFile
{
    version     2.0;
    format      ascii;
    class       volScalarField;
    location    "1500";
    object      epss;
}
// * * * * * * * * * * * * * * * * * * * * * * * * * * * * * * * * * * * * * //

dimensions      [0 0 0 0 0 0 0];

internalField   nonuniform List<scalar> 
160000
(
0.550588
0.516605
0.540802
0.501623
0.47026
0.543483
0.478449
0.553263
0.522782
0.451044
0.481142
0.520867
0.457909
0.465399
0.57171
0.530976
0.563554
0.558103
0.483245
0.490934
0.506342
0.524253
0.501923
0.463708
0.486631
0.454654
0.452246
0.500382
0.480157
0.538186
0.5406
0.492999
0.413438
0.486041
0.503145
0.476427
0.465332
0.424538
0.55383
0.503369
0.503091
0.504384
0.473618
0.534403
0.470436
0.474196
0.491077
0.547756
0.483404
0.537639
0.49851
0.41808
0.462854
0.494768
0.429142
0.538674
0.433581
0.558224
0.57399
0.533788
0.383736
0.512968
0.516871
0.541137
0.57073
0.435217
0.479738
0.455659
0.589221
0.654908
0.438568
0.556789
0.454187
0.529393
0.476242
0.501181
0.467113
0.512467
0.441069
0.497929
0.433997
0.40572
0.475955
0.503031
0.506617
0.519532
0.518747
0.563241
0.520761
0.470128
0.567227
0.441797
0.42401
0.442887
0.48145
0.556936
0.495518
0.526565
0.520131
0.565023
0.502666
0.596953
0.459711
0.523831
0.573495
0.484929
0.581152
0.489796
0.469021
0.472415
0.439095
0.558445
0.43551
0.515871
0.532402
0.496771
0.55061
0.512333
0.444194
0.480726
0.503979
0.543122
0.478129
0.460999
0.440946
0.386843
0.423555
0.521391
0.485154
0.48264
0.519903
0.543774
0.484669
0.405794
0.468513
0.485902
0.539341
0.505008
0.550292
0.591282
0.48375
0.453363
0.616899
0.486136
0.41441
0.48771
0.477781
0.4859
0.501801
0.551657
0.577972
0.52167
0.571964
0.4781
0.588333
0.497167
0.497235
0.429946
0.479091
0.464156
0.52943
0.506502
0.539617
0.452193
0.583233
0.478342
0.483342
0.543821
0.508909
0.54868
0.434537
0.40269
0.510829
0.401792
0.469931
0.540842
0.504018
0.496055
0.413739
0.429301
0.581843
0.45239
0.54677
0.578476
0.568603
0.556387
0.536578
0.547246
0.581398
0.514712
0.494851
0.534085
0.494619
0.464852
0.413336
0.612718
0.507282
0.405654
0.38726
0.379523
0.398036
0.459411
0.490062
0.508653
0.485427
0.437414
0.482749
0.477451
0.455519
0.464856
0.454622
0.460565
0.514792
0.506765
0.467386
0.503728
0.546626
0.47209
0.418021
0.457576
0.437635
0.483453
0.578003
0.554583
0.544221
0.532617
0.485733
0.586619
0.487024
0.532718
0.639026
0.521078
0.562781
0.504587
0.512337
0.48124
0.5618
0.497844
0.570834
0.505556
0.541253
0.562545
0.521775
0.558085
0.50643
0.520417
0.490667
0.496989
0.400244
0.46199
0.438028
0.468369
0.543334
0.570796
0.558775
0.480206
0.529497
0.579196
0.502273
0.376133
0.385975
0.508153
0.531981
0.580527
0.521337
0.466572
0.472519
0.544106
0.486443
0.407768
0.549953
0.544509
0.511152
0.532809
0.544559
0.548899
0.484287
0.417409
0.529153
0.512656
0.544959
0.521485
0.508539
0.496972
0.507591
0.529833
0.459878
0.544132
0.486227
0.477388
0.486646
0.617191
0.529225
0.509096
0.479345
0.465554
0.465305
0.604982
0.487104
0.553131
0.482904
0.442651
0.378431
0.390173
0.423642
0.486703
0.491442
0.503967
0.543576
0.49124
0.488907
0.537851
0.50632
0.450343
0.50633
0.469954
0.468337
0.548504
0.54058
0.510486
0.56015
0.529978
0.533307
0.454923
0.486991
0.481714
0.456028
0.469738
0.505223
0.507078
0.545787
0.500128
0.532014
0.513643
0.514654
0.516671
0.498795
0.465437
0.380843
0.504582
0.59541
0.534801
0.51774
0.556508
0.43433
0.560564
0.533203
0.478332
0.485859
0.468273
0.489214
0.536744
0.467047
0.534045
0.509594
0.516283
0.478697
0.503496
0.513084
0.551183
0.535198
0.527664
0.489102
0.532988
0.464759
0.473181
0.518809
0.368173
0.442431
0.521074
0.543955
0.497444
0.495273
0.380199
0.542813
0.425874
0.529717
0.52462
0.562002
0.543308
0.534349
0.537972
0.540247
0.493082
0.473368
0.465618
0.449507
0.460154
0.499863
0.521857
0.494493
0.523544
0.480273
0.510009
0.560952
0.435966
0.484681
0.600088
0.405256
0.458867
0.42259
0.570422
0.513177
0.548993
0.563439
0.534377
0.483284
0.514861
0.508921
0.494745
0.47988
0.529997
0.511551
0.493238
0.449961
0.544641
0.539381
0.415792
0.428892
0.473591
0.529628
0.510761
0.466399
0.469744
0.566139
0.511275
0.404792
0.425758
0.498627
0.452913
0.483416
0.526085
0.499217
0.526734
0.560209
0.465976
0.426007
0.647124
0.475334
0.423035
0.497132
0.541197
0.47381
0.561815
0.472061
0.424879
0.498954
0.562243
0.491468
0.439913
0.522923
0.488739
0.523069
0.396988
0.58699
0.491389
0.468487
0.544843
0.518885
0.513403
0.506668
0.481907
0.541779
0.550304
0.494325
0.511784
0.56506
0.446504
0.455877
0.412526
0.428136
0.475227
0.567252
0.509957
0.520463
0.472676
0.521706
0.517126
0.527146
0.448386
0.469309
0.498544
0.492227
0.493893
0.403984
0.408303
0.541335
0.5182
0.504142
0.465369
0.439331
0.479213
0.406288
0.449595
0.538242
0.475794
0.504202
0.479371
0.490838
0.55058
0.471249
0.504061
0.565593
0.409446
0.482655
0.542788
0.460497
0.434313
0.480664
0.46637
0.485676
0.566041
0.531347
0.541826
0.516016
0.504188
0.503842
0.4806
0.469874
0.41331
0.423641
0.501014
0.499006
0.49924
0.50971
0.490763
0.497968
0.53671
0.485725
0.524465
0.531874
0.614239
0.411558
0.39796
0.457945
0.563096
0.393523
0.528251
0.571334
0.532787
0.486446
0.457885
0.477044
0.455606
0.452903
0.547366
0.483438
0.518131
0.529794
0.575
0.424161
0.573344
0.556182
0.510609
0.507364
0.456381
0.52378
0.463874
0.545538
0.473382
0.4928
0.46288
0.499966
0.518742
0.534774
0.482939
0.435246
0.515504
0.484765
0.500233
0.496892
0.507406
0.580901
0.413408
0.502931
0.484203
0.479083
0.517525
0.486197
0.518599
0.532244
0.497632
0.554117
0.613829
0.493097
0.518788
0.51166
0.578527
0.516699
0.421433
0.411918
0.453015
0.490833
0.410907
0.496497
0.444153
0.381734
0.368056
0.390901
0.430168
0.447718
0.490655
0.507026
0.469916
0.391258
0.389317
0.467447
0.498471
0.505627
0.475281
0.504211
0.545416
0.51139
0.487712
0.530457
0.524531
0.5021
0.484542
0.486957
0.550174
0.567544
0.621232
0.5547
0.547745
0.490617
0.48648
0.452754
0.543491
0.468216
0.510461
0.501502
0.508563
0.405551
0.42138
0.558033
0.529513
0.505279
0.49248
0.562986
0.526985
0.571637
0.569809
0.470436
0.474775
0.584031
0.447219
0.422399
0.39233
0.388979
0.412449
0.455579
0.463451
0.436059
0.519836
0.520905
0.468924
0.546737
0.486107
0.428135
0.419483
0.552053
0.551723
0.528901
0.526762
0.463698
0.459397
0.596903
0.507674
0.39152
0.433421
0.538769
0.481137
0.490409
0.575076
0.539947
0.516262
0.433731
0.454099
0.534552
0.537391
0.504339
0.499552
0.472239
0.435483
0.45878
0.502985
0.535015
0.558274
0.545129
0.522286
0.584914
0.518176
0.47483
0.467719
0.608597
0.499045
0.464917
0.505297
0.49287
0.384237
0.408172
0.408956
0.453191
0.501617
0.52387
0.548551
0.542009
0.511272
0.552401
0.511986
0.522934
0.52423
0.476758
0.454691
0.454817
0.511846
0.591551
0.571332
0.519656
0.521848
0.52304
0.537212
0.467595
0.377844
0.423896
0.480351
0.445453
0.403932
0.497693
0.527194
0.476644
0.50598
0.547874
0.480355
0.491686
0.535326
0.500384
0.465744
0.508597
0.530789
0.517802
0.47265
0.520919
0.505744
0.499971
0.479275
0.520511
0.511084
0.519072
0.502316
0.561669
0.528884
0.527742
0.466313
0.535824
0.546063
0.525907
0.524892
0.541891
0.533268
0.529845
0.49812
0.514095
0.50886
0.431598
0.476769
0.444168
0.433087
0.530109
0.543879
0.539473
0.583551
0.532169
0.558139
0.494467
0.565219
0.502955
0.473687
0.542893
0.506511
0.450536
0.611997
0.417545
0.522792
0.589659
0.465756
0.521601
0.545772
0.507016
0.45572
0.541477
0.489736
0.456222
0.523863
0.547714
0.439459
0.588651
0.503055
0.572086
0.470422
0.592491
0.609973
0.48084
0.578896
0.45228
0.58775
0.512959
0.459578
0.554398
0.461208
0.410724
0.472198
0.522427
0.453119
0.399888
0.479049
0.405208
0.450394
0.528118
0.459424
0.509227
0.492922
0.537213
0.565553
0.555041
0.520348
0.502224
0.49588
0.402124
0.494886
0.516335
0.478746
0.483729
0.471195
0.569131
0.525748
0.497771
0.534348
0.53752
0.520541
0.494804
0.497908
0.497022
0.514892
0.401289
0.537373
0.56003
0.55426
0.481127
0.409415
0.499517
0.550352
0.542296
0.512505
0.483906
0.479361
0.414805
0.447079
0.398907
0.531456
0.527796
0.514828
0.453138
0.561048
0.543885
0.455111
0.556018
0.561194
0.608556
0.509342
0.599564
0.468428
0.491664
0.594694
0.552085
0.49832
0.498048
0.466634
0.416712
0.496568
0.462092
0.451817
0.450761
0.546066
0.476628
0.528069
0.460875
0.458799
0.537051
0.563823
0.468627
0.53377
0.583577
0.509235
0.589785
0.604098
0.533113
0.516208
0.505756
0.537388
0.545028
0.469032
0.533829
0.492658
0.451487
0.496694
0.500711
0.553239
0.503837
0.455994
0.518538
0.499475
0.528224
0.571783
0.494516
0.527513
0.508162
0.487054
0.500157
0.514825
0.552098
0.545242
0.518667
0.53437
0.549552
0.541303
0.563703
0.51662
0.509759
0.558648
0.52257
0.446356
0.443846
0.502338
0.495971
0.518562
0.496654
0.481981
0.526764
0.525299
0.466095
0.378898
0.483161
0.483319
0.441276
0.508993
0.510199
0.501407
0.510845
0.541277
0.478114
0.533071
0.511202
0.41456
0.426439
0.557396
0.487654
0.508901
0.52907
0.533191
0.572749
0.49111
0.503803
0.502736
0.509053
0.50632
0.50587
0.52465
0.478514
0.438935
0.462373
0.461813
0.489965
0.54669
0.61401
0.5194
0.454141
0.465803
0.534947
0.521691
0.550424
0.587518
0.558237
0.512085
0.540188
0.520307
0.513845
0.465145
0.409181
0.3615
0.434969
0.496222
0.466816
0.448551
0.462431
0.419088
0.440559
0.464772
0.455163
0.494732
0.511285
0.489477
0.474317
0.466478
0.506433
0.507062
0.556831
0.523079
0.489356
0.535705
0.567874
0.525561
0.499783
0.548733
0.547855
0.519258
0.497883
0.518962
0.555896
0.561944
0.527916
0.511225
0.519028
0.490411
0.497565
0.483944
0.530533
0.504639
0.44418
0.520985
0.552328
0.501356
0.465215
0.562391
0.494418
0.476942
0.560287
0.570586
0.543403
0.470803
0.455229
0.494013
0.458608
0.513948
0.459763
0.469035
0.377208
0.383996
0.481287
0.508017
0.500079
0.495417
0.505632
0.54508
0.532131
0.520381
0.546089
0.508493
0.48925
0.536194
0.542352
0.496307
0.524649
0.502144
0.49674
0.503731
0.48955
0.452448
0.501959
0.566521
0.561042
0.491998
0.487088
0.4992
0.463229
0.492492
0.43596
0.453674
0.529121
0.47243
0.493521
0.450191
0.489986
0.521106
0.572431
0.516077
0.517078
0.522477
0.510064
0.509057
0.479216
0.512023
0.538035
0.513561
0.444507
0.368859
0.417625
0.499816
0.391642
0.395154
0.450974
0.519042
0.541819
0.510337
0.471657
0.473241
0.492917
0.547096
0.541421
0.491787
0.511816
0.519497
0.503185
0.498947
0.559745
0.575823
0.513919
0.492477
0.509531
0.515893
0.49086
0.447882
0.421025
0.446076
0.525621
0.518012
0.514252
0.532466
0.538502
0.531628
0.489501
0.48759
0.576878
0.528692
0.556978
0.564239
0.506207
0.489583
0.503655
0.49452
0.518688
0.537687
0.464738
0.465669
0.521727
0.487025
0.458598
0.512905
0.59745
0.576515
0.4946
0.510744
0.442281
0.47834
0.552993
0.519788
0.480763
0.479288
0.55623
0.610319
0.54329
0.496236
0.451872
0.46822
0.481985
0.591522
0.512977
0.494441
0.542466
0.494207
0.463094
0.459385
0.482812
0.476286
0.482818
0.507262
0.524058
0.557826
0.538861
0.487986
0.566117
0.524561
0.49348
0.475124
0.535615
0.561777
0.480127
0.482479
0.475288
0.511625
0.558111
0.465603
0.472738
0.505847
0.472235
0.506264
0.577188
0.491526
0.502023
0.541425
0.439266
0.447687
0.436903
0.426793
0.420607
0.427199
0.46856
0.423329
0.474144
0.440624
0.525531
0.512057
0.503409
0.53151
0.413327
0.47442
0.44289
0.461921
0.485154
0.476645
0.547204
0.409138
0.549524
0.488042
0.408593
0.557651
0.524327
0.472226
0.533439
0.638001
0.562628
0.535024
0.489509
0.466732
0.447483
0.478885
0.457038
0.604384
0.515633
0.414903
0.415168
0.471983
0.491715
0.485548
0.458649
0.499578
0.490465
0.531563
0.504044
0.538803
0.428502
0.464892
0.597646
0.470423
0.505797
0.538191
0.551641
0.506305
0.525335
0.457563
0.503453
0.430318
0.519276
0.53908
0.518008
0.498254
0.501321
0.516194
0.474336
0.462447
0.592107
0.567309
0.535531
0.466513
0.414557
0.457266
0.554333
0.462524
0.514791
0.614751
0.434395
0.480469
0.503435
0.528703
0.42843
0.434776
0.446426
0.422783
0.513574
0.414886
0.554134
0.457141
0.509452
0.512132
0.549845
0.453717
0.569519
0.552958
0.501976
0.422683
0.517784
0.484608
0.454934
0.492872
0.449434
0.440604
0.479659
0.503882
0.493361
0.483188
0.541762
0.456008
0.506862
0.548314
0.527112
0.484321
0.484124
0.449667
0.459969
0.530791
0.526735
0.533054
0.489388
0.594973
0.480106
0.473917
0.464291
0.524872
0.539242
0.504977
0.528164
0.472221
0.516392
0.489728
0.478289
0.547235
0.483865
0.501389
0.527162
0.519769
0.468614
0.596861
0.513041
0.462549
0.467445
0.438367
0.495572
0.529043
0.560338
0.4479
0.527991
0.507445
0.556672
0.553013
0.513229
0.518002
0.448517
0.463535
0.53719
0.488366
0.491603
0.4849
0.476792
0.490178
0.547208
0.517319
0.484319
0.441414
0.405827
0.3883
0.443879
0.524644
0.499494
0.457324
0.496546
0.489196
0.486666
0.54791
0.557776
0.510235
0.512055
0.609558
0.602784
0.513945
0.495332
0.491718
0.485215
0.417497
0.407097
0.466733
0.502143
0.457797
0.422671
0.46303
0.481775
0.510264
0.494842
0.458826
0.488026
0.498597
0.542564
0.545548
0.498465
0.467905
0.505115
0.503215
0.53533
0.504727
0.508648
0.568334
0.546654
0.467462
0.473213
0.515483
0.514628
0.519506
0.546853
0.535596
0.551631
0.519082
0.478928
0.478647
0.47789
0.47622
0.500533
0.500458
0.533493
0.537824
0.533133
0.539158
0.516805
0.546364
0.612908
0.559414
0.545029
0.539047
0.507344
0.493938
0.549034
0.552278
0.567403
0.591924
0.500704
0.486213
0.464582
0.418366
0.390246
0.442411
0.508328
0.516482
0.523888
0.473943
0.575635
0.552174
0.501241
0.523758
0.491523
0.472591
0.490391
0.529225
0.533928
0.498776
0.478023
0.476592
0.507584
0.51021
0.524187
0.464987
0.476717
0.453809
0.407347
0.467856
0.567006
0.59649
0.549235
0.500365
0.468043
0.482526
0.48201
0.51052
0.524922
0.528712
0.517887
0.493635
0.487476
0.549452
0.553842
0.535056
0.461262
0.464873
0.536985
0.507974
0.475745
0.426654
0.403172
0.451368
0.492859
0.442086
0.425519
0.499732
0.541268
0.553277
0.497212
0.455684
0.501055
0.508032
0.479684
0.516173
0.510336
0.491065
0.535798
0.523573
0.483036
0.499338
0.519117
0.516642
0.548698
0.593279
0.512366
0.498083
0.496149
0.501932
0.510344
0.532248
0.564187
0.533767
0.542664
0.526499
0.484518
0.552777
0.529784
0.508141
0.496051
0.489508
0.42293
0.486162
0.449378
0.417959
0.465002
0.544195
0.518852
0.538196
0.535507
0.456643
0.453711
0.489368
0.567773
0.54206
0.571038
0.575706
0.555808
0.566788
0.537741
0.489275
0.532564
0.489373
0.526689
0.480218
0.474293
0.476073
0.538259
0.508149
0.510827
0.508267
0.458671
0.604996
0.536445
0.515627
0.532088
0.460027
0.480657
0.527383
0.495514
0.527475
0.503586
0.496458
0.576319
0.598359
0.502185
0.463259
0.498385
0.620118
0.429242
0.441602
0.501835
0.549023
0.51785
0.477327
0.557877
0.469166
0.526393
0.566806
0.584196
0.506195
0.536392
0.546994
0.557559
0.523432
0.489986
0.471187
0.465727
0.451338
0.427804
0.492163
0.50542
0.511035
0.559664
0.475419
0.494223
0.557821
0.540637
0.650246
0.44276
0.395034
0.528391
0.573616
0.455663
0.465766
0.424186
0.402215
0.517736
0.539203
0.583861
0.532199
0.529731
0.596365
0.47458
0.43287
0.508192
0.465533
0.483042
0.561385
0.504501
0.447252
0.494334
0.583943
0.529112
0.489911
0.421941
0.463567
0.522865
0.444313
0.51935
0.54841
0.537782
0.489401
0.53166
0.461119
0.392472
0.496179
0.482419
0.483311
0.505024
0.546558
0.500154
0.480176
0.549042
0.488835
0.489348
0.559664
0.518475
0.52752
0.51326
0.563727
0.545895
0.460415
0.489624
0.4684
0.526592
0.484712
0.546218
0.545708
0.466142
0.499324
0.451614
0.440419
0.518695
0.489601
0.50128
0.400492
0.566357
0.52047
0.496001
0.517021
0.484435
0.450441
0.509454
0.501161
0.50647
0.502174
0.519214
0.538192
0.502772
0.507483
0.537259
0.477775
0.489565
0.527699
0.548698
0.455446
0.438513
0.484745
0.575294
0.446437
0.4801
0.434899
0.449426
0.510483
0.495456
0.497828
0.529137
0.516685
0.439877
0.413575
0.45373
0.579433
0.53551
0.416351
0.495784
0.526363
0.480979
0.5257
0.50411
0.509761
0.437636
0.49118
0.556525
0.542939
0.520493
0.50246
0.544858
0.467175
0.475125
0.479544
0.524469
0.500048
0.549269
0.519189
0.450031
0.465653
0.464872
0.491209
0.444541
0.53429
0.487246
0.465207
0.534346
0.546118
0.495237
0.517905
0.525726
0.507973
0.484643
0.459359
0.472434
0.458246
0.470298
0.551925
0.57004
0.496892
0.467677
0.46736
0.466097
0.523457
0.573475
0.52212
0.42347
0.434373
0.468274
0.453276
0.52092
0.496979
0.511863
0.546069
0.489827
0.500317
0.515769
0.514443
0.523684
0.526443
0.499113
0.489001
0.537236
0.570051
0.587258
0.456927
0.389471
0.389937
0.46511
0.49227
0.514543
0.524096
0.502669
0.533719
0.590342
0.555063
0.488263
0.471663
0.451805
0.49416
0.51378
0.48981
0.483694
0.473763
0.490467
0.526583
0.549319
0.521734
0.494665
0.482183
0.426393
0.426685
0.481591
0.493823
0.538126
0.526888
0.479712
0.496201
0.494406
0.475554
0.501233
0.507228
0.494087
0.501174
0.535198
0.53819
0.514453
0.51749
0.504069
0.540647
0.492524
0.518869
0.57355
0.525266
0.495783
0.522958
0.532907
0.541807
0.540862
0.470934
0.448852
0.467701
0.472438
0.466624
0.431216
0.415002
0.439199
0.504439
0.551106
0.534894
0.528043
0.556685
0.523611
0.53063
0.517631
0.500139
0.514293
0.491826
0.49593
0.525333
0.548942
0.54802
0.517797
0.500691
0.531732
0.53847
0.458934
0.383254
0.455988
0.494278
0.503554
0.560789
0.561993
0.4733
0.48122
0.478687
0.463407
0.489022
0.520047
0.553284
0.557233
0.516055
0.52734
0.551948
0.535279
0.484279
0.440458
0.508431
0.550891
0.568735
0.543299
0.50813
0.45996
0.424841
0.454544
0.45271
0.44466
0.492818
0.514408
0.503361
0.481622
0.465216
0.465741
0.504312
0.501117
0.536223
0.58426
0.542543
0.506117
0.479803
0.479865
0.419305
0.408808
0.443146
0.484713
0.481926
0.466178
0.483502
0.479412
0.443713
0.453903
0.468721
0.490433
0.54174
0.56405
0.508015
0.500454
0.48511
0.46747
0.549996
0.552029
0.533175
0.463664
0.50013
0.537447
0.514982
0.469033
0.472311
0.527079
0.520695
0.480237
0.461391
0.48166
0.483762
0.556945
0.578058
0.519147
0.553117
0.555031
0.574063
0.491301
0.505848
0.528782
0.513055
0.544863
0.497574
0.492552
0.493548
0.513068
0.491744
0.526543
0.521079
0.494053
0.476691
0.447262
0.468378
0.492607
0.523036
0.474924
0.541441
0.490551
0.488707
0.504454
0.571938
0.632851
0.549636
0.468803
0.571311
0.497173
0.454667
0.46117
0.498989
0.445936
0.468552
0.573372
0.53971
0.489604
0.423752
0.481055
0.519323
0.492837
0.508391
0.477104
0.564611
0.605936
0.509136
0.518939
0.500567
0.646994
0.484537
0.566419
0.568182
0.436391
0.477949
0.529794
0.483033
0.56661
0.547653
0.613698
0.53063
0.467283
0.542251
0.435271
0.453887
0.439929
0.401981
0.53093
0.517943
0.494207
0.445168
0.460379
0.436001
0.510306
0.587151
0.532883
0.523805
0.617375
0.519364
0.572917
0.404367
0.514759
0.504983
0.487327
0.492207
0.450986
0.534704
0.528341
0.491448
0.448344
0.447041
0.502661
0.484911
0.542359
0.533093
0.493009
0.49295
0.509161
0.504004
0.484919
0.40138
0.462643
0.543392
0.485783
0.473447
0.531092
0.487413
0.473508
0.50366
0.539583
0.498397
0.520123
0.562569
0.465343
0.539305
0.487406
0.404773
0.461192
0.509498
0.467363
0.41778
0.480293
0.438077
0.440086
0.518314
0.504965
0.417223
0.480176
0.511485
0.535348
0.538095
0.480779
0.475605
0.51419
0.514362
0.466396
0.451707
0.469719
0.406255
0.442172
0.484446
0.547323
0.48422
0.433479
0.513478
0.534977
0.49901
0.596317
0.573887
0.50251
0.584199
0.533854
0.52251
0.467249
0.445061
0.512534
0.516198
0.553353
0.487924
0.450831
0.454307
0.511144
0.557477
0.553404
0.489168
0.52418
0.554515
0.548944
0.554987
0.43962
0.462562
0.497981
0.412826
0.505207
0.420727
0.458602
0.48965
0.464323
0.490032
0.497009
0.498386
0.476295
0.444858
0.514733
0.547827
0.524398
0.442974
0.525357
0.497632
0.513489
0.493243
0.506705
0.518443
0.466835
0.449874
0.51916
0.527185
0.466873
0.458912
0.480547
0.542801
0.530306
0.524008
0.470129
0.518516
0.486781
0.532505
0.539172
0.490318
0.49153
0.442857
0.442494
0.453511
0.506946
0.483732
0.494873
0.509978
0.505433
0.530483
0.564843
0.539635
0.557459
0.568173
0.480892
0.461218
0.496757
0.540624
0.492692
0.506982
0.493911
0.445719
0.476978
0.543173
0.545025
0.532459
0.421954
0.352018
0.379878
0.445052
0.520995
0.499826
0.459824
0.495544
0.513964
0.51743
0.537879
0.540794
0.48044
0.451732
0.464128
0.465631
0.485548
0.500843
0.490791
0.482703
0.529079
0.547112
0.51676
0.492746
0.491362
0.501001
0.473951
0.473746
0.499738
0.499295
0.507635
0.496395
0.471904
0.458662
0.509402
0.560709
0.579121
0.568361
0.533086
0.495304
0.520188
0.533652
0.537691
0.505759
0.494172
0.496765
0.568484
0.582007
0.494645
0.466295
0.514236
0.549274
0.542011
0.531056
0.513747
0.486899
0.524182
0.526986
0.480355
0.4666
0.447959
0.474656
0.453274
0.463076
0.521525
0.544492
0.518243
0.49371
0.497047
0.503711
0.524677
0.533231
0.545988
0.533499
0.552658
0.507562
0.449659
0.478321
0.493265
0.516655
0.493089
0.432267
0.391679
0.44263
0.506515
0.510997
0.520703
0.520047
0.520018
0.461345
0.446708
0.46349
0.482978
0.526816
0.511134
0.504344
0.480918
0.479176
0.47649
0.487272
0.494621
0.512965
0.517808
0.477926
0.468118
0.484722
0.486683
0.470653
0.435083
0.473225
0.501396
0.505333
0.512863
0.523006
0.567688
0.540345
0.497951
0.487064
0.487378
0.514333
0.539422
0.51688
0.54586
0.506809
0.446729
0.441119
0.446611
0.423333
0.435233
0.504515
0.558543
0.565499
0.532592
0.505317
0.517193
0.506071
0.535907
0.548787
0.559371
0.543741
0.50512
0.463995
0.512618
0.538738
0.513263
0.52059
0.596184
0.551793
0.501013
0.495251
0.520685
0.495475
0.498783
0.523665
0.535758
0.505218
0.47225
0.544381
0.531625
0.464837
0.467834
0.530388
0.538908
0.501733
0.470043
0.477539
0.52095
0.479297
0.439052
0.511937
0.503876
0.505926
0.507148
0.484908
0.513563
0.52932
0.530599
0.475839
0.518447
0.46655
0.444506
0.512681
0.549627
0.584611
0.495373
0.445659
0.449574
0.521402
0.455227
0.498205
0.512388
0.498969
0.43355
0.561691
0.530592
0.497043
0.474674
0.506466
0.613728
0.524888
0.571332
0.640579
0.535405
0.495564
0.522477
0.476708
0.470683
0.544511
0.48833
0.576222
0.526691
0.404315
0.421049
0.489413
0.5452
0.519626
0.528894
0.528172
0.502434
0.470319
0.455866
0.371644
0.45399
0.473647
0.520098
0.500827
0.543971
0.467276
0.441774
0.466644
0.515853
0.502714
0.551093
0.498105
0.536708
0.424543
0.373679
0.501947
0.537414
0.527685
0.45044
0.439303
0.53436
0.457807
0.526372
0.441968
0.478004
0.464734
0.569504
0.497404
0.538904
0.427189
0.446756
0.437029
0.526453
0.501421
0.438896
0.446789
0.527545
0.528668
0.481322
0.534023
0.561549
0.504823
0.528804
0.466753
0.430531
0.530976
0.481219
0.451477
0.510662
0.516925
0.469302
0.527027
0.525391
0.542214
0.565752
0.51752
0.452821
0.442115
0.567826
0.532989
0.443593
0.476363
0.514303
0.557957
0.500676
0.438231
0.439952
0.479924
0.448125
0.493523
0.503779
0.467622
0.515584
0.525056
0.51196
0.542903
0.578957
0.432904
0.486728
0.490775
0.495424
0.502684
0.502414
0.467193
0.546823
0.480505
0.448279
0.489575
0.536186
0.594982
0.468622
0.41697
0.533184
0.563455
0.461094
0.470971
0.426289
0.464164
0.486492
0.456331
0.515572
0.558918
0.439891
0.4901
0.579767
0.540061
0.476961
0.461967
0.485355
0.562109
0.546257
0.432552
0.44421
0.414754
0.465428
0.484027
0.533476
0.46951
0.445473
0.51167
0.465317
0.452763
0.501903
0.523156
0.538067
0.532842
0.520133
0.543437
0.444459
0.461064
0.436537
0.475089
0.53387
0.518863
0.555877
0.502749
0.484328
0.465465
0.469534
0.453472
0.482161
0.534014
0.544257
0.52601
0.415805
0.501777
0.506444
0.485968
0.52381
0.559994
0.571975
0.495233
0.47193
0.434913
0.399452
0.457247
0.557053
0.523345
0.502839
0.494483
0.50543
0.494477
0.523702
0.51335
0.458301
0.517817
0.538825
0.467559
0.465094
0.48781
0.486694
0.482472
0.486674
0.468046
0.523834
0.548273
0.552035
0.424041
0.35125
0.425137
0.497354
0.50208
0.525255
0.519932
0.521539
0.512297
0.472767
0.43789
0.479893
0.499612
0.473763
0.463155
0.465639
0.50206
0.54111
0.536065
0.510169
0.485107
0.494787
0.464129
0.501355
0.548081
0.509524
0.445299
0.482641
0.531712
0.513448
0.468318
0.518802
0.537765
0.504129
0.454084
0.484918
0.536117
0.509432
0.509178
0.527234
0.542696
0.501248
0.466593
0.515558
0.543108
0.554666
0.539555
0.557807
0.52084
0.493271
0.491038
0.490525
0.481644
0.456129
0.43539
0.424617
0.458087
0.48456
0.476496
0.451725
0.442057
0.454574
0.480389
0.548187
0.572236
0.592054
0.549793
0.536172
0.541979
0.537473
0.545722
0.517066
0.493362
0.487421
0.501549
0.491408
0.477831
0.483908
0.517618
0.514129
0.462889
0.464017
0.46394
0.49181
0.52837
0.527001
0.525284
0.526193
0.532036
0.532585
0.48475
0.44476
0.4668
0.473447
0.468484
0.463828
0.517333
0.535908
0.525391
0.511094
0.500855
0.523482
0.542543
0.555184
0.556553
0.506669
0.502893
0.488181
0.416241
0.429026
0.504536
0.532155
0.514554
0.502163
0.508535
0.524506
0.476022
0.485769
0.534493
0.522734
0.509016
0.50794
0.516131
0.527635
0.477913
0.444862
0.491937
0.538918
0.539669
0.531826
0.527741
0.514966
0.462512
0.506064
0.528487
0.494692
0.503547
0.480968
0.475764
0.50823
0.505247
0.50258
0.479685
0.460669
0.437805
0.463252
0.467907
0.509556
0.518391
0.506711
0.525889
0.520786
0.481865
0.474788
0.537725
0.556136
0.480483
0.482362
0.535484
0.541935
0.533968
0.526464
0.540106
0.559484
0.548578
0.49167
0.453186
0.492902
0.555284
0.525035
0.526766
0.533378
0.482111
0.507741
0.530346
0.510465
0.470739
0.506456
0.481261
0.52619
0.475252
0.437617
0.458249
0.496971
0.483188
0.525717
0.554353
0.513342
0.497015
0.506599
0.498375
0.550974
0.600146
0.531661
0.469964
0.475119
0.486028
0.538312
0.536421
0.529482
0.450512
0.560379
0.552961
0.468967
0.427884
0.465926
0.489313
0.535666
0.479539
0.558579
0.544269
0.599538
0.486875
0.517418
0.463677
0.567461
0.440977
0.551501
0.494399
0.578628
0.467735
0.470452
0.511831
0.491065
0.448212
0.462535
0.531918
0.534375
0.630717
0.473736
0.527695
0.492866
0.572486
0.443168
0.459214
0.521585
0.591384
0.492534
0.52805
0.481941
0.511676
0.497999
0.484785
0.362593
0.499373
0.48819
0.459543
0.49913
0.536344
0.507872
0.458466
0.488468
0.516636
0.526941
0.569003
0.4994
0.526737
0.506266
0.45776
0.455901
0.484195
0.414208
0.472535
0.446099
0.460104
0.423451
0.48742
0.492587
0.470832
0.489192
0.55072
0.490447
0.552769
0.488756
0.507145
0.5035
0.445893
0.488457
0.48804
0.45192
0.485225
0.512125
0.487763
0.444487
0.437461
0.489175
0.502371
0.467585
0.42325
0.510136
0.554901
0.552953
0.51139
0.474559
0.548268
0.517378
0.499246
0.498728
0.507736
0.444894
0.520413
0.486342
0.533943
0.502267
0.446193
0.507708
0.568078
0.542995
0.512586
0.484682
0.49185
0.477314
0.466244
0.510129
0.484051
0.448829
0.457234
0.512316
0.542638
0.495675
0.54544
0.557155
0.491215
0.522483
0.483052
0.431299
0.50517
0.507266
0.570629
0.59036
0.566684
0.538495
0.513217
0.474392
0.435483
0.52158
0.512775
0.482959
0.529916
0.514771
0.411505
0.467916
0.582894
0.570653
0.484389
0.412265
0.466845
0.578516
0.58413
0.488338
0.425984
0.440093
0.50629
0.452857
0.502667
0.553514
0.532123
0.476762
0.503075
0.527486
0.455831
0.445814
0.52151
0.59519
0.509478
0.485976
0.510604
0.511844
0.543522
0.473913
0.448244
0.545064
0.572224
0.551425
0.520075
0.510659
0.454098
0.451244
0.525061
0.569996
0.47639
0.462452
0.497089
0.525684
0.454456
0.419208
0.491958
0.579727
0.504813
0.44998
0.477546
0.571568
0.572967
0.535084
0.493638
0.53504
0.568449
0.55143
0.496828
0.40143
0.356148
0.391528
0.488141
0.548503
0.526778
0.504085
0.501582
0.552268
0.585999
0.536246
0.460163
0.468269
0.486871
0.502362
0.493037
0.470696
0.500719
0.512627
0.511957
0.497157
0.473536
0.46997
0.449032
0.458731
0.492666
0.529911
0.539114
0.572748
0.552515
0.524476
0.502343
0.490495
0.485801
0.464998
0.472094
0.47341
0.483771
0.510993
0.513493
0.484977
0.427016
0.457114
0.531899
0.513657
0.495708
0.506415
0.496932
0.534057
0.536078
0.483144
0.490442
0.522138
0.528203
0.51639
0.511512
0.522284
0.519717
0.480297
0.467993
0.496749
0.507752
0.529518
0.536693
0.563804
0.557065
0.521925
0.557765
0.583383
0.556032
0.529845
0.502775
0.466409
0.499225
0.519525
0.489867
0.499321
0.513459
0.517163
0.531531
0.523062
0.466752
0.429668
0.487263
0.567064
0.555172
0.506229
0.49345
0.535842
0.588972
0.582051
0.537102
0.509873
0.521481
0.504017
0.527637
0.517877
0.516476
0.519175
0.52249
0.502796
0.515465
0.534481
0.474304
0.439025
0.438845
0.477768
0.522413
0.483435
0.411688
0.419762
0.49092
0.581047
0.623098
0.574116
0.529126
0.483508
0.476479
0.512889
0.564678
0.582445
0.549284
0.496943
0.469264
0.492356
0.505899
0.52267
0.529307
0.559006
0.547588
0.514591
0.484048
0.515412
0.578003
0.569461
0.522672
0.482
0.469616
0.484754
0.473268
0.505671
0.52087
0.470276
0.47281
0.469094
0.494968
0.559791
0.585226
0.501003
0.476668
0.518157
0.495677
0.493153
0.465801
0.44782
0.498064
0.48933
0.493605
0.508957
0.551858
0.585845
0.543263
0.577323
0.585751
0.578026
0.513034
0.509421
0.557778
0.546511
0.527573
0.546975
0.500514
0.44424
0.452512
0.481325
0.516921
0.530252
0.554902
0.509046
0.508628
0.530464
0.543196
0.556359
0.557447
0.54491
0.476241
0.502767
0.540116
0.538417
0.504964
0.462804
0.484331
0.520819
0.569568
0.564704
0.498041
0.502928
0.571591
0.556564
0.469948
0.426057
0.522233
0.44334
0.424827
0.484623
0.442454
0.554673
0.477355
0.48406
0.492063
0.52092
0.535224
0.414248
0.471517
0.533272
0.575142
0.480371
0.407722
0.489042
0.493726
0.436931
0.422493
0.488946
0.352679
0.476842
0.446202
0.489698
0.468391
0.423019
0.464955
0.452089
0.477247
0.575825
0.520127
0.441805
0.551053
0.523835
0.51623
0.492587
0.539609
0.48329
0.468126
0.540442
0.468146
0.464304
0.536181
0.507523
0.487851
0.513062
0.522911
0.508003
0.434725
0.494912
0.546565
0.511926
0.54405
0.394569
0.431084
0.469303
0.549289
0.527961
0.503393
0.497538
0.520169
0.499703
0.559127
0.4886
0.471803
0.531068
0.540191
0.443531
0.474622
0.53676
0.488003
0.480191
0.492189
0.457445
0.434205
0.482532
0.490045
0.465383
0.467784
0.456438
0.466677
0.483218
0.427059
0.456927
0.499952
0.486186
0.478245
0.516016
0.540187
0.47568
0.496041
0.551021
0.56877
0.547516
0.451337
0.449872
0.494852
0.516603
0.518699
0.503331
0.532836
0.463498
0.485316
0.481382
0.505116
0.54668
0.562911
0.49863
0.540362
0.481422