/*--------------------------------*- C++ -*----------------------------------*\
  =========                 |
  \\      /  F ield         | OpenFOAM: The Open Source CFD Toolbox
   \\    /   O peration     | Website:  https://openfoam.org
    \\  /    A nd           | Version:  7
     \\/     M anipulation  |
\*---------------------------------------------------------------------------*/
FoamFile
{
    version     2.0;
    format      ascii;
    class       volScalarField;
    location    "1500";
    object      k1Write;
}
// * * * * * * * * * * * * * * * * * * * * * * * * * * * * * * * * * * * * * //

dimensions      [0 2 0 0 0 0 0];

internalField   nonuniform List<scalar> 
160000
(
8.08536e-19
1.14895e-18
6.98172e-19
1.15316e-18
1.46543e-18
6.91318e-19
1.60176e-18
9.16729e-19
1.02428e-18
2.11576e-18
1.5276e-18
9.84433e-19
1.79815e-18
1.91834e-18
6.46165e-19
9.23691e-19
6.64088e-19
7.70785e-19
1.93483e-18
1.69678e-18
1.15911e-18
9.72631e-19
1.42837e-18
1.99343e-18
1.31705e-18
1.81763e-18
2.48272e-18
1.54645e-18
1.90079e-18
1.0658e-18
1.03156e-18
1.36687e-18
3.02439e-18
1.47937e-18
1.25295e-18
1.66425e-18
2.40674e-18
3.62135e-18
9.96056e-19
1.67007e-18
1.17559e-18
1.16578e-18
1.81165e-18
1.21921e-18
2.32479e-18
2.2495e-18
1.91007e-18
8.46857e-19
1.62762e-18
9.47468e-19
1.45832e-18
4.02099e-18
2.59092e-18
1.89459e-18
3.64723e-18
1.10048e-18
2.89152e-18
8.31025e-19
7.27907e-19
1.20229e-18
5.39497e-18
1.49618e-18
1.44408e-18
1.13294e-18
8.36942e-19
2.98362e-18
1.8794e-18
2.39526e-18
6.17861e-19
3.35622e-19
3.23443e-18
9.90795e-19
2.79101e-18
1.32131e-18
2.25869e-18
1.76783e-18
2.49012e-18
1.58955e-18
3.24475e-18
1.85143e-18
3.50388e-18
4.65628e-18
2.32808e-18
1.69897e-18
1.64438e-18
1.45991e-18
1.46382e-18
9.31021e-19
1.44583e-18
2.31191e-18
8.67994e-19
3.36127e-18
4.02238e-18
3.34615e-18
2.15043e-18
1.00528e-18
2.03874e-18
1.49651e-18
1.60178e-18
1.0138e-18
1.91999e-18
6.85316e-19
2.83468e-18
1.49872e-18
9.20019e-19
2.15261e-18
8.08126e-19
2.25205e-18
2.77607e-18
2.69125e-18
3.75389e-18
1.13498e-18
3.83039e-18
1.68343e-18
1.42758e-18
1.98436e-18
1.15315e-18
1.88011e-18
3.71208e-18
2.59119e-18
2.0135e-18
1.37599e-18
2.73214e-18
3.24555e-18
3.96754e-18
6.43786e-18
4.18496e-18
1.58429e-18
2.29229e-18
2.25504e-18
1.5564e-18
1.23185e-18
2.6146e-18
5.42442e-18
2.67381e-18
2.25439e-18
1.31919e-18
1.87055e-18
1.18374e-18
7.7119e-19
2.37721e-18
3.15621e-18
5.87937e-19
2.56616e-18
5.2363e-18
2.53638e-18
2.80469e-18
2.497e-18
1.99896e-18
1.20764e-18
9.5653e-19
1.71261e-18
1.02267e-18
2.56552e-18
8.32937e-19
2.30782e-18
2.31031e-18
4.51193e-18
2.69023e-18
2.96094e-18
1.54393e-18
1.94887e-18
1.39633e-18
3.3279e-18
8.72335e-19
2.79227e-18
2.6613e-18
1.44926e-18
2.06803e-18
1.38286e-18
4.34326e-18
5.54686e-18
1.89649e-18
5.69399e-18
2.90026e-18
1.43964e-18
2.21259e-18
2.39927e-18
5.33966e-18
4.56232e-18
9.78304e-19
3.86223e-18
1.42015e-18
1.02197e-18
1.16356e-18
1.34914e-18
1.63655e-18
1.35128e-18
9.47377e-19
2.01945e-18
2.17008e-18
1.42613e-18
2.12455e-18
2.8597e-18
4.77095e-18
6.25383e-19
2.22893e-18
6.12523e-18
7.03213e-18
6.92248e-18
5.75446e-18
3.13176e-18
2.3193e-18
2.08027e-18
2.79079e-18
4.49664e-18
2.87234e-18
3.05734e-18
3.85373e-18
3.51695e-18
3.8367e-18
3.39714e-18
1.98079e-18
2.26059e-18
3.30873e-18
2.29924e-18
1.49004e-18
3.18748e-18
5.45159e-18
3.68746e-18
4.49604e-18
2.84631e-18
1.08665e-18
1.47301e-18
1.64029e-18
1.84846e-18
2.8845e-18
9.21481e-19
2.55702e-18
1.61667e-18
5.18373e-19
1.97728e-18
1.28789e-18
2.33349e-18
2.16068e-18
2.95009e-18
1.30576e-18
2.504e-18
1.18909e-18
2.32502e-18
1.6213e-18
1.32561e-18
1.98253e-18
1.36835e-18
2.3339e-18
1.9158e-18
2.57462e-18
2.40215e-18
5.77244e-18
3.11431e-18
4.0215e-18
2.97995e-18
1.37929e-18
1.05743e-18
1.31465e-18
2.91206e-18
1.7774e-18
9.98694e-19
2.29509e-18
8.06424e-18
7.05856e-18
2.09432e-18
1.69819e-18
1.05967e-18
2.02539e-18
3.50178e-18
3.3031e-18
1.58661e-18
2.76299e-18
5.67092e-18
1.36886e-18
1.56863e-18
2.2015e-18
1.76947e-18
1.56072e-18
1.56853e-18
3.01206e-18
5.84811e-18
1.78782e-18
2.08778e-18
1.50949e-18
2.05405e-18
2.34108e-18
2.62967e-18
2.24981e-18
1.76823e-18
3.42224e-18
1.44612e-18
2.88658e-18
3.1723e-18
2.65974e-18
6.85938e-19
1.94156e-18
2.37984e-18
3.20397e-18
3.6751e-18
3.48767e-18
8.32181e-19
2.85224e-18
1.46341e-18
3.01075e-18
4.2994e-18
7.49558e-18
6.43327e-18
4.60856e-18
2.46726e-18
2.39182e-18
2.11118e-18
1.46256e-18
2.76201e-18
2.82774e-18
1.72804e-18
2.38075e-18
4.155e-18
2.21515e-18
3.0382e-18
3.0874e-18
1.3792e-18
1.66466e-18
2.19296e-18
1.32163e-18
1.8165e-18
1.78286e-18
3.83019e-18
2.78742e-18
2.95282e-18
3.87276e-18
3.36745e-18
2.33355e-18
2.28106e-18
1.48721e-18
2.28301e-18
1.65575e-18
1.99442e-18
1.97447e-18
1.93529e-18
2.32157e-18
3.05193e-18
6.06903e-18
1.77112e-18
6.93076e-19
1.30589e-18
1.55278e-18
1.04873e-18
5.88358e-18
1.67797e-18
2.22381e-18
3.85661e-18
3.57992e-18
4.26227e-18
3.13993e-18
1.85575e-18
3.54323e-18
1.81128e-18
2.38329e-18
2.22845e-18
3.24504e-18
2.38554e-18
2.138e-18
1.45097e-18
1.77497e-18
1.98776e-18
2.78241e-18
1.75162e-18
3.46877e-18
3.19069e-18
2.09758e-18
9.42974e-18
4.48952e-18
2.0507e-18
1.66131e-18
2.65862e-18
2.71707e-18
8.38798e-18
1.65175e-18
5.31726e-18
1.88908e-18
2.02488e-18
1.38011e-18
1.67419e-18
1.83466e-18
1.74931e-18
1.67007e-18
2.68741e-18
3.26961e-18
3.53081e-18
4.05955e-18
3.6536e-18
2.46209e-18
1.97913e-18
2.56992e-18
1.85562e-18
2.82988e-18
2.09472e-18
1.24562e-18
3.78502e-18
1.56555e-18
4.77609e-19
3.44492e-18
2.02403e-18
2.51789e-18
5.50053e-19
1.31488e-18
6.43169e-19
5.56767e-19
7.90944e-19
1.42596e-18
1.04537e-18
1.16306e-18
1.33454e-18
1.55247e-18
9.8636e-19
1.24771e-18
1.50659e-18
2.32701e-18
8.62562e-19
8.52102e-19
3.19148e-18
2.61121e-18
1.5987e-18
9.16577e-19
1.29465e-18
2.03419e-18
1.97757e-18
6.46556e-19
1.37278e-18
3.97553e-18
3.243e-18
1.58129e-18
2.3758e-18
1.54828e-18
1.00354e-18
1.3421e-18
9.83456e-19
7.00924e-19
2.30767e-18
3.44454e-18
3.19723e-19
2.19842e-18
2.9947e-18
1.24791e-18
8.03295e-19
1.64075e-18
9.02736e-19
2.28756e-18
3.6668e-18
1.70778e-18
7.8282e-19
1.50201e-18
2.51562e-18
1.10506e-18
1.96895e-18
1.37817e-18
4.6898e-18
6.92064e-19
1.95016e-18
2.44391e-18
1.01007e-18
1.37291e-18
1.45657e-18
1.58751e-18
2.04063e-18
1.02991e-18
1.01524e-18
1.80763e-18
1.38034e-18
8.87115e-19
2.95777e-18
2.7056e-18
4.17334e-18
3.34635e-18
2.04292e-18
8.06874e-19
1.57117e-18
1.36515e-18
2.20867e-18
1.35756e-18
1.42672e-18
1.37529e-18
3.02813e-18
2.43726e-18
1.79049e-18
1.97508e-18
1.9541e-18
4.78574e-18
4.41472e-18
1.16366e-18
1.55171e-18
1.79273e-18
2.64546e-18
3.43396e-18
2.32039e-18
4.79743e-18
3.12811e-18
1.20896e-18
2.36814e-18
1.75507e-18
2.21878e-18
1.9297e-18
1.05766e-18
2.35769e-18
1.70534e-18
1.03003e-18
5.16233e-18
2.35576e-18
1.30361e-18
2.98357e-18
3.6378e-18
2.30421e-18
2.66264e-18
2.20393e-18
9.77182e-19
1.51009e-18
1.36044e-18
1.79814e-18
2.03004e-18
2.04212e-18
2.58136e-18
2.87858e-18
5.0553e-18
4.222e-18
1.96354e-18
2.00798e-18
2.00803e-18
1.81228e-18
2.27033e-18
2.03648e-18
1.41972e-18
2.42295e-18
1.5098e-18
1.37861e-18
6.06743e-19
5.39908e-18
6.19796e-18
3.42377e-18
1.19804e-18
6.62578e-18
1.489e-18
9.79229e-19
1.58836e-18
2.54288e-18
3.38283e-18
2.80348e-18
3.47372e-18
3.38443e-18
1.24424e-18
2.61572e-18
1.7418e-18
1.50765e-18
9.55104e-19
4.2679e-18
9.51847e-19
1.24102e-18
2.01006e-18
2.0803e-18
3.46093e-18
1.76943e-18
3.16704e-18
1.28052e-18
2.72788e-18
2.25262e-18
2.96663e-18
1.96323e-18
1.62854e-18
1.44324e-18
2.66769e-18
4.28631e-18
1.91186e-18
2.38286e-18
2.01653e-18
2.08844e-18
1.88262e-18
9.43663e-19
5.58885e-18
2.30133e-18
2.85454e-18
2.83712e-18
1.93446e-18
2.76263e-18
1.92859e-18
1.7495e-18
2.48255e-18
1.31657e-18
7.32051e-19
2.64611e-18
2.04789e-18
1.93828e-18
9.75395e-19
2.09935e-18
5.42093e-18
5.9664e-18
3.58594e-18
2.46076e-18
5.51689e-18
2.36229e-18
4.16967e-18
7.77711e-18
8.80285e-18
6.16556e-18
4.17435e-18
3.51203e-18
2.29671e-18
2.05055e-18
3.25202e-18
7.11215e-18
7.26018e-18
2.97865e-18
2.19018e-18
2.05876e-18
2.78884e-18
2.09243e-18
1.4348e-18
2.15594e-18
2.73459e-18
1.78162e-18
1.90909e-18
2.37411e-18
2.54445e-18
2.48647e-18
1.31405e-18
1.1131e-18
6.58835e-19
1.46996e-18
1.58063e-18
2.81787e-18
2.93851e-18
4.11028e-18
1.65687e-18
3.5325e-18
2.31995e-18
2.54027e-18
2.24698e-18
5.49226e-18
4.69564e-18
1.19412e-18
1.8178e-18
2.19662e-18
2.49833e-18
1.22144e-18
1.76897e-18
1.11738e-18
1.27367e-18
3.4887e-18
3.34416e-18
1.09858e-18
4.40068e-18
5.63069e-18
7.50114e-18
6.42981e-18
5.08995e-18
3.3209e-18
3.12861e-18
4.03307e-18
1.75259e-18
1.92323e-18
3.19863e-18
1.37534e-18
2.53696e-18
4.5097e-18
4.91715e-18
1.30521e-18
1.44948e-18
1.86768e-18
1.90972e-18
3.45524e-18
3.34635e-18
8.22197e-19
2.35938e-18
7.4933e-18
4.939e-18
1.54571e-18
2.60877e-18
2.38003e-18
1.00398e-18
1.62773e-18
2.19508e-18
4.70072e-18
3.54936e-18
1.58859e-18
1.60105e-18
2.34723e-18
2.48176e-18
3.21917e-18
4.27907e-18
3.39985e-18
2.19104e-18
1.5867e-18
1.24981e-18
1.54901e-18
2.02425e-18
1.08703e-18
2.18635e-18
3.04882e-18
3.04302e-18
7.14864e-19
2.69896e-18
3.7908e-18
2.53715e-18
2.87351e-18
8.46933e-18
6.36251e-18
5.32689e-18
3.43638e-18
2.12452e-18
1.70048e-18
1.35852e-18
1.54466e-18
2.11012e-18
1.38899e-18
2.2442e-18
2.01042e-18
1.98481e-18
3.0976e-18
3.53124e-18
3.52873e-18
2.00016e-18
8.77675e-19
1.23691e-18
2.15732e-18
2.11082e-18
2.08588e-18
1.80692e-18
3.63177e-18
8.88057e-18
5.60192e-18
3.08843e-18
4.36272e-18
5.90317e-18
2.32778e-18
1.89191e-18
3.30053e-18
2.30288e-18
1.42621e-18
2.86914e-18
2.48533e-18
1.60189e-18
2.57264e-18
3.63556e-18
2.11181e-18
1.6926e-18
1.99295e-18
2.53456e-18
1.50374e-18
2.24165e-18
3.10725e-18
3.81988e-18
2.29226e-18
2.10282e-18
1.92996e-18
2.28461e-18
1.24845e-18
1.85937e-18
2.01189e-18
3.7193e-18
1.76861e-18
1.60593e-18
2.02225e-18
2.04359e-18
1.71892e-18
1.87756e-18
1.94403e-18
2.67618e-18
2.28003e-18
2.40406e-18
5.17936e-18
3.15027e-18
4.1934e-18
4.6814e-18
1.77905e-18
1.54629e-18
1.61747e-18
1.02247e-18
1.77024e-18
1.39713e-18
2.72763e-18
1.32816e-18
2.51816e-18
3.37051e-18
1.68127e-18
2.43028e-18
4.24174e-18
7.93842e-19
5.56473e-18
1.95264e-18
9.92206e-19
3.41548e-18
1.95552e-18
1.55395e-18
2.4242e-18
4.03815e-18
1.64405e-18
2.86459e-18
3.57818e-18
1.82179e-18
1.54235e-18
4.0382e-18
5.40026e-19
1.30376e-18
6.43899e-19
1.80494e-18
4.50233e-19
3.98688e-19
1.81643e-18
6.72321e-19
2.29636e-18
4.82302e-19
1.18805e-18
2.01427e-18
7.3344e-19
1.96273e-18
3.25525e-18
1.77903e-18
1.08299e-18
2.24331e-18
3.82616e-18
1.75308e-18
3.46729e-18
1.95103e-18
9.54024e-19
2.05865e-18
1.26022e-18
1.4875e-18
9.28233e-19
7.20608e-19
8.74914e-19
1.25294e-18
1.51053e-18
1.61727e-18
4.12248e-18
1.5419e-18
1.22671e-18
1.80544e-18
1.60524e-18
1.71443e-18
6.38662e-19
1.2182e-18
1.64699e-18
1.07744e-18
1.04123e-18
1.23133e-18
1.65205e-18
1.59364e-18
1.55615e-18
1.33149e-18
3.69464e-18
9.54809e-19
8.0916e-19
9.04857e-19
1.9022e-18
3.89071e-18
1.50752e-18
9.04367e-19
1.05847e-18
1.56599e-18
2.09265e-18
2.19813e-18
4.18521e-18
2.82998e-18
4.12108e-18
1.10399e-18
1.20544e-18
1.4682e-18
2.39025e-18
8.05323e-19
9.92822e-19
2.42678e-18
8.82902e-19
8.39832e-19
5.18349e-19
1.59497e-18
6.27918e-19
2.34033e-18
1.74088e-18
6.05226e-19
1.05108e-18
1.81907e-18
1.83053e-18
2.51024e-18
4.13155e-18
1.8575e-18
2.69705e-18
2.6908e-18
2.71896e-18
1.04931e-18
2.32797e-18
1.37579e-18
2.75388e-18
2.58264e-18
1.18347e-18
9.38046e-19
2.45677e-18
1.27785e-18
7.83184e-19
1.61364e-18
7.04643e-19
6.32803e-19
1.33654e-18
1.59067e-18
1.77201e-18
1.29078e-18
1.26357e-18
2.71961e-18
1.42482e-18
2.26087e-18
3.41143e-18
1.9014e-18
1.83153e-18
1.07768e-18
1.9538e-18
3.15242e-18
1.69446e-18
2.05713e-18
1.52638e-18
9.7206e-19
2.14492e-18
1.54324e-18
1.93621e-18
2.26831e-18
1.84532e-18
1.5968e-18
1.09506e-18
1.2891e-18
1.6939e-18
1.44802e-18
1.21089e-18
1.321e-18
1.08872e-18
1.77454e-18
1.90562e-18
1.15139e-18
1.68318e-18
3.6057e-18
3.70461e-18
2.07687e-18
2.27711e-18
1.81904e-18
2.37808e-18
2.67617e-18
1.52144e-18
1.5625e-18
3.11218e-18
6.48653e-18
2.30296e-18
2.55413e-18
3.79001e-18
1.83678e-18
1.95908e-18
2.15846e-18
1.89967e-18
1.44323e-18
2.72885e-18
1.55164e-18
1.96238e-18
4.68524e-18
4.14968e-18
1.11805e-18
2.57098e-18
1.88489e-18
1.47692e-18
1.41874e-18
9.96811e-19
2.55338e-18
2.24867e-18
2.25122e-18
2.01161e-18
1.99132e-18
2.00354e-18
1.661e-18
2.65518e-18
3.70637e-18
2.94268e-18
2.96416e-18
2.24421e-18
1.26772e-18
6.30485e-19
2.00681e-18
3.85161e-18
3.43644e-18
1.72148e-18
1.94736e-18
1.32034e-18
8.67366e-19
1.31366e-18
2.18318e-18
1.64419e-18
2.01663e-18
2.1554e-18
3.50664e-18
6.11652e-18
8.6104e-18
3.96371e-18
2.17477e-18
3.18049e-18
3.77785e-18
3.31413e-18
5.02438e-18
4.06553e-18
3.2472e-18
3.45983e-18
2.20004e-18
1.92965e-18
2.54938e-18
2.92082e-18
2.99509e-18
2.01416e-18
2.00356e-18
1.20858e-18
1.7863e-18
2.50785e-18
1.57461e-18
1.15303e-18
1.87721e-18
2.30169e-18
1.40315e-18
1.48849e-18
2.01358e-18
2.49786e-18
1.85402e-18
1.23751e-18
1.24812e-18
1.93025e-18
2.28662e-18
2.1156e-18
2.82108e-18
2.62877e-18
3.01396e-18
1.88951e-18
2.45578e-18
4.48094e-18
2.06947e-18
1.43315e-18
2.40571e-18
3.26777e-18
1.14755e-18
2.38789e-18
2.73021e-18
1.17624e-18
1.13139e-18
1.67105e-18
3.46836e-18
4.04996e-18
2.75748e-18
3.92223e-18
2.26166e-18
3.7149e-18
3.10243e-18
7.23186e-18
6.75598e-18
2.57025e-18
1.9768e-18
2.20564e-18
2.25059e-18
2.01673e-18
1.36619e-18
1.69941e-18
1.89758e-18
1.43674e-18
2.24933e-18
2.69193e-18
1.5469e-18
1.57159e-18
2.56944e-18
1.93366e-18
2.44692e-18
2.56292e-18
2.3912e-18
2.66671e-18
3.58691e-18
2.19417e-18
1.13635e-18
1.35253e-18
2.87434e-18
3.01981e-18
2.67759e-18
3.83053e-18
2.78565e-18
5.07141e-18
3.58432e-18
1.67846e-18
2.96301e-18
2.40304e-18
3.6966e-18
2.49144e-18
1.82478e-18
1.12312e-18
2.22385e-18
2.20244e-18
2.0865e-18
2.36545e-18
2.39457e-18
3.22664e-18
2.32612e-18
1.78438e-18
2.33143e-18
4.63749e-18
9.87906e-18
6.05875e-18
2.68007e-18
7.85872e-18
7.52923e-18
3.50942e-18
1.78188e-18
1.58067e-18
2.51211e-18
3.56722e-18
2.90791e-18
2.39121e-18
1.38343e-18
1.59467e-18
2.73908e-18
1.99841e-18
1.85017e-18
2.18015e-18
2.27554e-18
1.22677e-18
1.15524e-18
2.28459e-18
2.83249e-18
2.38891e-18
2.24134e-18
2.88123e-18
4.4136e-18
5.76266e-18
3.97845e-18
1.73869e-18
1.87814e-18
1.95111e-18
1.62315e-18
1.62101e-18
1.87808e-18
2.90443e-18
2.73222e-18
1.0544e-18
1.80202e-18
1.30633e-18
1.32343e-18
2.74094e-18
3.31754e-18
2.85315e-18
2.87066e-18
1.98655e-18
1.66517e-18
3.68015e-18
3.55746e-18
1.87807e-18
2.65904e-18
3.52695e-18
2.05284e-18
8.54464e-19
1.20949e-18
2.8066e-18
2.3881e-18
4.71799e-18
3.19646e-18
1.48294e-18
2.1817e-18
2.92427e-18
2.81386e-18
1.29347e-18
7.30724e-19
1.69405e-18
2.72665e-18
4.23731e-18
3.60345e-18
3.04304e-18
9.04005e-19
2.56489e-18
3.10414e-18
1.85366e-18
3.29377e-18
4.47363e-18
3.85599e-18
2.66452e-18
2.84231e-18
2.66475e-18
2.08734e-18
1.76301e-18
1.24783e-18
1.6444e-18
2.66605e-18
1.20537e-18
2.00866e-18
2.74509e-18
3.24678e-18
1.743e-18
1.3845e-18
3.17016e-18
3.09696e-18
3.32637e-18
2.10081e-18
1.37939e-18
3.6462e-18
3.39726e-18
2.44256e-18
3.41436e-18
1.79411e-18
6.09846e-19
1.46343e-18
1.31736e-18
8.84745e-19
2.2268e-18
2.09123e-18
2.43605e-18
2.73121e-18
2.90146e-18
2.77219e-18
1.85001e-18
2.81877e-18
1.60611e-18
2.21348e-18
9.54569e-19
1.1093e-18
1.21686e-18
9.78023e-19
3.31853e-18
1.59862e-18
2.14548e-18
1.74058e-18
1.4998e-18
1.67867e-18
8.57101e-19
3.42384e-18
8.18204e-19
1.58341e-18
3.47045e-18
7.83374e-19
1.19642e-18
1.917e-18
8.70576e-19
2.93323e-19
7.8341e-19
1.06153e-18
1.71101e-18
2.16916e-18
2.63715e-18
1.94074e-18
2.2655e-18
5.03342e-19
1.33975e-18
3.66387e-18
3.67115e-18
2.09992e-18
1.59707e-18
1.70957e-18
2.14566e-18
1.39806e-18
1.53776e-18
1.02153e-18
1.39493e-18
1.06979e-18
3.23222e-18
2.23835e-18
5.44278e-19
2.0426e-18
1.36422e-18
9.87143e-19
8.74822e-19
1.45043e-18
1.26083e-18
2.49645e-18
1.58789e-18
3.29513e-18
1.15707e-18
1.0099e-18
1.36495e-18
1.74197e-18
1.72412e-18
1.65005e-18
2.51556e-18
2.35458e-18
6.29742e-19
8.34823e-19
1.23794e-18
2.48059e-18
4.05205e-18
2.33756e-18
8.83696e-19
2.23428e-18
1.33152e-18
5.23607e-19
3.62068e-18
2.30158e-18
1.6858e-18
1.37878e-18
3.77851e-18
3.55973e-18
3.18237e-18
4.0353e-18
1.5017e-18
3.85055e-18
9.58064e-19
2.74996e-18
1.63892e-18
1.56731e-18
1.12087e-18
2.89168e-18
7.09653e-19
1.00253e-18
1.84025e-18
4.05489e-18
1.49101e-18
2.43668e-18
3.27946e-18
2.2561e-18
3.54675e-18
3.58918e-18
2.25953e-18
1.78483e-18
2.11774e-18
2.30056e-18
1.30322e-18
3.16836e-18
1.73883e-18
1.11261e-18
1.5605e-18
2.4327e-18
2.44349e-18
3.20181e-18
2.75171e-18
1.35869e-18
1.43983e-18
1.30275e-18
1.97648e-18
6.68979e-19
2.43924e-18
2.59995e-18
2.77117e-18
1.51622e-18
1.36468e-18
1.95407e-18
1.48873e-18
2.68746e-18
1.72642e-18
2.62885e-18
3.00405e-18
1.50297e-18
2.76061e-18
1.89155e-18
1.46233e-18
1.57877e-18
2.63718e-18
7.11183e-19
1.93496e-18
3.20661e-18
3.06121e-18
4.09016e-18
2.32346e-18
1.63612e-18
1.18983e-18
3.56758e-18
1.48349e-18
1.82834e-18
1.10973e-18
1.23527e-18
2.01478e-18
1.93052e-18
3.86347e-18
3.33569e-18
1.59725e-18
2.61557e-18
2.53657e-18
2.71647e-18
2.92177e-18
2.26982e-18
1.17643e-18
1.83053e-18
2.89049e-18
4.63401e-18
6.60833e-18
7.8887e-18
4.02883e-18
1.58255e-18
2.27531e-18
3.46488e-18
2.21978e-18
2.39209e-18
2.45664e-18
1.3258e-18
1.30128e-18
2.14739e-18
1.75169e-18
6.34177e-19
7.80207e-19
2.14471e-18
2.58773e-18
2.68652e-18
2.86963e-18
5.58301e-18
4.94783e-18
2.74274e-18
2.03448e-18
3.47353e-18
4.9252e-18
2.991e-18
2.48627e-18
1.87281e-18
2.41281e-18
3.45468e-18
2.51557e-18
2.11844e-18
1.27604e-18
1.54912e-18
2.60767e-18
3.53768e-18
2.44506e-18
2.10026e-18
1.50718e-18
2.0553e-18
1.97804e-18
1.07543e-18
1.51074e-18
3.35578e-18
3.17278e-18
2.08254e-18
2.10243e-18
1.9998e-18
1.48343e-18
1.66149e-18
1.38357e-18
2.09904e-18
3.15366e-18
3.12841e-18
2.92153e-18
2.80179e-18
2.20115e-18
2.27241e-18
1.65941e-18
1.6663e-18
1.79737e-18
1.69573e-18
2.07931e-18
1.31645e-18
6.18459e-19
1.31807e-18
1.78726e-18
1.90172e-18
2.62276e-18
2.66939e-18
1.31037e-18
1.26819e-18
1.08456e-18
8.82725e-19
2.58117e-18
2.98482e-18
3.70225e-18
5.85703e-18
7.72949e-18
3.77574e-18
1.96186e-18
1.85203e-18
1.73592e-18
2.76398e-18
9.84206e-19
1.42314e-18
2.41463e-18
1.92632e-18
2.66409e-18
3.21742e-18
2.69755e-18
1.82692e-18
1.75605e-18
2.54923e-18
3.13635e-18
3.16697e-18
2.06653e-18
1.9993e-18
2.00199e-18
3.9745e-18
3.54023e-18
4.33314e-18
5.87691e-18
3.2267e-18
1.18408e-18
8.85001e-19
1.61375e-18
2.73956e-18
3.73206e-18
3.13156e-18
2.88287e-18
2.02626e-18
1.75336e-18
1.73452e-18
1.96546e-18
2.50758e-18
2.56863e-18
1.37409e-18
1.397e-18
1.83641e-18
3.84577e-18
3.59321e-18
1.74514e-18
2.46412e-18
3.39959e-18
5.53175e-18
6.42618e-18
3.77238e-18
2.49988e-18
4.54185e-18
5.02876e-18
2.11652e-18
1.41828e-18
1.6457e-18
3.00683e-18
4.5444e-18
2.89539e-18
2.70102e-18
3.34834e-18
1.9037e-18
2.01496e-18
2.44414e-18
1.55836e-18
1.96727e-18
2.99724e-18
2.26648e-18
1.85889e-18
1.90626e-18
1.37607e-18
8.81005e-19
2.32129e-18
2.67981e-18
2.58953e-18
2.36339e-18
2.19723e-18
1.69025e-18
1.21217e-18
1.78045e-18
1.63946e-18
1.96416e-18
2.99314e-18
1.40878e-18
1.88585e-18
2.51991e-18
2.95054e-18
3.31747e-18
6.42083e-18
3.43195e-18
4.94259e-18
6.75233e-18
4.09468e-18
1.52483e-18
1.92074e-18
1.57873e-18
1.81135e-18
4.13422e-18
4.2565e-18
2.91167e-18
1.17582e-18
1.52792e-18
1.13169e-18
1.07771e-18
1.33005e-18
1.20103e-18
1.81735e-18
2.96137e-18
1.91653e-18
2.95925e-18
2.00875e-18
3.21141e-18
3.4064e-18
3.26013e-18
1.52184e-18
2.09651e-18
2.02758e-18
2.30232e-18
3.52174e-18
6.74305e-19
1.84763e-18
2.69795e-18
2.28407e-18
4.69724e-18
3.82781e-18
2.20656e-18
2.54414e-18
1.70267e-18
2.16557e-18
2.32629e-18
1.02817e-18
8.60881e-19
2.51543e-18
3.568e-18
2.4035e-18
6.7433e-19
5.1906e-18
4.5938e-18
2.52525e-18
1.56548e-18
2.17393e-18
2.85544e-18
1.25507e-18
3.07206e-18
1.73309e-18
1.14394e-18
1.05224e-18
2.43404e-18
1.79388e-18
1.50961e-18
1.20381e-18
1.21165e-18
1.48616e-18
1.79135e-18
1.75696e-18
2.33863e-18
2.76733e-18
1.39642e-18
1.22942e-18
1.13815e-18
6.80182e-19
1.60667e-18
1.26399e-18
6.66471e-19
8.29196e-19
2.53313e-19
2.35527e-18
3.42961e-18
9.1302e-19
6.30753e-19
2.09039e-18
1.90115e-18
2.88479e-18
3.5119e-18
1.10152e-18
8.90313e-19
5.69776e-19
9.82646e-19
1.01254e-18
5.27608e-19
1.96803e-18
2.65031e-18
1.10072e-18
1.69157e-18
1.42863e-18
6.49081e-19
1.37854e-18
2.06609e-18
1.60744e-18
6.9126e-19
1.22593e-18
1.82576e-18
3.35563e-18
2.23207e-18
1.2522e-18
2.69055e-18
1.18829e-18
8.87667e-19
1.08323e-18
1.77168e-18
1.10646e-18
2.25011e-18
4.31249e-18
1.54557e-18
1.87956e-18
1.75525e-18
1.41913e-18
9.38841e-19
1.64694e-18
2.01789e-18
9.57932e-19
1.76681e-18
1.76169e-18
8.66928e-19
1.36497e-18
1.14751e-18
1.22922e-18
7.36596e-19
8.89116e-19
2.10513e-18
1.58141e-18
2.6138e-18
1.49457e-18
2.28309e-18
1.23212e-18
1.2429e-18
2.72883e-18
1.71501e-18
2.81691e-18
2.81871e-18
1.27146e-18
1.72819e-18
1.52485e-18
4.16383e-18
7.90685e-19
1.54984e-18
1.98783e-18
1.61522e-18
2.16609e-18
2.95465e-18
1.64803e-18
1.84199e-18
1.73747e-18
1.77541e-18
1.39143e-18
1.1911e-18
1.83192e-18
1.75272e-18
1.29234e-18
2.18394e-18
1.5722e-18
1.07515e-18
8.70075e-19
2.33105e-18
2.63901e-18
2.19333e-18
1.03799e-18
3.82683e-18
2.74907e-18
4.31329e-18
3.74593e-18
1.75652e-18
2.03525e-18
1.90432e-18
1.34792e-18
1.63205e-18
3.28316e-18
4.27374e-18
2.87723e-18
8.07163e-19
1.45768e-18
4.70096e-18
1.92781e-18
1.50429e-18
2.34343e-18
1.40647e-18
1.84891e-18
1.78973e-18
3.54049e-18
2.08681e-18
1.0787e-18
1.32228e-18
1.665e-18
1.98866e-18
1.04979e-18
2.20829e-18
2.04532e-18
1.96197e-18
1.82569e-18
2.42374e-18
1.47486e-18
2.00777e-18
4.00697e-18
2.9738e-18
2.73659e-18
2.11098e-18
3.36019e-18
1.3738e-18
2.40128e-18
2.98585e-18
1.49676e-18
1.37558e-18
2.30496e-18
1.82977e-18
1.65312e-18
1.9945e-18
2.52078e-18
2.95459e-18
2.60041e-18
2.99779e-18
2.66541e-18
1.17334e-18
1.07735e-18
2.4021e-18
3.09742e-18
2.23288e-18
2.25281e-18
1.27236e-18
7.61232e-19
1.30207e-18
3.45897e-18
4.70769e-18
3.55749e-18
4.13336e-18
2.10892e-18
2.3535e-18
2.00985e-18
1.42227e-18
2.5305e-18
2.28223e-18
1.95718e-18
1.9459e-18
1.77509e-18
1.77431e-18
2.193e-18
2.20893e-18
1.36103e-18
9.7072e-19
9.06115e-19
3.79434e-18
7.4312e-18
5.87087e-18
2.78368e-18
2.12797e-18
1.70471e-18
1.62077e-18
2.01373e-18
1.47394e-18
8.17971e-19
1.29353e-18
2.57629e-18
3.04198e-18
3.36495e-18
1.86007e-18
1.52993e-18
2.55272e-18
3.02118e-18
3.33828e-18
2.83025e-18
1.80439e-18
1.31829e-18
1.88697e-18
2.55246e-18
2.89329e-18
5.03434e-18
4.77393e-18
2.65858e-18
2.35594e-18
1.50878e-18
1.85516e-18
3.03251e-18
2.57577e-18
2.6248e-18
3.16929e-18
2.26827e-18
2.13552e-18
2.43765e-18
2.18517e-18
1.55151e-18
1.57754e-18
2.14958e-18
2.10412e-18
2.40988e-18
1.64106e-18
2.64998e-18
1.50427e-18
8.36292e-19
1.37669e-18
2.69511e-18
2.23951e-18
2.0261e-18
1.85142e-18
1.87095e-18
3.77812e-18
4.68278e-18
3.1628e-18
2.99728e-18
3.17736e-18
4.35711e-18
4.9475e-18
3.89512e-18
2.03854e-18
1.2705e-18
1.6079e-18
1.73583e-18
1.30585e-18
1.91758e-18
1.77422e-18
2.04802e-18
2.44282e-18
2.10471e-18
2.52313e-18
2.23147e-18
1.66155e-18
1.3065e-18
1.39033e-18
1.97323e-18
1.84309e-18
1.32042e-18
1.23351e-18
2.73766e-18
8.35643e-18
4.34756e-18
2.97429e-18
2.71199e-18
1.45384e-18
1.49681e-18
3.67156e-18
3.39518e-18
3.45375e-18
3.58005e-18
2.51034e-18
1.84024e-18
1.31155e-18
1.32336e-18
2.03325e-18
1.75816e-18
1.36765e-18
1.63365e-18
2.72883e-18
4.16151e-18
2.07299e-18
1.34712e-18
1.16802e-18
1.67624e-18
2.46017e-18
3.97581e-18
5.63158e-18
4.12628e-18
3.75625e-18
3.1387e-18
1.94715e-18
1.56908e-18
1.75378e-18
2.17924e-18
3.84311e-18
4.11223e-18
2.80161e-18
2.86743e-18
1.80523e-18
1.09569e-18
1.71911e-18
2.48662e-18
3.21666e-18
3.20893e-18
5.85003e-18
6.496e-18
4.62111e-18
3.03957e-18
3.12583e-18
3.60502e-18
2.69417e-18
2.80717e-18
3.99844e-18
3.61673e-18
3.12292e-18
2.51824e-18
1.50131e-18
1.25846e-18
2.36542e-18
2.55215e-18
2.97491e-18
3.07201e-18
1.09718e-18
1.0746e-18
1.30385e-18
2.61529e-18
1.82024e-18
1.76216e-18
2.57173e-18
4.06944e-18
3.93895e-18
2.27751e-18
2.42953e-18
3.64291e-18
3.50596e-18
2.7305e-18
2.67426e-18
1.27579e-18
1.11177e-18
2.08696e-18
1.47597e-18
1.43195e-18
1.18683e-18
2.76148e-18
2.38816e-18
1.8954e-18
2.21515e-18
1.60407e-18
2.72677e-18
2.86723e-18
2.79835e-18
2.25566e-18
2.65713e-18
1.71438e-18
1.79737e-18
2.25073e-18
2.06358e-18
2.65466e-18
2.15429e-18
1.69332e-18
2.25567e-18
4.05188e-18
2.07643e-18
3.4695e-18
3.53349e-18
2.24254e-18
1.07647e-18
5.54904e-19
1.58761e-18
3.5366e-18
1.15324e-18
2.64504e-18
4.03441e-18
3.78366e-18
2.59773e-18
4.4008e-18
3.51687e-18
1.19941e-18
1.79521e-18
2.97466e-18
5.71451e-18
3.23898e-18
2.1085e-18
2.43649e-18
2.07807e-18
2.83962e-18
1.17045e-18
7.78663e-19
2.29976e-18
1.93206e-18
1.53297e-18
2.8264e-19
1.56902e-18
5.87678e-19
7.13302e-19
2.37975e-18
1.4755e-18
8.89853e-19
1.5293e-18
6.30766e-19
7.71782e-19
4.09116e-19
9.96748e-19
1.88895e-18
8.64306e-19
2.61072e-18
2.18293e-18
2.51962e-18
3.43793e-18
9.55961e-19
1.11985e-18
1.4403e-18
2.35023e-18
2.1514e-18
2.38454e-18
1.09357e-18
4.97366e-19
1.00403e-18
1.04988e-18
3.93914e-19
1.11512e-18
6.64579e-19
3.59608e-18
1.04036e-18
1.15313e-18
1.38199e-18
1.32267e-18
2.6352e-18
1.15311e-18
1.23564e-18
1.79797e-18
2.77011e-18
2.8187e-18
1.62942e-18
1.95115e-18
9.81719e-19
1.13185e-18
1.70167e-18
1.7101e-18
1.34936e-18
1.42703e-18
1.8116e-18
4.02458e-18
2.11238e-18
9.43375e-19
1.80147e-18
2.0448e-18
1.15225e-18
1.87769e-18
2.16461e-18
1.57619e-18
1.09572e-18
1.66719e-18
1.28996e-18
8.43037e-19
2.09937e-18
9.47656e-19
1.60424e-18
3.65626e-18
2.09732e-18
1.51319e-18
2.70258e-18
4.4328e-18
2.39398e-18
3.54544e-18
2.99427e-18
1.37916e-18
1.65749e-18
3.97555e-18
2.13757e-18
1.51773e-18
1.10193e-18
1.16001e-18
2.1201e-18
2.23931e-18
1.5284e-18
1.59582e-18
2.66086e-18
3.08763e-18
2.59144e-18
4.87864e-18
2.94252e-18
1.90006e-18
1.01074e-18
2.1976e-18
3.64482e-18
1.46966e-18
1.12516e-18
1.42658e-18
5.24184e-19
6.67537e-19
1.38969e-18
6.02068e-19
1.01883e-18
1.75934e-18
3.10582e-18
3.88e-18
1.98232e-18
1.7089e-18
1.11912e-18
2.23633e-18
3.23964e-18
3.13856e-18
1.59763e-18
9.98822e-19
1.1067e-18
2.29972e-18
1.49276e-18
1.04737e-18
1.11209e-18
1.14934e-18
3.97792e-18
3.17755e-18
2.23992e-18
5.22765e-18
1.94511e-18
4.42637e-18
2.87792e-18
2.18269e-18
2.86538e-18
2.22473e-18
1.99913e-18
1.62827e-18
2.01281e-18
2.75417e-18
1.37726e-18
9.85825e-19
1.89321e-18
4.27144e-18
1.88293e-18
2.49286e-18
2.1308e-18
2.51105e-18
1.92483e-18
1.71016e-18
3.02265e-18
3.20816e-18
1.61192e-18
1.61719e-18
3.00229e-18
3.25483e-18
2.43081e-18
1.30143e-18
1.54839e-18
1.69703e-18
2.91351e-18
1.8004e-18
2.47818e-18
1.53389e-18
1.48032e-18
2.55638e-18
2.52988e-18
4.10738e-18
4.12865e-18
3.0558e-18
1.50004e-18
1.89412e-18
1.69817e-18
1.46207e-18
1.53285e-18
1.58925e-18
1.34019e-18
1.74121e-18
1.43756e-18
1.25594e-18
3.05002e-18
3.21724e-18
2.24904e-18
1.44639e-18
2.55457e-18
2.16941e-18
2.47583e-18
3.99944e-18
2.77737e-18
1.27919e-18
1.2958e-18
1.60621e-18
4.76199e-18
8.60522e-18
6.4838e-18
3.39096e-18
1.59312e-18
2.23813e-18
3.30681e-18
2.16054e-18
1.80187e-18
1.73838e-18
1.41442e-18
1.40176e-18
2.53042e-18
2.8272e-18
2.50387e-18
2.4698e-18
2.02908e-18
2.23499e-18
2.81523e-18
3.05437e-18
1.81273e-18
1.46324e-18
2.01647e-18
2.40513e-18
2.4411e-18
2.28845e-18
3.14294e-18
3.02639e-18
2.23349e-18
2.23212e-18
2.05384e-18
2.34321e-18
2.83014e-18
3.12902e-18
1.88996e-18
1.12092e-18
9.37118e-19
1.15847e-18
1.76286e-18
2.58127e-18
2.01262e-18
1.73833e-18
1.69034e-18
2.3674e-18
2.66048e-18
2.20026e-18
8.80497e-19
7.64168e-19
1.87108e-18
2.48218e-18
1.94692e-18
1.70086e-18
1.84624e-18
2.06616e-18
2.29277e-18
2.61982e-18
1.80373e-18
1.82123e-18
2.94553e-18
3.37865e-18
3.83535e-18
2.81345e-18
3.48646e-18
3.16642e-18
1.71818e-18
1.42946e-18
2.10324e-18
2.69985e-18
2.61308e-18
2.21786e-18
1.77765e-18
1.63074e-18
1.43228e-18
1.62829e-18
1.34319e-18
2.36886e-18
4.21513e-18
3.04553e-18
2.25645e-18
1.53708e-18
1.94777e-18
3.56276e-18
5.34145e-18
4.28641e-18
2.63017e-18
2.51563e-18
2.28267e-18
2.29871e-18
2.30069e-18
4.13301e-18
4.35377e-18
3.29166e-18
2.71415e-18
1.74957e-18
2.29227e-18
2.56267e-18
3.23862e-18
3.29675e-18
3.38725e-18
2.6957e-18
2.33827e-18
1.94661e-18
2.00528e-18
3.1829e-18
3.50964e-18
2.60167e-18
2.55241e-18
3.0457e-18
3.94719e-18
2.60445e-18
1.96789e-18
1.86087e-18
1.59247e-18
1.43818e-18
9.09113e-19
1.20661e-18
1.85208e-18
2.98835e-18
3.31666e-18
2.53383e-18
1.96504e-18
2.4711e-18
1.63754e-18
2.49362e-18
4.19279e-18
4.02073e-18
3.80783e-18
4.79883e-18
4.26501e-18
2.14451e-18
1.23771e-18
1.23858e-18
1.8996e-18
2.50227e-18
2.22132e-18
2.3004e-18
1.59237e-18
1.39599e-18
1.28364e-18
1.58908e-18
2.3502e-18
3.43334e-18
2.1152e-18
1.65278e-18
2.14009e-18
1.85975e-18
6.74772e-19
1.0774e-18
1.80373e-18
1.9111e-18
2.1161e-18
3.12742e-18
3.02606e-18
2.35719e-18
2.08231e-18
2.83323e-18
3.13724e-18
1.51969e-18
1.81668e-18
3.54525e-18
3.44209e-18
1.84063e-18
1.69511e-18
2.48641e-18
3.40916e-18
3.16527e-18
2.05022e-18
3.11229e-18
4.46135e-18
2.12961e-18
2.30933e-18
2.25814e-18
2.22497e-18
2.77801e-18
2.08614e-18
1.81361e-18
1.93531e-18
3.15421e-18
1.419e-18
2.1925e-18
2.72845e-18
1.38473e-18
9.51236e-19
1.10045e-18
3.30554e-18
5.41565e-18
5.20912e-18
2.54685e-18
4.92627e-18
3.2157e-18
2.78878e-18
2.65455e-18
4.56535e-18
1.26025e-18
1.87918e-18
2.61994e-18
3.0371e-18
2.21223e-18
7.22326e-19
1.90953e-18
1.18377e-18
5.55094e-19
1.87592e-18
2.80309e-18
2.13911e-18
3.38192e-18
3.58996e-18
1.70949e-18
3.0127e-18
1.12886e-18
1.92655e-18
6.51731e-18
5.13168e-18
1.49484e-18
8.51262e-19
1.10419e-18
9.64792e-19
9.00666e-19
1.14759e-18
1.58856e-18
2.00944e-18
4.63864e-18
1.96484e-18
1.73406e-18
1.10338e-18
1.34601e-18
8.54847e-19
1.84701e-18
2.17098e-18
1.70627e-18
1.10993e-18
1.27323e-18
8.14815e-19
1.40399e-18
9.75169e-19
3.05206e-18
5.10576e-18
1.26704e-18
9.39477e-19
1.09431e-18
2.37718e-18
2.66742e-18
9.72932e-19
2.11963e-18
1.07387e-18
2.51042e-18
1.50192e-18
1.72158e-18
5.9919e-19
1.25582e-18
1.09973e-18
3.37036e-18
2.78891e-18
2.98359e-18
1.22906e-18
1.64223e-18
3.06888e-18
2.85115e-18
1.14168e-18
1.14639e-18
1.77187e-18
1.0483e-18
8.10835e-19
1.47889e-18
1.16627e-18
2.17905e-18
3.13284e-18
1.09078e-18
1.88506e-18
2.54199e-18
1.41154e-18
1.39734e-18
2.25675e-18
1.17171e-18
1.1921e-18
1.00836e-18
7.94707e-19
1.33669e-18
2.36142e-18