/*--------------------------------*- C++ -*----------------------------------*\
  =========                 |
  \\      /  F ield         | OpenFOAM: The Open Source CFD Toolbox
   \\    /   O peration     | Website:  https://openfoam.org
    \\  /    A nd           | Version:  7
     \\/     M anipulation  |
\*---------------------------------------------------------------------------*/
FoamFile
{
    version     2.0;
    format      ascii;
    class       volScalarField;
    location    "1500";
    object      k2Write;
}
// * * * * * * * * * * * * * * * * * * * * * * * * * * * * * * * * * * * * * //

dimensions      [0 2 0 0 0 0 0];

internalField   nonuniform List<scalar> 
160000
(
1.47007e-18
2.07686e-18
2.06272e-18
2.82904e-18
4.11478e-18
2.00135e-18
3.29625e-18
1.21607e-18
2.14183e-18
4.35664e-18
3.33479e-18
2.33557e-18
4.48771e-18
3.68365e-18
1.27614e-18
2.07113e-18
1.48071e-18
1.43995e-18
2.51928e-18
2.53538e-18
2.75635e-18
2.30024e-18
2.4876e-18
3.83709e-18
3.5801e-18
4.91412e-18
3.88779e-18
2.40869e-18
2.94527e-18
1.64282e-18
1.62587e-18
3.18713e-18
7.01422e-18
3.41251e-18
2.8757e-18
3.71291e-18
3.18505e-18
4.76883e-18
1.30543e-18
2.17842e-18
3.06442e-18
3.0236e-18
3.72701e-18
1.63069e-18
3.0949e-18
2.98026e-18
2.51865e-18
1.81487e-18
3.47177e-18
2.01136e-18
2.90739e-18
5.18953e-18
3.32862e-18
2.42289e-18
4.64418e-18
1.75924e-18
5.45195e-18
1.55989e-18
1.28985e-18
1.80288e-18
8.05378e-18
2.2238e-18
2.13716e-18
1.66996e-18
1.22867e-18
5.2865e-18
3.47299e-18
4.40769e-18
1.13236e-18
4.85081e-19
4.65597e-18
1.42071e-18
3.98593e-18
1.88005e-18
3.20108e-18
2.49623e-18
3.50188e-18
2.22754e-18
4.52901e-18
2.57516e-18
4.85424e-18
6.42784e-18
3.20132e-18
2.56571e-18
2.47429e-18
2.15611e-18
2.19033e-18
1.38838e-18
2.14121e-18
3.68259e-18
1.37782e-18
4.47546e-18
5.33593e-18
4.42455e-18
3.2133e-18
1.49746e-18
2.57177e-18
1.88175e-18
2.00768e-18
1.26677e-18
2.39156e-18
9.58669e-19
3.83391e-18
2.02074e-18
1.18538e-18
3.08078e-18
1.15315e-18
2.67852e-18
3.29145e-18
3.18187e-18
4.42424e-18
1.33417e-18
4.68598e-18
2.16302e-18
1.82931e-18
2.70282e-18
1.56641e-18
2.08487e-18
4.10522e-18
2.8574e-18
2.32527e-18
1.54108e-18
2.86018e-18
3.38888e-18
4.13214e-18
7.56519e-18
5.60841e-18
2.11785e-18
3.03189e-18
3.2349e-18
2.22727e-18
1.73627e-18
2.6789e-18
6.24009e-18
3.65424e-18
3.07415e-18
1.79466e-18
2.53916e-18
1.60322e-18
1.04228e-18
3.07467e-18
4.23316e-18
7.86833e-19
2.71836e-18
5.53535e-18
2.67497e-18
2.95222e-18
2.83802e-18
2.58532e-18
1.55876e-18
1.13924e-18
2.03568e-18
1.21323e-18
3.25743e-18
1.0555e-18
2.48009e-18
2.47785e-18
4.83011e-18
3.07113e-18
3.75528e-18
1.95449e-18
2.46259e-18
1.76122e-18
4.25699e-18
1.13836e-18
3.03095e-18
2.8834e-18
1.56764e-18
2.23279e-18
1.49082e-18
4.67372e-18
6.90444e-18
2.35587e-18
6.87137e-18
3.49421e-18
1.69767e-18
2.32505e-18
2.51746e-18
5.8092e-18
4.99864e-18
1.07028e-18
3.72133e-18
1.53624e-18
1.10394e-18
1.19248e-18
1.32449e-18
1.64515e-18
1.60799e-18
1.12581e-18
2.08685e-18
2.88111e-18
1.98255e-18
2.94994e-18
3.96462e-18
6.60599e-18
8.6467e-19
2.20831e-18
6.06049e-18
7.6662e-18
9.05474e-18
7.51517e-18
4.08552e-18
3.00596e-18
2.32699e-18
2.75233e-18
4.42926e-18
2.82589e-18
2.94893e-18
3.60939e-18
3.29023e-18
3.70594e-18
3.73968e-18
2.178e-18
2.23868e-18
3.35804e-18
2.34637e-18
1.51906e-18
3.18142e-18
5.43636e-18
3.67273e-18
4.4743e-18
2.85337e-18
1.08836e-18
1.29911e-18
1.44528e-18
1.62678e-18
2.69056e-18
1.07311e-18
2.97452e-18
1.87913e-18
6.01925e-19
1.94696e-18
1.27292e-18
2.30242e-18
2.12984e-18
2.90575e-18
1.2849e-18
2.4623e-18
1.16981e-18
2.27515e-18
1.5851e-18
1.24749e-18
1.92837e-18
1.32999e-18
2.23193e-18
2.05917e-18
2.78397e-18
2.6314e-18
7.41868e-18
4.03538e-18
5.04054e-18
3.73203e-18
1.78419e-18
1.32175e-18
1.3765e-18
3.04706e-18
1.85857e-18
1.17935e-18
2.49336e-18
8.75505e-18
8.18707e-18
2.42741e-18
1.85466e-18
1.08722e-18
1.92736e-18
3.33022e-18
3.13934e-18
1.55209e-18
2.8554e-18
6.6111e-18
1.59484e-18
1.56074e-18
2.18928e-18
1.75874e-18
1.56948e-18
1.42243e-18
2.73029e-18
5.29836e-18
1.8801e-18
2.24718e-18
1.61379e-18
1.90749e-18
2.17299e-18
2.43964e-18
2.31379e-18
1.8798e-18
3.92555e-18
1.71089e-18
2.76319e-18
2.99679e-18
2.97649e-18
7.67307e-19
1.72784e-18
2.11698e-18
2.84876e-18
3.26631e-18
3.47884e-18
8.29733e-19
2.75885e-18
1.41504e-18
2.84053e-18
4.42806e-18
9.09027e-18
8.31082e-18
5.95098e-18
3.18469e-18
2.99899e-18
2.64608e-18
1.72217e-18
2.63108e-18
2.69296e-18
1.64504e-18
2.25948e-18
3.94157e-18
2.4304e-18
3.64109e-18
3.70057e-18
1.65187e-18
1.61908e-18
2.26362e-18
1.36388e-18
1.8442e-18
1.75575e-18
3.92057e-18
2.85187e-18
2.99068e-18
3.79415e-18
3.3268e-18
2.36882e-18
2.33536e-18
1.63213e-18
2.67077e-18
1.93686e-18
2.33208e-18
2.30859e-18
2.26194e-18
2.70057e-18
3.9503e-18
1.02038e-17
2.97822e-18
1.16479e-18
2.19482e-18
2.6089e-18
1.75267e-18
3.61541e-18
9.95249e-19
1.3181e-18
2.28668e-18
2.12099e-18
2.52699e-18
2.38061e-18
1.56747e-18
3.34482e-18
1.70962e-18
2.12398e-18
1.98582e-18
2.89113e-18
2.40944e-18
2.21784e-18
1.50515e-18
1.70651e-18
1.76985e-18
2.75481e-18
1.8107e-18
3.58465e-18
3.29798e-18
2.01441e-18
9.0555e-18
4.30793e-18
1.96886e-18
1.52293e-18
2.43689e-18
2.49033e-18
7.9784e-18
1.57092e-18
5.051e-18
1.79432e-18
1.85343e-18
1.26329e-18
1.53216e-18
1.67915e-18
1.6374e-18
1.63948e-18
2.63811e-18
3.20961e-18
3.466e-18
4.14891e-18
3.73369e-18
2.51591e-18
2.01165e-18
2.68296e-18
2.06905e-18
3.22396e-18
2.40417e-18
1.42974e-18
5.61448e-18
4.24544e-18
1.29413e-18
9.3332e-18
5.48311e-18
6.14352e-18
1.43507e-18
1.89366e-18
1.89996e-18
1.63503e-18
2.1287e-18
3.35159e-18
2.44278e-18
2.49341e-18
2.89837e-18
3.36554e-18
1.94908e-18
2.23975e-18
2.68892e-18
4.1294e-18
1.6841e-18
1.90015e-18
6.02867e-18
5.69159e-18
3.82226e-18
2.17931e-18
2.28981e-18
3.54239e-18
3.42515e-18
1.48505e-18
2.16173e-18
6.22627e-18
5.05176e-18
2.45015e-18
4.0882e-18
3.41403e-18
2.24397e-18
2.90123e-18
2.26868e-18
1.60869e-18
3.29587e-18
4.89431e-18
5.43137e-19
2.88177e-18
6.08197e-18
3.25256e-18
2.08344e-18
4.00801e-18
1.25862e-18
3.04546e-18
4.8579e-18
2.42605e-18
1.47176e-18
3.20385e-18
5.34026e-18
2.33469e-18
2.61908e-18
1.89309e-18
6.9116e-18
1.01522e-18
2.54463e-18
3.21726e-18
1.70065e-18
2.12974e-18
2.24978e-18
2.37e-18
3.03315e-18
1.80333e-18
1.54484e-18
2.7025e-18
2.49045e-18
1.31486e-18
4.30912e-18
3.92584e-18
6.03168e-18
5.52915e-18
3.56273e-18
1.40178e-18
2.34262e-18
2.18636e-18
3.52352e-18
2.15757e-18
2.25879e-18
1.92005e-18
4.21139e-18
3.46971e-18
2.64837e-18
2.73015e-18
2.67665e-18
6.53178e-18
6.51964e-18
1.74127e-18
2.09436e-18
2.41148e-18
3.54573e-18
4.58748e-18
3.08877e-18
6.3654e-18
4.14456e-18
1.82358e-18
3.27711e-18
2.51583e-18
3.27139e-18
2.99437e-18
1.63605e-18
3.63607e-18
2.62148e-18
1.23945e-18
5.65469e-18
2.93618e-18
1.58268e-18
3.61167e-18
4.99992e-18
3.15794e-18
3.63792e-18
3.00273e-18
1.32742e-18
1.75189e-18
1.57383e-18
2.01085e-18
2.26392e-18
2.27118e-18
2.86265e-18
3.18325e-18
5.57539e-18
5.48388e-18
2.54365e-18
2.59466e-18
2.58789e-18
2.32964e-18
2.71969e-18
2.63376e-18
1.73211e-18
2.83293e-18
2.0935e-18
1.97288e-18
7.93555e-19
5.53096e-18
6.33354e-18
3.49028e-18
1.19626e-18
6.48648e-18
1.99753e-18
1.25336e-18
1.70833e-18
2.71194e-18
3.59973e-18
2.97614e-18
3.68029e-18
4.01196e-18
1.64095e-18
2.83413e-18
2.13595e-18
1.94994e-18
1.21211e-18
5.66704e-18
1.26134e-18
1.38779e-18
2.16846e-18
2.23985e-18
3.71891e-18
1.89773e-18
3.51992e-18
1.68823e-18
3.3965e-18
2.79951e-18
3.85119e-18
2.77112e-18
2.29451e-18
1.88337e-18
2.89549e-18
4.64442e-18
2.11382e-18
3.1323e-18
2.71762e-18
2.80911e-18
2.52824e-18
1.12093e-18
5.52159e-18
2.26951e-18
2.64725e-18
2.98136e-18
2.02972e-18
2.64868e-18
1.99622e-18
1.66105e-18
2.35366e-18
1.42419e-18
7.14957e-19
2.41777e-18
1.86832e-18
2.30724e-18
1.16071e-18
1.90743e-18
4.91817e-18
5.40575e-18
4.03303e-18
2.77753e-18
6.05558e-18
2.58947e-18
4.13634e-18
7.70473e-18
9.00711e-18
8.07536e-18
5.45869e-18
4.5876e-18
2.99573e-18
2.43395e-18
3.2112e-18
7.01437e-18
7.15152e-18
3.69221e-18
2.71145e-18
2.50403e-18
3.38818e-18
2.53924e-18
1.61212e-18
2.13733e-18
2.70806e-18
1.76247e-18
1.85465e-18
2.34649e-18
3.10837e-18
3.03416e-18
1.60201e-18
1.32141e-18
7.03889e-19
1.29767e-18
1.39404e-18
2.48204e-18
2.58661e-18
3.61296e-18
1.45568e-18
3.09936e-18
2.03452e-18
2.22519e-18
2.2039e-18
6.95772e-18
5.94301e-18
1.51004e-18
1.79047e-18
2.42112e-18
2.75127e-18
1.34403e-18
1.94495e-18
1.22756e-18
1.10831e-18
3.03223e-18
2.90418e-18
9.53333e-19
3.81435e-18
4.87873e-18
6.69573e-18
8.34043e-18
6.5936e-18
4.29934e-18
3.91857e-18
5.21626e-18
2.2657e-18
2.04198e-18
3.46984e-18
1.68006e-18
3.09715e-18
5.50163e-18
5.99453e-18
1.5901e-18
1.44907e-18
1.79208e-18
1.83125e-18
3.57971e-18
4.00955e-18
9.84533e-19
2.1781e-18
6.91336e-18
4.55404e-18
1.77778e-18
3.33233e-18
3.03846e-18
1.28105e-18
1.65426e-18
1.97384e-18
4.78859e-18
4.22113e-18
1.88778e-18
1.77431e-18
2.3629e-18
2.45973e-18
3.26902e-18
5.07418e-18
4.02801e-18
2.59552e-18
1.8781e-18
1.47873e-18
1.572e-18
1.91226e-18
9.7133e-19
1.91576e-18
3.28972e-18
3.76791e-18
8.84801e-19
2.27381e-18
3.19272e-18
2.13566e-18
2.41833e-18
7.12023e-18
5.91508e-18
6.88843e-18
4.44133e-18
2.74469e-18
2.19258e-18
1.66733e-18
1.68904e-18
2.30656e-18
1.51778e-18
2.13773e-18
1.91412e-18
1.88914e-18
3.13631e-18
4.23651e-18
4.23027e-18
2.39823e-18
1.05152e-18
1.15017e-18
1.90162e-18
1.85972e-18
1.83757e-18
1.5909e-18
3.19764e-18
7.812e-18
4.92956e-18
2.93385e-18
4.14886e-18
6.96921e-18
2.74697e-18
1.87641e-18
2.94882e-18
2.36562e-18
1.62812e-18
3.1627e-18
2.90544e-18
1.87245e-18
2.36428e-18
3.33296e-18
2.44131e-18
1.94678e-18
2.1567e-18
3.9924e-18
2.52655e-18
2.44403e-18
1.84333e-18
2.26504e-18
1.74051e-18
2.33999e-18
2.16993e-18
2.56741e-18
1.40302e-18
1.85163e-18
1.74022e-18
3.21679e-18
1.68945e-18
1.50811e-18
1.80178e-18
1.82018e-18
1.53108e-18
1.67168e-18
1.73113e-18
2.38212e-18
2.02983e-18
2.13889e-18
4.60988e-18
3.11022e-18
4.45689e-18
4.97268e-18
1.8903e-18
1.64218e-18
1.71822e-18
1.08568e-18
1.82314e-18
1.35472e-18
2.52237e-18
1.22793e-18
2.30492e-18
3.08541e-18
1.53866e-18
2.22442e-18
3.87917e-18
7.56147e-19
5.70284e-18
2.00034e-18
9.83145e-19
3.5734e-18
2.04584e-18
1.57406e-18
2.20772e-18
3.67773e-18
1.62461e-18
2.64098e-18
4.10615e-18
2.09074e-18
1.5238e-18
5.03616e-18
1.46375e-18
3.53383e-18
1.74436e-18
4.89004e-18
1.09864e-18
8.5608e-19
2.61593e-18
9.62601e-19
3.76468e-18
1.16135e-18
2.22366e-18
3.8211e-18
1.56736e-18
3.83803e-18
6.32784e-18
3.43817e-18
2.07803e-18
4.00449e-18
6.78999e-18
3.09361e-18
6.82275e-18
4.89367e-18
2.15158e-18
3.97401e-18
2.41926e-18
2.85305e-18
1.8794e-18
1.35603e-18
1.38497e-18
1.9729e-18
2.36601e-18
2.51954e-18
6.38844e-18
2.73967e-18
2.24995e-18
3.25453e-18
3.31491e-18
3.95474e-18
1.46569e-18
1.90509e-18
2.47734e-18
1.83047e-18
1.78275e-18
2.13692e-18
2.67751e-18
2.62093e-18
2.74428e-18
2.25031e-18
7.71927e-18
1.98509e-18
1.48736e-18
1.50729e-18
3.154e-18
6.4199e-18
2.77282e-18
1.65582e-18
1.67958e-18
2.06149e-18
2.74255e-18
2.86807e-18
5.43697e-18
4.30158e-18
7.68211e-18
2.049e-18
2.03814e-18
2.1826e-18
4.55837e-18
1.54362e-18
1.79885e-18
4.37826e-18
1.58624e-18
1.50271e-18
8.92238e-19
2.30512e-18
9.0396e-19
3.57618e-18
3.02435e-18
1.04745e-18
1.48998e-18
2.56873e-18
2.57463e-18
3.5178e-18
5.7669e-18
2.63899e-18
3.611e-18
4.44171e-18
4.50041e-18
1.73062e-18
3.17726e-18
1.92475e-18
3.69086e-18
4.10546e-18
1.87488e-18
1.3694e-18
3.59134e-18
1.87668e-18
1.09147e-18
2.45066e-18
1.06662e-18
8.75723e-19
1.84368e-18
2.18718e-18
2.42867e-18
1.76347e-18
1.53937e-18
3.30301e-18
1.72501e-18
2.47643e-18
3.72524e-18
2.75754e-18
2.64828e-18
1.55368e-18
2.33921e-18
3.76321e-18
2.01681e-18
2.44163e-18
1.8511e-18
1.187e-18
2.60692e-18
1.87051e-18
2.20017e-18
2.88339e-18
2.72426e-18
2.35082e-18
1.60788e-18
1.58174e-18
2.0713e-18
1.76614e-18
1.55175e-18
1.68848e-18
1.29105e-18
2.07996e-18
2.22806e-18
1.36459e-18
1.95611e-18
4.17988e-18
4.28414e-18
2.39577e-18
2.47902e-18
1.97585e-18
2.32802e-18
2.79534e-18
2.01898e-18
2.02985e-18
3.31927e-18
9.0639e-18
3.21145e-18
2.89968e-18
4.51017e-18
2.42243e-18
2.22151e-18
2.40768e-18
2.27156e-18
1.6138e-18
3.0452e-18
1.78218e-18
2.19458e-18
6.27239e-18
5.59917e-18
1.5057e-18
2.69185e-18
2.41153e-18
2.04234e-18
1.95822e-18
1.2388e-18
2.54137e-18
2.24344e-18
2.29689e-18
2.27862e-18
2.4347e-18
2.44526e-18
2.02335e-18
3.19376e-18
4.9937e-18
3.95954e-18
3.98021e-18
3.00967e-18
1.6967e-18
8.19676e-19
1.86097e-18
3.56597e-18
3.17649e-18
1.5888e-18
1.84546e-18
1.52996e-18
1.06994e-18
1.30529e-18
2.00178e-18
1.50542e-18
1.83999e-18
1.96326e-18
3.19049e-18
5.5556e-18
1.04426e-17
5.18172e-18
2.80628e-18
3.46246e-18
4.19091e-18
3.63282e-18
5.66316e-18
4.57675e-18
3.55097e-18
4.03415e-18
2.87717e-18
2.36679e-18
2.7805e-18
3.28396e-18
3.73215e-18
2.50662e-18
2.49063e-18
1.50057e-18
2.03353e-18
2.85166e-18
1.78845e-18
1.25861e-18
1.84147e-18
2.53294e-18
1.54267e-18
1.47853e-18
1.9562e-18
2.42411e-18
2.14644e-18
1.51021e-18
1.32579e-18
1.70747e-18
2.02048e-18
1.86771e-18
2.48757e-18
2.31621e-18
2.65237e-18
1.66165e-18
2.15691e-18
3.93322e-18
1.84833e-18
1.41874e-18
2.37928e-18
3.60388e-18
1.43556e-18
2.76057e-18
3.4064e-18
1.46631e-18
1.23713e-18
1.45733e-18
3.02233e-18
3.52619e-18
2.39899e-18
3.40961e-18
1.96421e-18
3.54938e-18
3.5449e-18
9.3911e-18
8.77006e-18
3.3324e-18
2.54418e-18
2.68685e-18
2.88016e-18
2.61776e-18
1.74122e-18
1.84035e-18
2.09177e-18
1.63614e-18
2.24341e-18
2.75723e-18
1.85841e-18
1.62048e-18
2.51038e-18
1.88811e-18
2.3463e-18
2.49877e-18
2.32989e-18
2.77845e-18
4.29635e-18
2.62663e-18
1.35953e-18
1.28362e-18
2.43334e-18
2.55531e-18
2.26423e-18
3.23781e-18
2.50441e-18
4.19011e-18
4.2181e-18
1.9953e-18
3.51933e-18
2.85376e-18
4.38627e-18
2.95581e-18
2.16309e-18
1.22752e-18
1.96127e-18
1.9415e-18
1.83839e-18
2.08326e-18
2.10008e-18
2.82855e-18
2.0382e-18
1.5699e-18
1.96607e-18
3.90681e-18
8.32376e-18
5.09954e-18
2.25631e-18
6.60953e-18
6.44265e-18
4.54106e-18
2.30434e-18
1.65647e-18
1.93197e-18
2.97359e-18
3.55026e-18
2.91983e-18
1.68869e-18
1.65824e-18
2.62489e-18
2.39876e-18
2.22011e-18
2.61584e-18
2.72878e-18
1.47087e-18
1.12175e-18
2.01486e-18
2.4975e-18
2.10559e-18
1.97511e-18
2.53739e-18
3.88709e-18
5.07066e-18
4.48666e-18
2.09261e-18
2.25978e-18
2.34697e-18
1.95196e-18
1.73889e-18
1.72279e-18
2.5949e-18
2.87848e-18
1.20363e-18
1.91229e-18
1.47434e-18
1.25291e-18
1.90967e-18
2.1724e-18
1.9181e-18
2.3626e-18
2.12597e-18
1.72605e-18
3.36111e-18
3.42145e-18
2.11233e-18
2.99151e-18
3.9656e-18
2.30962e-18
9.60403e-19
1.05725e-18
2.42841e-18
2.06596e-18
4.08093e-18
2.96146e-18
1.41663e-18
1.88565e-18
3.0917e-18
3.29395e-18
1.51372e-18
8.48081e-19
1.51005e-18
2.42774e-18
3.7704e-18
3.20762e-18
2.90021e-18
1.03227e-18
1.7904e-18
2.13972e-18
1.3766e-18
1.95998e-18
2.68382e-18
3.58207e-18
3.23758e-18
3.45531e-18
3.23732e-18
2.53688e-18
2.1415e-18
1.51567e-18
1.71281e-18
2.93885e-18
1.32889e-18
1.87267e-18
2.5582e-18
3.11984e-18
1.72712e-18
1.26552e-18
2.88707e-18
2.82037e-18
3.02925e-18
2.32486e-18
1.3746e-18
3.35057e-18
3.12174e-18
2.24442e-18
3.13733e-18
2.88265e-18
1.65345e-18
3.96465e-18
3.57045e-18
2.39689e-18
5.00666e-18
4.53555e-18
4.83689e-18
5.29278e-18
5.66356e-18
5.21818e-18
3.46229e-18
5.60842e-18
3.60835e-18
5.10233e-18
2.18769e-18
2.48438e-18
2.70662e-18
1.92387e-18
5.9929e-18
3.70891e-18
5.16542e-18
4.36584e-18
3.24966e-18
3.46073e-18
1.64541e-18
6.53676e-18
1.65655e-18
2.97989e-18
6.60567e-18
1.48319e-18
1.91823e-18
3.42825e-18
2.17358e-18
6.95259e-19
1.36571e-18
1.78525e-18
2.77579e-18
3.45464e-18
4.17809e-18
3.05936e-18
4.07317e-18
9.00601e-19
2.15547e-18
5.86526e-18
5.84702e-18
3.328e-18
2.96875e-18
3.14864e-18
4.2747e-18
2.90704e-18
3.18248e-18
2.10439e-18
2.70815e-18
1.76525e-18
5.30839e-18
3.74259e-18
1.01783e-18
3.69286e-18
2.72131e-18
1.96046e-18
1.68836e-18
2.58084e-18
2.03591e-18
3.9935e-18
2.52933e-18
5.2261e-18
2.48265e-18
1.93581e-18
2.22568e-18
2.60197e-18
2.47869e-18
1.88842e-18
2.86742e-18
3.96733e-18
1.0569e-18
1.35392e-18
1.76526e-18
3.52376e-18
6.06598e-18
4.45659e-18
1.67855e-18
4.22754e-18
2.50998e-18
8.00285e-19
4.64414e-18
2.94075e-18
2.55716e-18
1.8836e-18
5.08432e-18
4.77308e-18
4.25124e-18
5.37235e-18
2.37743e-18
6.57547e-18
1.63045e-18
4.03896e-18
2.39882e-18
2.38036e-18
1.55253e-18
4.15556e-18
1.55498e-18
1.62987e-18
2.5224e-18
5.54e-18
2.27152e-18
2.6842e-18
3.60183e-18
2.47118e-18
3.71345e-18
4.44524e-18
3.26586e-18
2.55712e-18
2.66654e-18
3.01566e-18
1.63945e-18
3.76055e-18
2.49996e-18
1.68334e-18
1.8592e-18
2.81604e-18
2.82078e-18
4.288e-18
4.0621e-18
2.00033e-18
2.05719e-18
1.99427e-18
3.15648e-18
1.06554e-18
3.12591e-18
3.32318e-18
3.77695e-18
2.06138e-18
1.71517e-18
2.39959e-18
1.97654e-18
3.36515e-18
2.17262e-18
2.37556e-18
2.59627e-18
1.29609e-18
2.57079e-18
2.6922e-18
2.0763e-18
2.23737e-18
3.72785e-18
1.00328e-18
2.1045e-18
3.4802e-18
3.31419e-18
4.4198e-18
2.50467e-18
1.82007e-18
1.31849e-18
4.23808e-18
2.05453e-18
2.52707e-18
1.53084e-18
1.4929e-18
2.0478e-18
1.943e-18
3.88135e-18
3.34415e-18
1.59858e-18
2.61247e-18
2.52934e-18
2.70321e-18
2.96204e-18
2.93561e-18
1.76912e-18
2.12402e-18
2.55748e-18
3.67352e-18
5.23009e-18
6.23209e-18
4.18054e-18
2.12504e-18
2.46484e-18
3.74733e-18
2.6882e-18
2.89214e-18
2.96546e-18
1.59785e-18
1.32559e-18
2.11489e-18
2.48747e-18
8.99179e-19
8.58097e-19
1.96234e-18
2.36445e-18
2.45052e-18
2.61455e-18
5.16107e-18
7.13862e-18
3.95043e-18
2.65978e-18
3.78653e-18
5.36183e-18
3.94806e-18
3.27778e-18
2.46577e-18
2.62578e-18
3.75469e-18
2.89112e-18
2.76636e-18
1.8671e-18
1.46608e-18
2.23723e-18
3.03191e-18
2.09271e-18
2.56866e-18
1.87162e-18
2.54901e-18
2.45049e-18
1.33073e-18
1.48691e-18
3.29158e-18
3.10894e-18
2.03821e-18
2.05573e-18
1.96088e-18
1.51899e-18
1.70937e-18
1.47985e-18
1.87786e-18
2.78994e-18
2.83754e-18
3.11192e-18
3.34928e-18
2.62858e-18
2.55701e-18
1.80062e-18
1.63922e-18
1.66754e-18
1.56361e-18
2.0151e-18
1.73317e-18
8.90113e-19
1.33623e-18
1.27405e-18
1.35432e-18
1.86647e-18
2.4897e-18
1.66092e-18
1.60614e-18
1.3725e-18
1.00982e-18
2.24352e-18
2.59216e-18
3.21295e-18
5.07842e-18
6.7582e-18
4.89895e-18
2.54438e-18
2.29785e-18
2.11492e-18
3.59027e-18
1.27753e-18
1.45657e-18
2.4129e-18
1.9239e-18
2.65829e-18
3.20896e-18
2.68807e-18
1.81967e-18
1.72045e-18
2.40453e-18
2.95649e-18
3.01551e-18
2.48629e-18
2.43678e-18
1.83883e-18
2.94909e-18
2.62473e-18
3.4104e-18
6.45089e-18
3.53988e-18
1.29829e-18
9.29835e-19
1.36392e-18
2.14329e-18
3.00687e-18
2.71082e-18
3.00212e-18
2.40726e-18
2.08152e-18
1.95456e-18
2.1501e-18
2.74184e-18
3.01798e-18
1.61369e-18
1.45578e-18
1.61808e-18
3.38695e-18
3.39109e-18
1.64612e-18
2.07986e-18
2.86819e-18
4.66395e-18
6.47489e-18
4.23161e-18
2.8033e-18
4.22177e-18
5.31095e-18
2.84428e-18
1.8417e-18
1.22357e-18
2.05629e-18
3.10541e-18
1.97864e-18
1.84473e-18
2.69185e-18
2.30353e-18
2.44737e-18
2.96765e-18
1.8915e-18
1.93336e-18
2.85726e-18
2.71833e-18
2.22843e-18
2.28484e-18
1.64861e-18
1.0124e-18
2.04699e-18
2.36136e-18
2.55424e-18
2.49407e-18
2.26721e-18
1.88986e-18
1.36532e-18
1.74269e-18
1.5777e-18
1.82864e-18
2.78595e-18
1.49307e-18
1.78412e-18
2.04253e-18
2.19701e-18
2.17415e-18
4.20723e-18
2.24699e-18
3.23704e-18
4.41729e-18
2.91693e-18
1.64805e-18
2.18623e-18
1.79645e-18
1.6542e-18
3.49254e-18
3.59552e-18
2.60252e-18
1.31134e-18
1.71765e-18
1.27221e-18
1.21112e-18
1.48764e-18
1.31242e-18
1.57181e-18
2.56026e-18
1.6567e-18
2.55767e-18
1.78508e-18
2.83285e-18
3.00454e-18
3.04042e-18
1.85598e-18
2.48396e-18
2.43177e-18
2.26967e-18
3.97281e-18
1.00124e-18
1.58937e-18
1.53969e-18
1.30355e-18
2.67928e-18
2.18417e-18
1.56018e-18
2.65338e-18
2.06869e-18
2.63204e-18
2.82592e-18
1.24932e-18
9.38354e-19
2.34558e-18
3.59402e-18
2.64928e-18
7.43266e-19
4.83813e-18
4.27925e-18
2.35353e-18
1.45866e-18
1.97974e-18
3.37869e-18
1.50741e-18
3.68837e-18
2.08099e-18
1.37336e-18
1.0419e-18
2.23659e-18
1.64832e-18
1.58e-18
1.56876e-18
2.727e-18
4.02592e-18
4.85302e-18
3.75862e-18
3.68251e-18
5.0765e-18
2.83573e-18
2.48294e-18
2.4089e-18
1.50055e-18
3.50456e-18
3.06116e-18
1.60482e-18
1.85414e-18
5.674e-19
4.67541e-18
8.26776e-18
2.18805e-18
1.26166e-18
4.15789e-18
3.75996e-18
5.67319e-18
7.24445e-18
2.32753e-18
1.87095e-18
1.15983e-18
1.97492e-18
2.02409e-18
9.71714e-19
3.15566e-18
5.39746e-18
2.84699e-18
4.35224e-18
3.65629e-18
1.65259e-18
2.56074e-18
5.20594e-18
2.7127e-18
9.99111e-19
1.7635e-18
2.6134e-18
5.55141e-18
3.67353e-18
2.01005e-18
4.50077e-18
2.2888e-18
1.70165e-18
1.74467e-18
2.83724e-18
1.95065e-18
3.94852e-18
8.07078e-18
2.8787e-18
3.13556e-18
3.29725e-18
2.65378e-18
1.73539e-18
2.54839e-18
3.10853e-18
1.63847e-18
3.00918e-18
2.9977e-18
1.46885e-18
2.17551e-18
2.14714e-18
2.63793e-18
1.57401e-18
1.89219e-18
4.46082e-18
3.33659e-18
3.11167e-18
1.69391e-18
2.57709e-18
1.38562e-18
1.39231e-18
3.16385e-18
2.65519e-18
4.18483e-18
5.18062e-18
2.4147e-18
3.20036e-18
2.87432e-18
7.81955e-18
1.47925e-18
1.95966e-18
2.50444e-18
2.02774e-18
2.92264e-18
4.22182e-18
2.34658e-18
2.48429e-18
2.37578e-18
2.54217e-18
2.29582e-18
1.8367e-18
2.45327e-18
2.33948e-18
1.74248e-18
3.40485e-18
3.54805e-18
2.41845e-18
1.95102e-18
4.82779e-18
5.87915e-18
3.00819e-18
9.73298e-19
3.57804e-18
2.56199e-18
4.00906e-18
3.47044e-18
2.27795e-18
2.66299e-18
2.71795e-18
2.04291e-18
2.18492e-18
4.99561e-18
6.48297e-18
4.35315e-18
1.21765e-18
1.68287e-18
5.64566e-18
2.84592e-18
1.98447e-18
3.1692e-18
2.14535e-18
2.54143e-18
2.35127e-18
4.9851e-18
2.93057e-18
1.51104e-18
1.6377e-18
2.05718e-18
2.48018e-18
1.92624e-18
4.31309e-18
3.98532e-18
3.8132e-18
1.71771e-18
2.08966e-18
1.26896e-18
1.72355e-18
3.43265e-18
3.51454e-18
3.86891e-18
2.9775e-18
4.72977e-18
1.92918e-18
2.86093e-18
3.57055e-18
1.7863e-18
1.52743e-18
2.5542e-18
2.04627e-18
1.93932e-18
2.30222e-18
2.90765e-18
4.08415e-18
3.5868e-18
4.12803e-18
3.66224e-18
1.60928e-18
1.20946e-18
2.39971e-18
3.3499e-18
4.39767e-18
4.46642e-18
2.51745e-18
1.50374e-18
2.54111e-18
6.80818e-18
4.24395e-18
2.81503e-18
3.26551e-18
1.66333e-18
2.50042e-18
2.17752e-18
1.53823e-18
2.69347e-18
2.42534e-18
2.07663e-18
2.15057e-18
1.95882e-18
1.85214e-18
2.60484e-18
3.13232e-18
1.92709e-18
1.37254e-18
1.03498e-18
3.46202e-18
6.76841e-18
8.47349e-18
4.01519e-18
3.06525e-18
2.45187e-18
2.14648e-18
2.662e-18
1.94578e-18
1.07839e-18
1.44325e-18
2.80381e-18
3.30617e-18
4.40664e-18
3.28623e-18
2.69951e-18
2.7582e-18
2.59235e-18
2.86048e-18
2.42274e-18
1.87028e-18
1.60814e-18
1.97722e-18
2.51297e-18
2.84531e-18
4.94535e-18
5.20608e-18
3.14691e-18
2.78582e-18
1.78213e-18
1.8206e-18
2.86248e-18
2.42873e-18
2.47236e-18
2.98212e-18
2.5132e-18
2.36913e-18
2.70169e-18
2.61204e-18
1.85294e-18
1.71977e-18
2.03456e-18
1.95406e-18
2.23596e-18
1.57127e-18
2.57252e-18
2.54812e-18
1.47532e-18
2.42648e-18
2.35872e-18
1.59501e-18
1.44167e-18
1.31647e-18
1.32894e-18
2.68227e-18
3.3617e-18
3.56352e-18
3.42377e-18
3.62666e-18
5.31766e-18
6.43142e-18
5.0576e-18
2.64575e-18
1.64718e-18
1.83148e-18
1.95193e-18
1.44412e-18
1.9357e-18
1.8161e-18
2.04687e-18
2.43954e-18
2.13341e-18
2.79202e-18
2.88218e-18
2.14466e-18
1.6853e-18
1.62694e-18
2.12759e-18
3.05308e-18
2.26248e-18
2.11216e-18
4.68454e-18
7.28536e-18
3.22363e-18
2.20359e-18
2.00864e-18
1.18538e-18
1.10742e-18
2.71435e-18
2.50927e-18
2.60403e-18
3.4899e-18
2.98454e-18
2.18692e-18
1.55769e-18
1.42886e-18
2.15693e-18
1.98339e-18
1.54208e-18
1.81862e-18
3.03639e-18
4.74337e-18
2.46087e-18
1.59846e-18
1.27775e-18
1.50147e-18
2.07669e-18
3.35369e-18
4.74918e-18
3.61244e-18
4.14099e-18
5.44643e-18
3.3775e-18
2.72052e-18
3.03943e-18
3.77519e-18
3.12419e-18
2.81111e-18
1.91523e-18
2.0044e-18
1.61992e-18
9.82845e-19
1.49196e-18
2.15747e-18
2.82297e-18
2.82803e-18
5.15416e-18
5.72154e-18
4.06901e-18
2.71717e-18
2.79351e-18
3.31779e-18
3.14466e-18
3.27453e-18
4.66526e-18
4.21642e-18
3.64162e-18
2.93413e-18
1.74913e-18
1.32164e-18
2.20336e-18
2.37668e-18
2.76965e-18
3.78376e-18
1.89715e-18
1.85782e-18
2.25369e-18
4.51918e-18
3.14443e-18
1.63336e-18
1.68465e-18
2.6633e-18
2.57916e-18
1.49045e-18
1.59027e-18
2.38386e-18
3.77804e-18
3.23001e-18
3.16335e-18
1.50859e-18
1.11918e-18
2.00628e-18
1.41864e-18
1.40641e-18
1.14028e-18
2.65121e-18
2.29239e-18
1.81907e-18
2.13933e-18
1.54878e-18
2.35676e-18
2.47794e-18
2.49503e-18
2.09883e-18
2.73626e-18
2.091e-18
2.22475e-18
3.02649e-18
4.21931e-18
5.75731e-18
4.67051e-18
3.67103e-18
1.68067e-18
2.31164e-18
1.18483e-18
1.97876e-18
2.01602e-18
2.5118e-18
1.30834e-18
6.74137e-19
1.41626e-18
3.23955e-18
1.2465e-18
2.46582e-18
3.7614e-18
3.5262e-18
2.42162e-18
4.09945e-18
3.27788e-18
1.14824e-18
1.53105e-18
2.53624e-18
4.87322e-18
2.76138e-18
1.98456e-18
2.90645e-18
2.49517e-18
3.40895e-18
1.40528e-18
8.79087e-19
2.23607e-18
2.17984e-18
3.42374e-18
7.65653e-19
4.25034e-18
1.46014e-18
1.14579e-18
5.00761e-18
3.54923e-18
2.09316e-18
3.13684e-18
1.39996e-18
1.70301e-18
7.93998e-19
1.88327e-18
3.54855e-18
1.73227e-18
4.88634e-18
4.06163e-18
4.66095e-18
7.29797e-18
2.01777e-18
2.25279e-18
2.83267e-18
4.61538e-18
3.73802e-18
5.46181e-18
2.70655e-18
1.22453e-18
1.91597e-18
2.20569e-18
8.23272e-19
2.29252e-18
1.28683e-18
7.07814e-18
2.66264e-18
2.93594e-18
3.50033e-18
3.33264e-18
3.8786e-18
1.66673e-18
1.77724e-18
2.57382e-18
3.94526e-18
3.99505e-18
2.29789e-18
2.74651e-18
1.74049e-18
1.82998e-18
2.7382e-18
2.73863e-18
2.51489e-18
2.64724e-18
3.07118e-18
7.27362e-18
4.10485e-18
1.82484e-18
3.08136e-18
3.48169e-18
1.95324e-18
2.89264e-18
3.31995e-18
2.51082e-18
1.75314e-18
2.65608e-18
2.22287e-18
1.43123e-18
4.06842e-18
2.02511e-18
3.41381e-18
7.74748e-18
4.42484e-18
2.40804e-18
3.06257e-18
5.00439e-18
2.69191e-18
4.24711e-18
4.90742e-18
2.25189e-18
2.46228e-18
5.88247e-18
3.15072e-18
2.37971e-18
2.00773e-18
1.8267e-18
3.17684e-18
3.34331e-18
2.27339e-18
2.17436e-18
3.39477e-18
3.92501e-18
3.28255e-18
6.15784e-18
4.99763e-18
3.34438e-18
1.77307e-18
2.95295e-18
4.88134e-18
2.45544e-18
2.05908e-18
3.22991e-18
1.18291e-18
1.50172e-18
3.11594e-18
1.34565e-18
2.26975e-18
1.70992e-18
2.91244e-18
3.62657e-18
1.86112e-18
2.07182e-18
1.49097e-18
2.80673e-18
4.05387e-18
3.91567e-18
2.47506e-18
1.54297e-18
1.52678e-18
2.69378e-18
2.06599e-18
1.58022e-18
1.67318e-18
1.43889e-18
4.17352e-18
3.32458e-18
2.33731e-18
5.44045e-18
2.36402e-18
5.57694e-18
4.04946e-18
2.89419e-18
3.65473e-18
2.83046e-18
2.7416e-18
3.14275e-18
3.94097e-18
5.38016e-18
2.68337e-18
1.91619e-18
1.63629e-18
3.68305e-18
1.61946e-18
2.14003e-18
1.82504e-18
2.36301e-18
2.40257e-18
2.13916e-18
3.39067e-18
4.46793e-18
2.23963e-18
1.90866e-18
3.43874e-18
3.72011e-18
3.24364e-18
1.73302e-18
1.88705e-18
1.95868e-18
3.35622e-18
2.06956e-18
2.84347e-18
1.83628e-18
1.66192e-18
2.56328e-18
2.53206e-18
4.10212e-18
4.11678e-18
4.46065e-18
2.97341e-18
3.74866e-18
3.35398e-18
2.88294e-18
3.01687e-18
1.87976e-18
1.06051e-18
1.37548e-18
1.16093e-18
1.07493e-18
2.60631e-18
3.74019e-18
2.64334e-18
1.69729e-18
2.51525e-18
2.23521e-18
2.54702e-18
4.10819e-18
3.19759e-18
1.8138e-18
1.7349e-18
1.82317e-18
5.57438e-18
1.24679e-17
9.38419e-18
4.89814e-18
2.29838e-18
2.54369e-18
3.81727e-18
2.85806e-18
2.37229e-18
2.29479e-18
1.86472e-18
1.77922e-18
3.31504e-18
5.00896e-18
4.42954e-18
4.36354e-18
3.58021e-18
2.52779e-18
2.41536e-18
2.61769e-18
1.76251e-18
1.51689e-18
2.04123e-18
2.77577e-18
2.81399e-18
2.47944e-18
3.08737e-18
3.23179e-18
2.60996e-18
2.63603e-18
2.42608e-18
2.668e-18
3.58105e-18
4.19303e-18
2.52997e-18
1.499e-18
1.22243e-18
1.25146e-18
1.69774e-18
2.48345e-18
1.93445e-18
1.70804e-18
1.61656e-18
2.19867e-18
2.46852e-18
2.83056e-18
1.5562e-18
1.34932e-18
3.30086e-18
4.37488e-18
2.27526e-18
1.2318e-18
1.31382e-18
1.46888e-18
1.932e-18
2.93505e-18
2.0195e-18
1.89151e-18
2.97851e-18
3.41381e-18
4.35178e-18
3.48143e-18
4.29559e-18
3.89767e-18
2.22732e-18
1.69017e-18
1.95755e-18
2.49454e-18
2.41261e-18
2.49838e-18
2.04333e-18
1.87334e-18
1.64413e-18
1.86796e-18
1.53014e-18
2.1633e-18
3.84749e-18
3.03188e-18
3.00166e-18
2.63579e-18
3.33764e-18
6.10084e-18
9.14029e-18
4.38554e-18
1.95003e-18
1.86424e-18
1.69023e-18
1.70163e-18
1.70181e-18
3.05624e-18
3.97768e-18
3.78347e-18
3.11814e-18
2.00901e-18
2.10133e-18
2.13722e-18
2.69965e-18
2.74652e-18
2.82077e-18
2.8964e-18
2.86643e-18
2.38516e-18
2.1152e-18
2.94987e-18
3.25118e-18
3.14657e-18
3.08558e-18
3.56462e-18
5.46995e-18
3.85435e-18
2.91156e-18
2.83164e-18
2.76342e-18
2.49456e-18
1.57627e-18
2.09115e-18
3.20819e-18
2.62366e-18
2.26815e-18
1.73148e-18
1.34287e-18
1.68764e-18
1.46634e-18
2.11691e-18
4.19601e-18
4.86028e-18
4.60423e-18
5.79691e-18
5.15252e-18
2.58881e-18
1.49391e-18
1.3002e-18
1.65957e-18
2.18539e-18
1.93944e-18
2.35787e-18
1.85659e-18
1.627e-18
1.42552e-18
1.5925e-18
2.35469e-18
3.65458e-18
2.25102e-18
1.69786e-18
2.19788e-18
2.17272e-18
1.16682e-18
1.86237e-18
3.11696e-18
3.30154e-18
1.90873e-18
2.04815e-18
1.98183e-18
1.54291e-18
1.3675e-18
1.86385e-18
3.40324e-18
1.64769e-18
1.78991e-18
3.49228e-18
3.38998e-18
1.81243e-18
1.65433e-18
2.38979e-18
3.2761e-18
3.04118e-18
1.97027e-18
2.98753e-18
4.63093e-18
2.27609e-18
2.46784e-18
2.42221e-18
2.39872e-18
2.9959e-18
2.24945e-18
1.88341e-18
1.71168e-18
3.16354e-18
2.71875e-18
4.75668e-18
5.91611e-18
3.00278e-18
2.06223e-18
9.82331e-19
1.88636e-18
3.08845e-18
2.97206e-18
1.45177e-18
2.81041e-18
1.83259e-18
1.59076e-18
2.36404e-18
5.04895e-18
1.39356e-18
1.77172e-18
2.4981e-18
3.36102e-18
2.44808e-18
7.99275e-19
1.96053e-18
1.21537e-18
5.69883e-19
1.59981e-18
2.38987e-18
1.82414e-18
2.88333e-18
3.06131e-18
1.45747e-18
2.56904e-18
1.15014e-18
1.87323e-18
6.33703e-18
5.75575e-18
4.04878e-18
2.30582e-18
2.99117e-18
1.93146e-18
2.10876e-18
2.78662e-18
3.83437e-18
4.07045e-18
9.51524e-18
4.3607e-18
3.36205e-18
2.09635e-18
2.54287e-18
1.68261e-18
3.65192e-18
5.14071e-18
4.01635e-18
2.33706e-18
2.66482e-18
1.56831e-18
2.67574e-18
1.77432e-18
5.33374e-18
8.87157e-18
2.78395e-18
1.85045e-18
1.94309e-18
4.19862e-18
4.6857e-18
1.93356e-18
4.12542e-18
2.07917e-18
4.80794e-18
3.84405e-18
4.38262e-18
1.51755e-18
3.16414e-18
1.5975e-18
4.8717e-18
4.01165e-18
4.59367e-18
1.88339e-18
2.32772e-18
4.3287e-18
4.00135e-18
2.0241e-18
1.97841e-18
3.31445e-18
1.95151e-18
1.43967e-18
2.51886e-18
1.97713e-18
3.67653e-18
5.26072e-18
2.03839e-18
3.22447e-18
4.32834e-18
2.40888e-18
2.15265e-18
3.4614e-18
2.10297e-18
2.14343e-18
1.80527e-18
1.41304e-18
2.26941e-18
4.62921e-18