/*--------------------------------*- C++ -*----------------------------------*\
  =========                 |
  \\      /  F ield         | OpenFOAM: The Open Source CFD Toolbox
   \\    /   O peration     | Website:  https://openfoam.org
    \\  /    A nd           | Version:  7
     \\/     M anipulation  |
\*---------------------------------------------------------------------------*/
FoamFile
{
    version     2.0;
    format      ascii;
    class       volScalarField;
    location    "1500";
    object      mu1;
}
// * * * * * * * * * * * * * * * * * * * * * * * * * * * * * * * * * * * * * //

dimensions      [1 -1 -1 0 0 0 0];

internalField   nonuniform List<scalar> 
160000
(
0.000454881
0.000457287
0.000459698
0.000462144
0.000464666
0.000467172
0.000469673
0.000472118
0.000474516
0.000477047
0.000479628
0.000482129
0.000484658
0.000487256
0.000489764
0.000492247
0.000494761
0.000497273
0.000499829
0.000502396
0.000504948
0.00050747
0.000509943
0.000512435
0.000514945
0.000517487
0.000520054
0.000522565
0.000525065
0.000527537
0.000529954
0.000532419
0.000535032
0.000537637
0.000540116
0.000542605
0.00054509
0.00054754
0.000549915
0.000552291
0.000554798
0.000557339
0.000559883
0.000562316
0.000564709
0.000567186
0.000569619
0.000571993
0.00057444
0.000576935
0.000579388
0.000581856
0.000584279
0.000586646
0.000589034
0.000591378
0.00059379
0.000596211
0.000598497
0.000600778
0.000603198
0.000605634
0.000607947
0.000610228
0.000612451
0.000614773
0.000617162
0.000619525
0.000621813
0.000623932
0.000626158
0.000628439
0.000630655
0.000632868
0.000635057
0.000637279
0.0006395
0.000641687
0.000643879
0.000646072
0.000648257
0.000650508
0.000652707
0.000654832
0.000656971
0.000659124
0.000661245
0.000663302
0.00066534
0.00066745
0.000669514
0.000671558
0.000673686
0.000675796
0.000677844
0.00067981
0.000681773
0.000683763
0.000685742
0.00068768
0.000689624
0.000691542
0.000693456
0.000695419
0.000697296
0.000699182
0.000701059
0.000702917
0.000704826
0.000706721
0.000708623
0.000710429
0.00071222
0.00071404
0.000715793
0.00071757
0.000719338
0.000721079
0.000722877
0.000724696
0.000726473
0.000728184
0.000729873
0.000731584
0.000733287
0.000735024
0.000736785
0.000738447
0.00074007
0.000741727
0.00074336
0.00074494
0.000746526
0.000748194
0.00074986
0.000751441
0.000752979
0.000754516
0.000756027
0.000757477
0.000758967
0.000760556
0.000762055
0.000763506
0.000765052
0.000766564
0.000768015
0.000769464
0.000770903
0.000772306
0.000773681
0.000775064
0.00077642
0.000777801
0.000779175
0.000780516
0.000781869
0.000783233
0.000784591
0.000785932
0.000787254
0.000788556
0.00078985
0.000791158
0.000792428
0.000793667
0.000794949
0.000796184
0.000797395
0.000798593
0.0007998
0.000801062
0.000802256
0.000803439
0.000804643
0.00080577
0.000806883
0.000808001
0.000809142
0.000810307
0.000811389
0.000812459
0.000813543
0.000814573
0.0008156
0.000816639
0.000817684
0.00081873
0.000819755
0.000820787
0.000821849
0.000822886
0.000823893
0.000824911
0.000825953
0.00082692
0.000827841
0.000828821
0.000829833
0.000830845
0.000831839
0.000832783
0.000833686
0.000834568
0.000835447
0.000836348
0.000837236
0.000838094
0.00083895
0.000839803
0.000840649
0.000841492
0.000842316
0.00084312
0.000843928
0.000844728
0.000845501
0.000846279
0.000847086
0.00084788
0.000848653
0.000849415
0.000850141
0.000850853
0.000851574
0.000852295
0.000853026
0.000853734
0.00085444
0.000855158
0.000855827
0.000856493
0.000857179
0.000857866
0.000858543
0.000859205
0.000859848
0.000860483
0.000861106
0.000861722
0.00086234
0.000862937
0.000863538
0.000864139
0.00086473
0.000865326
0.00086593
0.000866532
0.000867149
0.000867764
0.00086835
0.000868927
0.00086948
0.000870006
0.000870516
0.000871039
0.000871562
0.000872062
0.000872566
0.000873103
0.000873651
0.000874159
0.00087464
0.00087511
0.000875582
0.000876071
0.000876557
0.000877018
0.000877477
0.00087796
0.00087842
0.000878848
0.00087928
0.000879705
0.000880118
0.000880525
0.00088094
0.000881375
0.000881796
0.000882195
0.000882591
0.00088298
0.000883369
0.00088376
0.000884146
0.00088452
0.000884895
0.000885261
0.000885615
0.000885973
0.00088633
0.000886668
0.000887
0.000887343
0.000887684
0.000888023
0.000888365
0.000888686
0.000888998
0.000889315
0.000889625
0.000889938
0.000890254
0.000890568
0.000890868
0.000891154
0.000891431
0.000891707
0.000891975
0.00089224
0.000892508
0.000892769
0.000893025
0.000893289
0.000893549
0.000893802
0.000894051
0.000894289
0.000894518
0.000894748
0.000894975
0.000895197
0.000895419
0.000895646
0.000895872
0.000896088
0.000896302
0.000896516
0.000896723
0.000896921
0.000897114
0.000897307
0.000897496
0.000897681
0.000897865
0.000898042
0.000898214
0.000898386
0.000898566
0.000898741
0.000898899
0.000899056
0.000899218
0.000899375
0.000899528
0.000899673
0.000899812
0.000899951
0.000900089
0.000900224
0.000900356
0.000900484
0.000900612
0.000900738
0.000900858
0.000900976
0.000901092
0.000901206
0.000901317
0.000901423
0.000901526
0.000901626
0.000901727
0.000901825
0.000901921
0.000902016
0.000902105
0.000902193
0.00090228
0.000902358
0.000902431
0.000902502
0.000902572
0.000902642
0.000902709
0.000902772
0.000902832
0.000902889
0.000902943
0.000902995
0.000903044
0.000903091
0.000903135
0.000903178
0.000903218
0.000903255
0.00090329
0.000903322
0.000903352
0.000903378
0.000903402
0.000903424
0.000903443
0.000903459
0.000903473
0.000903484
0.000903493
0.0009035
0.000903504
0.000903507
0.000454935
0.000457357
0.000459729
0.000462168
0.000464651
0.00046713
0.000469627
0.000472118
0.000474568
0.000477067
0.000479635
0.000482158
0.00048464
0.000487162
0.000489728
0.000492245
0.000494709
0.000497263
0.00049988
0.000502468
0.000504999
0.000507482
0.000509979
0.0005125
0.00051498
0.000517429
0.000519961
0.000522538
0.000525042
0.000527522
0.000530014
0.000532502
0.000535049
0.000537626
0.000540114
0.000542578
0.000545111
0.000547505
0.000549821
0.000552305
0.000554857
0.000557344
0.000559862
0.000562297
0.000564692
0.000567198
0.000569642
0.000571991
0.000574399
0.000576945
0.000579454
0.000581877
0.000584238
0.000586658
0.000589046
0.000591357
0.000593769
0.00059616
0.0005985
0.000600843
0.000603201
0.000605584
0.000607938
0.000610219
0.00061249
0.000614846
0.00061716
0.000619447
0.000621729
0.000623951
0.000626211
0.000628476
0.000630681
0.000632856
0.000635047
0.000637281
0.000639512
0.000641703
0.000643885
0.000646078
0.000648293
0.000650497
0.00065267
0.000654785
0.000656926
0.000659134
0.000661254
0.000663309
0.000665368
0.00066744
0.000669536
0.000671605
0.000673691
0.000675798
0.000677807
0.000679772
0.000681751
0.000683737
0.000685737
0.000687679
0.00068962
0.000691585
0.000693468
0.000695376
0.000697319
0.000699184
0.000701044
0.000702948
0.000704845
0.000706733
0.000708625
0.000710441
0.000712227
0.000714013
0.000715781
0.000717558
0.000719322
0.000721088
0.000722874
0.000724675
0.000726476
0.000728208
0.000729904
0.000731614
0.00073332
0.000735037
0.000736758
0.000738422
0.000740066
0.000741718
0.000743348
0.000744925
0.000746533
0.000748231
0.000749879
0.000751414
0.000752954
0.000754522
0.000756011
0.000757474
0.000758972
0.000760527
0.00076205
0.00076354
0.000765072
0.000766565
0.000768015
0.000769463
0.000770888
0.000772267
0.000773677
0.000775085
0.000776421
0.00077779
0.000779173
0.000780545
0.000781895
0.000783247
0.000784588
0.000785912
0.000787234
0.000788548
0.000789864
0.000791158
0.00079242
0.000793668
0.000794943
0.000796182
0.000797394
0.00079862
0.000799845
0.000801078
0.000802254
0.000803434
0.000804619
0.000805748
0.000806888
0.000808023
0.000809152
0.000810281
0.000811373
0.000812454
0.000813528
0.000814555
0.000815587
0.000816638
0.000817688
0.000818728
0.000819748
0.000820801
0.000821873
0.000822911
0.000823912
0.000824927
0.000825933
0.000826894
0.000827861
0.000828853
0.000829862
0.000830861
0.000831832
0.000832767
0.000833667
0.00083455
0.000835445
0.000836354
0.000837239
0.000838096
0.000838949
0.000839804
0.000840654
0.000841483
0.000842304
0.000843124
0.000843929
0.000844717
0.000845501
0.000846294
0.000847098
0.000847883
0.000848647
0.000849392
0.00085012
0.000850845
0.000851572
0.000852302
0.000853032
0.000853738
0.000854441
0.000855146
0.000855821
0.000856487
0.000857178
0.000857888
0.000858557
0.000859202
0.000859845
0.000860484
0.000861105
0.000861721
0.000862338
0.000862932
0.000863534
0.000864147
0.000864732
0.00086532
0.000865934
0.000866549
0.000867166
0.000867771
0.00086835
0.000868913
0.00086947
0.000870006
0.000870518
0.00087104
0.000871556
0.000872061
0.000872583
0.000873125
0.000873647
0.00087414
0.000874625
0.000875102
0.000875584
0.000876082
0.000876557
0.000877014
0.000877487
0.000877965
0.000878411
0.000878845
0.000879284
0.000879705
0.000880114
0.000880523
0.000880943
0.000881378
0.000881795
0.000882192
0.000882587
0.000882979
0.000883368
0.000883761
0.000884151
0.000884527
0.000884897
0.000885259
0.000885615
0.000885973
0.000886321
0.000886659
0.000887
0.00088735
0.000887688
0.000888021
0.000888361
0.000888685
0.000888998
0.000889318
0.000889638
0.000889955
0.000890267
0.000890569
0.000890862
0.000891147
0.000891426
0.000891702
0.000891972
0.000892239
0.000892506
0.000892766
0.000893026
0.000893291
0.000893554
0.000893807
0.000894049
0.000894283
0.000894515
0.000894747
0.000894974
0.000895197
0.000895419
0.000895649
0.000895875
0.000896089
0.0008963
0.000896515
0.000896724
0.00089692
0.000897114
0.000897308
0.000897496
0.000897682
0.000897867
0.000898045
0.000898218
0.000898392
0.000898566
0.000898734
0.000898895
0.000899055
0.000899218
0.000899375
0.000899526
0.000899671
0.000899812
0.000899952
0.00090009
0.000900225
0.000900356
0.000900484
0.000900611
0.000900737
0.000900859
0.000900976
0.000901092
0.000901206
0.000901317
0.000901422
0.000901525
0.000901627
0.000901727
0.000901825
0.000901922
0.000902017
0.000902107
0.000902196
0.000902279
0.000902357
0.000902431
0.000902503
0.000902573
0.000902642
0.000902708
0.000902771
0.000902831
0.000902889
0.000902943
0.000902994
0.000903045
0.000903091
0.000903135
0.000903179
0.000903218
0.000903255
0.00090329
0.000903322
0.000903351
0.000903378
0.000903402
0.000903424
0.000903443
0.000903459
0.000903473
0.000903484
0.000903493
0.0009035
0.000903505
0.000903507
0.000454901
0.000457307
0.000459739
0.000462178
0.000464656
0.000467157
0.000469602
0.000472119
0.000474594
0.000477063
0.000479634
0.000482166
0.000484621
0.000487104
0.000489687
0.000492216
0.000494731
0.000497354
0.000499917
0.000502469
0.000505009
0.000507523
0.00051004
0.000512511
0.000514979
0.000517447
0.000519939
0.000522456
0.000525023
0.000527561
0.000530018
0.000532502
0.000535039
0.000537628
0.000540149
0.000542589
0.000545061
0.00054748
0.000549856
0.000552319
0.000554841
0.000557341
0.000559818
0.000562233
0.000564721
0.000567242
0.000569632
0.000571989
0.000574401
0.00057694
0.000579471
0.000581899
0.000584256
0.000586622
0.000589005
0.000591354
0.00059373
0.000596112
0.000598521
0.000600899
0.000603205
0.000605532
0.000607918
0.00061025
0.000612503
0.000614868
0.000617224
0.000619498
0.00062173
0.00062398
0.000626199
0.0006284
0.00063067
0.000632865
0.000635039
0.000637277
0.000639501
0.000641697
0.000643935
0.000646123
0.000648279
0.000650478
0.00065268
0.000654798
0.000656918
0.00065907
0.000661189
0.000663331
0.000665427
0.000667468
0.000669557
0.000671659
0.000673697
0.000675757
0.000677785
0.000679739
0.000681716
0.000683711
0.000685708
0.000687689
0.000689632
0.000691581
0.000693496
0.000695376
0.00069729
0.000699198
0.000701096
0.00070297
0.000704828
0.000706726
0.000708594
0.000710415
0.000712233
0.000714005
0.000715777
0.000717559
0.000719313
0.000721095
0.000722907
0.000724707
0.000726469
0.00072819
0.00072991
0.000731627
0.00073333
0.000735046
0.000736741
0.000738405
0.000740067
0.000741697
0.000743302
0.000744935
0.000746608
0.000748261
0.000749866
0.000751414
0.000752941
0.000754482
0.000755993
0.000757473
0.000758967
0.000760525
0.000762068
0.000763551
0.000765065
0.000766569
0.000768022
0.000769454
0.000770871
0.000772263
0.00077367
0.000775064
0.000776406
0.000777787
0.000779213
0.000780573
0.000781905
0.000783261
0.000784594
0.000785916
0.000787224
0.000788534
0.000789855
0.000791152
0.000792424
0.000793683
0.000794945
0.000796178
0.000797394
0.000798633
0.000799867
0.00080108
0.000802274
0.000803453
0.000804598
0.000805722
0.000806876
0.000808033
0.000809151
0.000810257
0.000811363
0.000812443
0.000813495
0.000814543
0.00081559
0.000816634
0.000817678
0.000818719
0.000819768
0.000820849
0.000821919
0.000822934
0.00082393
0.000824937
0.000825927
0.000826905
0.00082789
0.000828875
0.000829871
0.000830861
0.000831819
0.000832744
0.000833651
0.000834558
0.000835457
0.000836349
0.000837222
0.000838078
0.000838946
0.000839805
0.000840637
0.000841464
0.000842303
0.000843127
0.000843925
0.000844715
0.000845508
0.000846305
0.000847095
0.000847865
0.000848623
0.000849374
0.000850113
0.000850849
0.000851584
0.000852315
0.000853033
0.000853733
0.000854443
0.000855146
0.000855821
0.000856498
0.000857196
0.000857882
0.000858545
0.000859208
0.000859853
0.000860478
0.000861093
0.00086171
0.000862332
0.000862936
0.00086354
0.000864142
0.000864734
0.000865332
0.000865951
0.000866587
0.000867195
0.000867774
0.000868341
0.000868904
0.00086946
0.000869994
0.000870514
0.000871037
0.000871555
0.00087207
0.000872596
0.000873121
0.000873627
0.000874124
0.000874616
0.000875102
0.00087559
0.000876077
0.000876554
0.00087703
0.000877507
0.000877965
0.000878406
0.000878844
0.000879278
0.000879697
0.000880112
0.000880526
0.000880946
0.000881376
0.000881789
0.00088219
0.000882587
0.000882982
0.000883377
0.000883767
0.000884148
0.000884522
0.000884892
0.000885254
0.000885613
0.000885969
0.000886319
0.000886663
0.000887002
0.000887341
0.00088768
0.000888025
0.000888367
0.000888687
0.000889006
0.000889333
0.000889656
0.000889969
0.000890269
0.000890563
0.000890852
0.000891139
0.000891422
0.000891697
0.000891966
0.000892235
0.000892504
0.000892768
0.000893031
0.000893297
0.000893555
0.000893802
0.000894043
0.000894281
0.000894515
0.000894745
0.000894973
0.0008952
0.000895427
0.000895656
0.000895877
0.000896089
0.000896301
0.000896512
0.000896718
0.000896917
0.000897112
0.000897309
0.000897499
0.000897685
0.00089787
0.000898047
0.000898221
0.000898394
0.000898565
0.000898731
0.000898894
0.000899054
0.000899213
0.000899371
0.000899523
0.000899669
0.000899814
0.000899956
0.000900092
0.000900223
0.000900353
0.000900483
0.000900611
0.000900738
0.000900859
0.000900975
0.000901091
0.000901207
0.000901318
0.000901423
0.000901524
0.000901625
0.000901727
0.000901827
0.000901926
0.00090202
0.000902109
0.000902196
0.000902278
0.000902355
0.00090243
0.000902502
0.000902573
0.000902642
0.000902708
0.000902771
0.000902831
0.000902888
0.000902942
0.000902995
0.000903045
0.000903091
0.000903136
0.000903179
0.000903219
0.000903255
0.000903289
0.000903322
0.000903351
0.000903379
0.000903403
0.000903424
0.000903443
0.000903459
0.000903473
0.000903484
0.000903493
0.0009035
0.000903505
0.000903507
0.00045489
0.000457307
0.000459743
0.000462207
0.000464694
0.000467194
0.000469645
0.000472131
0.000474636
0.000477145
0.000479657
0.000482107
0.000484591
0.000487104
0.000489663
0.000492213
0.000494748
0.000497347
0.000499913
0.00050249
0.000505002
0.000507535
0.00051005
0.000512474
0.000515015
0.000517502
0.00051992
0.000522454
0.000525052
0.000527555
0.000530017
0.000532508
0.000535023
0.000537589
0.000540141
0.000542603
0.000545066
0.000547461
0.000549819
0.000552317
0.000554869
0.000557365
0.000559818
0.000562243
0.000564708
0.000567183
0.000569606
0.000572009
0.000574461
0.000576929
0.000579412
0.000581917
0.000584266
0.00058661
0.000589027
0.000591397
0.000593741
0.000596108
0.000598482
0.000600843
0.000603175
0.000605525
0.000607917
0.000610235
0.000612523
0.000614874
0.000617236
0.000619516
0.000621743
0.000624026
0.000626247
0.000628398
0.000630592
0.000632797
0.000635045
0.000637341
0.000639544
0.000641739
0.000643992
0.000646132
0.000648285
0.000650491
0.00065265
0.000654749
0.000656869
0.000659048
0.000661185
0.000663322
0.000665408
0.000667506
0.00066959
0.000671637
0.000673703
0.00067574
0.000677726
0.000679721
0.00068174
0.000683703
0.000685662
0.000687677
0.000689681
0.000691613
0.000693518
0.000695399
0.000697284
0.000699195
0.000701103
0.000702974
0.000704836
0.000706722
0.00070856
0.000710374
0.000712213
0.000714016
0.000715793
0.000717558
0.000719307
0.000721094
0.00072293
0.000724714
0.000726452
0.000728177
0.000729919
0.000731622
0.000733315
0.000735049
0.000736758
0.000738426
0.000740053
0.000741682
0.000743307
0.000744963
0.000746641
0.000748278
0.000749881
0.000751417
0.000752928
0.000754462
0.000755978
0.000757476
0.000759017
0.00076054
0.000762029
0.000763541
0.00076505
0.000766557
0.00076803
0.000769453
0.000770843
0.000772253
0.000773671
0.000775063
0.000776439
0.00077781
0.000779196
0.000780556
0.000781913
0.000783278
0.000784588
0.000785889
0.000787208
0.000788529
0.000789854
0.000791166
0.000792441
0.000793693
0.000794953
0.000796199
0.000797428
0.00079866
0.000799883
0.000801073
0.000802244
0.000803419
0.000804582
0.000805728
0.000806884
0.000808024
0.000809127
0.000810226
0.000811348
0.000812441
0.000813483
0.000814527
0.000815581
0.000816635
0.000817688
0.000818747
0.000819833
0.000820907
0.000821935
0.000822937
0.000823946
0.000824956
0.000825943
0.000826912
0.000827882
0.000828872
0.000829871
0.000830859
0.000831823
0.000832744
0.000833645
0.000834554
0.000835449
0.000836333
0.000837205
0.000838066
0.000838937
0.000839788
0.000840616
0.000841455
0.000842304
0.000843126
0.000843927
0.000844721
0.000845512
0.000846302
0.000847084
0.00084785
0.000848611
0.000849364
0.000850108
0.000850855
0.000851594
0.000852322
0.000853038
0.00085374
0.000854441
0.000855135
0.000855822
0.000856517
0.000857205
0.000857884
0.000858554
0.000859205
0.000859841
0.000860472
0.000861095
0.000861713
0.000862331
0.000862934
0.000863536
0.000864143
0.000864746
0.000865357
0.000865982
0.000866607
0.000867203
0.000867773
0.000868334
0.000868899
0.000869451
0.000869978
0.000870506
0.000871031
0.000871551
0.000872074
0.0008726
0.000873116
0.000873616
0.000874111
0.000874606
0.0008751
0.000875593
0.000876081
0.000876563
0.000877041
0.00087751
0.000877959
0.000878409
0.000878856
0.000879281
0.000879693
0.000880107
0.000880524
0.000880949
0.000881373
0.000881788
0.000882193
0.00088259
0.000882982
0.000883372
0.000883759
0.000884144
0.000884521
0.000884889
0.00088525
0.00088561
0.000885971
0.000886319
0.000886659
0.000886999
0.000887342
0.000887689
0.000888033
0.000888367
0.000888692
0.000889019
0.000889346
0.000889666
0.000889972
0.000890268
0.000890564
0.000890853
0.000891134
0.000891412
0.000891687
0.00089196
0.000892234
0.000892504
0.000892768
0.000893033
0.000893297
0.000893553
0.000893801
0.000894044
0.000894279
0.000894511
0.000894745
0.000894977
0.000895207
0.000895434
0.000895658
0.000895875
0.000896088
0.000896299
0.000896507
0.000896715
0.000896917
0.000897112
0.000897306
0.000897498
0.000897687
0.000897872
0.00089805
0.000898223
0.000898397
0.000898567
0.00089873
0.000898892
0.000899053
0.000899211
0.000899367
0.000899522
0.00089967
0.000899813
0.000899953
0.00090009
0.000900222
0.000900354
0.000900484
0.000900611
0.000900737
0.000900858
0.000900976
0.000901091
0.000901205
0.000901316
0.000901422
0.000901525
0.000901626
0.000901727
0.000901826
0.000901927
0.000902022
0.000902112
0.000902198
0.000902278
0.000902355
0.000902431
0.000902502
0.000902573
0.000902642
0.000902707
0.00090277
0.000902831
0.000902887
0.00090294
0.000902994
0.000903045
0.000903091
0.000903136
0.00090318
0.00090322
0.000903255
0.000903289
0.000903322
0.000903351
0.000903378
0.000903403
0.000903424
0.000903443
0.000903459
0.000903473
0.000903484
0.000903493
0.0009035
0.000903505
0.000903507
0.000454882
0.00045728
0.000459735
0.000462241
0.000464719
0.000467216
0.000469673
0.000472149
0.000474678
0.00047716
0.000479646
0.000482047
0.000484489
0.000487151
0.000489758
0.000492231
0.000494737
0.000497297
0.000499849
0.000502476
0.000505051
0.000507568
0.000510049
0.000512497
0.00051501
0.000517463
0.000519885
0.000522433
0.000524984
0.000527514
0.00053008
0.00053257
0.000535036
0.000537618
0.000540204
0.000542618
0.000544992
0.000547395
0.000549859
0.000552396
0.000554867
0.000557352
0.000559844
0.000562263
0.000564682
0.000567133
0.000569551
0.000571951
0.000574463
0.000576973
0.000579428
0.000581879
0.000584282
0.000586648
0.000589013
0.000591398
0.00059375
0.000596104
0.000598498
0.000600837
0.000603152
0.000605488
0.000607868
0.000610213
0.000612495
0.000614864
0.000617272
0.000619581
0.0006218
0.000624032
0.00062624
0.000628389
0.000630595
0.000632822
0.00063505
0.000637345
0.000639581
0.000641762
0.000643946
0.000646166
0.00064836
0.000650485
0.000652626
0.000654739
0.000656856
0.000659035
0.000661184
0.000663299
0.000665409
0.000667509
0.000669584
0.000671622
0.000673672
0.000675718
0.000677699
0.000679688
0.000681722
0.000683715
0.00068567
0.000687658
0.000689706
0.00069169
0.000693543
0.000695406
0.000697304
0.000699192
0.000701087
0.000702951
0.000704821
0.00070671
0.000708554
0.000710343
0.000712152
0.000714005
0.000715847
0.000717598
0.000719299
0.000721085
0.000722923
0.000724692
0.000726438
0.000728181
0.000729902
0.000731604
0.00073334
0.000735088
0.000736765
0.000738405
0.000740037
0.000741673
0.0007433
0.000744964
0.000746658
0.000748318
0.000749904
0.000751437
0.000752955
0.00075445
0.000755957
0.000757475
0.000759007
0.000760522
0.000762041
0.000763557
0.000765043
0.000766545
0.000768015
0.000769432
0.000770846
0.000772262
0.000773658
0.000775044
0.000776426
0.000777818
0.000779206
0.000780576
0.000781941
0.000783278
0.000784567
0.000785862
0.000787183
0.000788522
0.000789873
0.000791188
0.000792447
0.00079369
0.000794987
0.000796269
0.000797478
0.000798683
0.000799873
0.000801045
0.000802228
0.000803396
0.000804562
0.000805722
0.000806863
0.000807993
0.000809106
0.000810208
0.000811315
0.000812418
0.000813489
0.000814536
0.000815575
0.000816634
0.000817722
0.000818823
0.000819901
0.000820936
0.000821954
0.000822956
0.000823962
0.000824968
0.000825941
0.000826893
0.000827863
0.000828857
0.000829861
0.000830858
0.000831823
0.000832751
0.000833654
0.000834553
0.000835446
0.000836323
0.000837189
0.00083805
0.000838912
0.000839762
0.000840606
0.000841461
0.000842302
0.000843123
0.000843926
0.000844711
0.000845503
0.000846301
0.000847083
0.000847853
0.000848614
0.000849362
0.000850108
0.000850857
0.000851596
0.000852318
0.000853031
0.000853735
0.000854437
0.00085513
0.000855817
0.000856514
0.000857203
0.000857891
0.000858573
0.00085922
0.000859849
0.000860472
0.000861087
0.000861704
0.000862323
0.000862935
0.000863545
0.000864152
0.000864764
0.000865388
0.000866014
0.000866624
0.000867206
0.00086777
0.000868331
0.000868886
0.000869432
0.000869969
0.0008705
0.000871029
0.00087155
0.000872071
0.000872594
0.000873109
0.000873612
0.000874106
0.000874597
0.000875094
0.000875591
0.000876077
0.000876568
0.000877063
0.00087753
0.000877974
0.000878415
0.000878847
0.000879264
0.000879682
0.000880106
0.000880527
0.000880952
0.000881377
0.000881792
0.000882195
0.000882587
0.000882978
0.00088337
0.000883755
0.000884134
0.00088451
0.000884887
0.000885257
0.000885615
0.000885968
0.000886314
0.000886657
0.000887003
0.000887353
0.000887697
0.000888032
0.000888369
0.000888701
0.000889024
0.000889344
0.000889667
0.000889978
0.000890275
0.000890566
0.000890851
0.000891132
0.000891407
0.000891678
0.000891952
0.000892228
0.000892499
0.000892767
0.000893037
0.000893301
0.000893553
0.000893798
0.000894039
0.000894277
0.000894511
0.000894746
0.00089498
0.000895211
0.000895438
0.000895659
0.000895872
0.000896085
0.000896297
0.000896505
0.000896712
0.000896916
0.00089711
0.000897303
0.000897498
0.000897694
0.000897878
0.000898053
0.000898226
0.000898399
0.000898566
0.000898727
0.000898889
0.000899051
0.000899211
0.000899369
0.000899522
0.000899668
0.00089981
0.000899951
0.000900088
0.000900221
0.000900353
0.000900485
0.000900612
0.000900737
0.000900858
0.000900976
0.000901092
0.000901205
0.000901315
0.000901422
0.000901525
0.000901625
0.000901725
0.000901825
0.000901926
0.000902024
0.000902116
0.000902201
0.00090228
0.000902357
0.000902431
0.000902503
0.000902574
0.000902642
0.000902706
0.000902768
0.000902829
0.000902886
0.00090294
0.000902994
0.000903045
0.000903092
0.000903137
0.00090318
0.00090322
0.000903255
0.000903289
0.000903322
0.000903352
0.000903378
0.000903403
0.000903424
0.000903443
0.00090346
0.000903473
0.000903484
0.000903493
0.0009035
0.000903505
0.000903507
0.000454872
0.00045723
0.000459668
0.000462221
0.000464711
0.000467227
0.000469734
0.000472218
0.000474676
0.000477104
0.000479603
0.00048205
0.000484546
0.000487159
0.000489718
0.00049229
0.00049482
0.0004973
0.000499813
0.000502388
0.000504975
0.000507548
0.000510085
0.000512521
0.000514975
0.000517493
0.000519947
0.000522434
0.000524927
0.000527469
0.000530078
0.000532586
0.000535096
0.000537643
0.00054018
0.000542612
0.000544994
0.000547411
0.000549882
0.000552395
0.000554877
0.000557357
0.000559824
0.000562233
0.000564671
0.000567132
0.000569556
0.000571976
0.000574419
0.000576929
0.000579462
0.000581873
0.000584244
0.000586662
0.000589034
0.000591377
0.000593754
0.00059613
0.000598471
0.000600808
0.00060315
0.000605448
0.000607816
0.000610205
0.000612508
0.000614887
0.000617309
0.00061961
0.000621814
0.000624031
0.000626222
0.000628401
0.00063066
0.000632888
0.000635076
0.000637346
0.000639606
0.000641793
0.00064397
0.000646134
0.000648308
0.000650488
0.000652626
0.000654733
0.000656864
0.00065902
0.000661144
0.000663268
0.000665418
0.000667536
0.000669574
0.00067158
0.000673653
0.000675715
0.000677703
0.000679713
0.000681717
0.000683687
0.00068571
0.000687706
0.000689698
0.000691658
0.000693542
0.000695452
0.000697333
0.000699197
0.000701058
0.000702904
0.0007048
0.000706712
0.00070857
0.000710368
0.000712154
0.000713982
0.000715813
0.000717581
0.00071932
0.000721077
0.00072288
0.000724688
0.000726432
0.000728177
0.000729895
0.000731607
0.000733367
0.000735074
0.000736745
0.000738403
0.000740039
0.000741675
0.00074332
0.000745004
0.000746685
0.000748314
0.000749884
0.000751439
0.000752979
0.000754483
0.000755981
0.000757481
0.000759
0.000760505
0.00076201
0.000763544
0.000765054
0.000766519
0.000767977
0.000769425
0.000770859
0.000772264
0.000773656
0.000775046
0.000776443
0.000777841
0.000779226
0.000780591
0.000781917
0.000783236
0.000784546
0.000785863
0.000787201
0.000788546
0.000789871
0.000791171
0.000792462
0.00079374
0.000795032
0.000796298
0.000797498
0.000798681
0.000799865
0.000801024
0.000802187
0.000803379
0.000804565
0.000805709
0.000806839
0.000807966
0.000809077
0.000810195
0.000811315
0.000812405
0.000813464
0.000814509
0.000815576
0.000816696
0.000817817
0.000818899
0.000819936
0.000820944
0.000821957
0.000822966
0.000823962
0.000824958
0.000825935
0.000826888
0.000827852
0.000828855
0.000829867
0.000830861
0.000831829
0.000832756
0.000833652
0.000834547
0.000835436
0.000836308
0.000837173
0.00083804
0.000838906
0.000839761
0.00084061
0.000841455
0.000842286
0.000843106
0.000843912
0.000844701
0.000845493
0.000846299
0.000847095
0.000847863
0.000848615
0.000849359
0.000850101
0.000850849
0.00085159
0.000852315
0.000853027
0.000853729
0.000854428
0.000855129
0.000855823
0.000856503
0.000857193
0.000857904
0.00085859
0.000859229
0.00085985
0.000860471
0.000861089
0.000861714
0.000862334
0.00086294
0.00086355
0.000864167
0.000864788
0.000865409
0.000866022
0.000866625
0.000867206
0.000867767
0.000868322
0.000868874
0.000869422
0.000869963
0.000870498
0.000871028
0.000871551
0.000872071
0.000872586
0.000873093
0.000873601
0.000874103
0.000874597
0.000875091
0.000875585
0.000876082
0.000876591
0.000877084
0.000877537
0.000877976
0.000878411
0.000878839
0.000879256
0.000879675
0.000880102
0.000880531
0.000880959
0.000881379
0.00088179
0.000882192
0.000882586
0.000882977
0.000883365
0.000883751
0.000884135
0.000884513
0.000884884
0.000885249
0.000885609
0.000885964
0.000886313
0.00088666
0.000887015
0.000887368
0.000887708
0.00088804
0.000888372
0.000888703
0.000889025
0.000889343
0.000889667
0.000889981
0.000890277
0.000890566
0.000890848
0.000891126
0.0008914
0.000891671
0.000891948
0.000892228
0.000892501
0.00089277
0.00089304
0.000893302
0.000893553
0.000893797
0.000894037
0.000894276
0.000894512
0.000894747
0.000894981
0.000895211
0.000895436
0.000895654
0.000895869
0.000896085
0.000896299
0.000896506
0.000896711
0.000896914
0.00089711
0.000897303
0.000897499
0.000897695
0.000897881
0.000898056
0.00089823
0.0008984
0.000898564
0.000898725
0.00089889
0.000899052
0.000899208
0.000899364
0.000899519
0.000899667
0.000899807
0.000899946
0.000900085
0.000900222
0.000900355
0.000900484
0.000900613
0.000900738
0.000900858
0.000900977
0.000901092
0.000901206
0.000901316
0.000901422
0.000901525
0.000901625
0.000901724
0.000901824
0.000901927
0.000902025
0.000902117
0.000902202
0.00090228
0.000902357
0.000902432
0.000902504
0.000902574
0.000902642
0.000902705
0.000902767
0.000902828
0.000902887
0.000902941
0.000902993
0.000903045
0.000903093
0.000903137
0.00090318
0.00090322
0.000903255
0.000903289
0.000903322
0.000903352
0.000903379
0.000903403
0.000903425
0.000903443
0.00090346
0.000903473
0.000903484
0.000903493
0.0009035
0.000903505
0.000903507
0.00045486
0.000457242
0.000459668
0.00046216
0.000464654
0.000467197
0.000469753
0.000472248
0.00047471
0.00047716
0.000479607
0.00048205
0.0004846
0.000487217
0.000489763
0.000492286
0.000494794
0.000497311
0.000499813
0.000502322
0.000504952
0.000507544
0.000510029
0.000512466
0.000514942
0.000517488
0.000519979
0.000522478
0.000524967
0.000527482
0.000530072
0.00053264
0.000535135
0.000537644
0.000540131
0.000542556
0.000545009
0.000547464
0.000549915
0.000552351
0.000554836
0.000557352
0.000559816
0.000562221
0.000564683
0.000567161
0.000569567
0.000571992
0.000574441
0.00057691
0.000579426
0.000581853
0.000584229
0.000586657
0.000589047
0.000591374
0.000593736
0.00059611
0.00059845
0.000600798
0.000603117
0.000605414
0.000607796
0.000610259