/*--------------------------------*- C++ -*----------------------------------*\
  =========                 |
  \\      /  F ield         | OpenFOAM: The Open Source CFD Toolbox
   \\    /   O peration     | Website:  https://openfoam.org
    \\  /    A nd           | Version:  7
     \\/     M anipulation  |
\*---------------------------------------------------------------------------*/
FoamFile
{
    version     2.0;
    format      ascii;
    class       volScalarField;
    location    "1500";
    object      mu2;
}
// * * * * * * * * * * * * * * * * * * * * * * * * * * * * * * * * * * * * * //

dimensions      [1 -1 -1 0 0 0 0];

internalField   nonuniform List<scalar> 
160000
(
1.98409e-05
1.98299e-05
1.9819e-05
1.98081e-05
1.97969e-05
1.97858e-05
1.97749e-05
1.97643e-05
1.9754e-05
1.97432e-05
1.97323e-05
1.97218e-05
1.97113e-05
1.97005e-05
1.96902e-05
1.96801e-05
1.96699e-05
1.96598e-05
1.96496e-05
1.96394e-05
1.96293e-05
1.96195e-05
1.96098e-05
1.96002e-05
1.95905e-05
1.95808e-05
1.95711e-05
1.95616e-05
1.95522e-05
1.9543e-05
1.9534e-05
1.9525e-05
1.95154e-05
1.95059e-05
1.94969e-05
1.94879e-05
1.9479e-05
1.94702e-05
1.94618e-05
1.94534e-05
1.94446e-05
1.94357e-05
1.94268e-05
1.94184e-05
1.94102e-05
1.94017e-05
1.93934e-05
1.93853e-05
1.9377e-05
1.93686e-05
1.93604e-05
1.93521e-05
1.93441e-05
1.93362e-05
1.93284e-05
1.93207e-05
1.93128e-05
1.93049e-05
1.92975e-05
1.92901e-05
1.92823e-05
1.92745e-05
1.92672e-05
1.92599e-05
1.92529e-05
1.92455e-05
1.9238e-05
1.92306e-05
1.92235e-05
1.92169e-05
1.921e-05
1.92029e-05
1.91961e-05
1.91893e-05
1.91826e-05
1.91759e-05
1.91691e-05
1.91625e-05
1.91559e-05
1.91493e-05
1.91427e-05
1.9136e-05
1.91294e-05
1.91231e-05
1.91168e-05
1.91104e-05
1.91042e-05
1.90981e-05
1.90922e-05
1.9086e-05
1.908e-05
1.9074e-05
1.90679e-05
1.90618e-05
1.90559e-05
1.90502e-05
1.90446e-05
1.90389e-05
1.90333e-05
1.90278e-05
1.90223e-05
1.90168e-05
1.90114e-05
1.90059e-05
1.90006e-05
1.89953e-05
1.89901e-05
1.89849e-05
1.89796e-05
1.89743e-05
1.89691e-05
1.89641e-05
1.89591e-05
1.89541e-05
1.89493e-05
1.89444e-05
1.89396e-05
1.89348e-05
1.89299e-05
1.8925e-05
1.89202e-05
1.89155e-05
1.8911e-05
1.89063e-05
1.89018e-05
1.88971e-05
1.88924e-05
1.88879e-05
1.88836e-05
1.88792e-05
1.88748e-05
1.88706e-05
1.88664e-05
1.8862e-05
1.88576e-05
1.88534e-05
1.88494e-05
1.88453e-05
1.88414e-05
1.88376e-05
1.88337e-05
1.88295e-05
1.88256e-05
1.88218e-05
1.88178e-05
1.88139e-05
1.88101e-05
1.88064e-05
1.88026e-05
1.8799e-05
1.87955e-05
1.87919e-05
1.87884e-05
1.87849e-05
1.87814e-05
1.87779e-05
1.87745e-05
1.8771e-05
1.87675e-05
1.87641e-05
1.87607e-05
1.87574e-05
1.87542e-05
1.87508e-05
1.87476e-05
1.87445e-05
1.87413e-05
1.87382e-05
1.87351e-05
1.87321e-05
1.87291e-05
1.87259e-05
1.87229e-05
1.87199e-05
1.87169e-05
1.87141e-05
1.87113e-05
1.87086e-05
1.87057e-05
1.87028e-05
1.87001e-05
1.86975e-05
1.86948e-05
1.86922e-05
1.86897e-05
1.86871e-05
1.86846e-05
1.8682e-05
1.86795e-05
1.86769e-05
1.86743e-05
1.86718e-05
1.86693e-05
1.86668e-05
1.86642e-05
1.86619e-05
1.86596e-05
1.86572e-05
1.86547e-05
1.86523e-05
1.86499e-05
1.86476e-05
1.86454e-05
1.86432e-05
1.86411e-05
1.86389e-05
1.86367e-05
1.86347e-05
1.86326e-05
1.86305e-05
1.86285e-05
1.86264e-05
1.86245e-05
1.86225e-05
1.86206e-05
1.86186e-05
1.86168e-05
1.86149e-05
1.8613e-05
1.86111e-05
1.86092e-05
1.86074e-05
1.86056e-05
1.86039e-05
1.86022e-05
1.86005e-05
1.85987e-05
1.8597e-05
1.85953e-05
1.85936e-05
1.8592e-05
1.85904e-05
1.85888e-05
1.85872e-05
1.85856e-05
1.8584e-05
1.85825e-05
1.8581e-05
1.85795e-05
1.8578e-05
1.85765e-05
1.85751e-05
1.85737e-05
1.85723e-05
1.85709e-05
1.85695e-05
1.8568e-05
1.85666e-05
1.85652e-05
1.85637e-05
1.85623e-05
1.8561e-05
1.85597e-05
1.85584e-05
1.85572e-05
1.8556e-05
1.85548e-05
1.85536e-05
1.85524e-05
1.85511e-05
1.85498e-05
1.85486e-05
1.85475e-05
1.85464e-05
1.85453e-05
1.85442e-05
1.8543e-05
1.85419e-05
1.85409e-05
1.85397e-05
1.85387e-05
1.85377e-05
1.85366e-05
1.85357e-05
1.85347e-05
1.85337e-05
1.85328e-05
1.85318e-05
1.85308e-05
1.85298e-05
1.85289e-05
1.8528e-05
1.85271e-05
1.85262e-05
1.85253e-05
1.85244e-05
1.85235e-05
1.85227e-05
1.85219e-05
1.8521e-05
1.85202e-05
1.85194e-05
1.85187e-05
1.85179e-05
1.85171e-05
1.85163e-05
1.85155e-05
1.85147e-05
1.8514e-05
1.85133e-05
1.85126e-05
1.85118e-05
1.85111e-05
1.85104e-05
1.85097e-05
1.8509e-05
1.85084e-05
1.85077e-05
1.85071e-05
1.85065e-05
1.85059e-05
1.85053e-05
1.85047e-05
1.85041e-05
1.85035e-05
1.85029e-05
1.85023e-05
1.85018e-05
1.85012e-05
1.85007e-05
1.85002e-05
1.84997e-05
1.84992e-05
1.84986e-05
1.84981e-05
1.84976e-05
1.84971e-05
1.84966e-05
1.84961e-05
1.84957e-05
1.84952e-05
1.84948e-05
1.84944e-05
1.84939e-05
1.84935e-05
1.84931e-05
1.84927e-05
1.84923e-05
1.84919e-05
1.84915e-05
1.84911e-05
1.84908e-05
1.84904e-05
1.849e-05
1.84897e-05
1.84893e-05
1.8489e-05
1.84887e-05
1.84884e-05
1.84881e-05
1.84878e-05
1.84875e-05
1.84872e-05
1.84869e-05
1.84866e-05
1.84864e-05
1.84861e-05
1.84858e-05
1.84856e-05
1.84853e-05
1.84851e-05
1.84849e-05
1.84846e-05
1.84844e-05
1.84842e-05
1.8484e-05
1.84838e-05
1.84836e-05
1.84834e-05
1.84832e-05
1.8483e-05
1.84828e-05
1.84827e-05
1.84825e-05
1.84824e-05
1.84822e-05
1.84821e-05
1.8482e-05
1.84818e-05
1.84817e-05
1.84816e-05
1.84815e-05
1.84814e-05
1.84813e-05
1.84812e-05
1.84811e-05
1.8481e-05
1.8481e-05
1.84809e-05
1.84808e-05
1.84808e-05
1.84807e-05
1.84807e-05
1.84807e-05
1.84806e-05
1.84806e-05
1.84806e-05
1.84806e-05
1.84805e-05
1.84805e-05
1.98406e-05
1.98296e-05
1.98189e-05
1.9808e-05
1.97969e-05
1.9786e-05
1.97751e-05
1.97643e-05
1.97538e-05
1.97432e-05
1.97323e-05
1.97217e-05
1.97113e-05
1.97009e-05
1.96904e-05
1.96801e-05
1.96701e-05
1.96598e-05
1.96494e-05
1.96391e-05
1.96291e-05
1.96194e-05
1.96097e-05
1.95999e-05
1.95904e-05
1.95811e-05
1.95714e-05
1.95617e-05
1.95523e-05
1.95431e-05
1.95338e-05
1.95246e-05
1.95153e-05
1.95059e-05
1.94969e-05
1.9488e-05
1.94789e-05
1.94704e-05
1.94621e-05
1.94534e-05
1.94444e-05
1.94357e-05
1.94269e-05
1.94185e-05
1.94102e-05
1.94016e-05
1.93933e-05
1.93853e-05
1.93771e-05
1.93686e-05
1.93601e-05
1.93521e-05
1.93442e-05
1.93362e-05
1.93283e-05
1.93207e-05
1.93129e-05
1.93051e-05
1.92975e-05
1.92899e-05
1.92823e-05
1.92747e-05
1.92672e-05
1.92599e-05
1.92527e-05
1.92453e-05
1.9238e-05
1.92309e-05
1.92237e-05
1.92168e-05
1.92098e-05
1.92028e-05
1.9196e-05
1.91894e-05
1.91827e-05
1.91758e-05
1.91691e-05
1.91624e-05
1.91558e-05
1.91492e-05
1.91426e-05
1.9136e-05
1.91295e-05
1.91232e-05
1.91169e-05
1.91104e-05
1.91041e-05
1.90981e-05
1.90921e-05
1.9086e-05
1.90799e-05
1.90739e-05
1.90679e-05
1.90618e-05
1.9056e-05
1.90503e-05
1.90447e-05
1.9039e-05
1.90333e-05
1.90278e-05
1.90223e-05
1.90167e-05
1.90114e-05
1.9006e-05
1.90006e-05
1.89953e-05
1.89901e-05
1.89848e-05
1.89795e-05
1.89743e-05
1.8969e-05
1.8964e-05
1.89591e-05
1.89542e-05
1.89493e-05
1.89445e-05
1.89396e-05
1.89348e-05
1.89299e-05
1.8925e-05
1.89202e-05
1.89155e-05
1.89109e-05
1.89063e-05
1.89017e-05
1.88971e-05
1.88924e-05
1.8888e-05
1.88836e-05
1.88792e-05
1.88749e-05
1.88707e-05
1.88664e-05
1.88619e-05
1.88575e-05
1.88535e-05
1.88494e-05
1.88453e-05
1.88414e-05
1.88376e-05
1.88336e-05
1.88296e-05
1.88256e-05
1.88217e-05
1.88177e-05
1.88139e-05
1.88101e-05
1.88064e-05
1.88027e-05
1.87991e-05
1.87955e-05
1.87919e-05
1.87884e-05
1.87849e-05
1.87814e-05
1.87779e-05
1.87744e-05
1.87709e-05
1.87675e-05
1.87642e-05
1.87608e-05
1.87575e-05
1.87541e-05
1.87508e-05
1.87477e-05
1.87445e-05
1.87413e-05
1.87382e-05
1.87351e-05
1.8732e-05
1.8729e-05
1.87259e-05
1.87229e-05
1.872e-05
1.8717e-05
1.87142e-05
1.87113e-05
1.87085e-05
1.87057e-05
1.87029e-05
1.87002e-05
1.86975e-05
1.86948e-05
1.86923e-05
1.86897e-05
1.86871e-05
1.86845e-05
1.8682e-05
1.86795e-05
1.86769e-05
1.86742e-05
1.86717e-05
1.86692e-05
1.86667e-05
1.86643e-05
1.86619e-05
1.86596e-05
1.86571e-05
1.86547e-05
1.86522e-05
1.86499e-05
1.86476e-05
1.86454e-05
1.86433e-05
1.86411e-05
1.86389e-05
1.86367e-05
1.86347e-05
1.86326e-05
1.86305e-05
1.86285e-05
1.86265e-05
1.86245e-05
1.86225e-05
1.86206e-05
1.86187e-05
1.86168e-05
1.86149e-05
1.86129e-05
1.8611e-05
1.86092e-05
1.86074e-05
1.86057e-05
1.86039e-05
1.86022e-05
1.86005e-05
1.85987e-05
1.8597e-05
1.85953e-05
1.85937e-05
1.85921e-05
1.85905e-05
1.85888e-05
1.85871e-05
1.85855e-05
1.8584e-05
1.85825e-05
1.85809e-05
1.85795e-05
1.8578e-05
1.85765e-05
1.85751e-05
1.85737e-05
1.85723e-05
1.85709e-05
1.85695e-05
1.8568e-05
1.85666e-05
1.85651e-05
1.85637e-05
1.85623e-05
1.8561e-05
1.85597e-05
1.85584e-05
1.85572e-05
1.8556e-05
1.85548e-05
1.85536e-05
1.85524e-05
1.85511e-05
1.85499e-05
1.85487e-05
1.85476e-05
1.85464e-05
1.85453e-05
1.85441e-05
1.8543e-05
1.8542e-05
1.85408e-05
1.85397e-05
1.85387e-05
1.85377e-05
1.85366e-05
1.85357e-05
1.85347e-05
1.85337e-05
1.85328e-05
1.85317e-05
1.85308e-05
1.85298e-05
1.85289e-05
1.8528e-05
1.85271e-05
1.85262e-05
1.85253e-05
1.85244e-05
1.85235e-05
1.85227e-05
1.85219e-05
1.8521e-05
1.85202e-05
1.85194e-05
1.85187e-05
1.85178e-05
1.85171e-05
1.85163e-05
1.85155e-05
1.85147e-05
1.8514e-05
1.85133e-05
1.85125e-05
1.85118e-05
1.85111e-05
1.85104e-05
1.85097e-05
1.8509e-05
1.85084e-05
1.85077e-05
1.85071e-05
1.85065e-05
1.85059e-05
1.85053e-05
1.85047e-05
1.85041e-05
1.85035e-05
1.85029e-05
1.85023e-05
1.85018e-05
1.85012e-05
1.85007e-05
1.85002e-05
1.84997e-05
1.84992e-05
1.84986e-05
1.84981e-05
1.84976e-05
1.84971e-05
1.84966e-05
1.84961e-05
1.84957e-05
1.84952e-05
1.84948e-05
1.84944e-05
1.84939e-05
1.84935e-05
1.84931e-05
1.84927e-05
1.84923e-05
1.84919e-05
1.84915e-05
1.84911e-05
1.84908e-05
1.84904e-05
1.849e-05
1.84897e-05
1.84894e-05
1.8489e-05
1.84887e-05
1.84884e-05
1.84881e-05
1.84878e-05
1.84875e-05
1.84872e-05
1.84869e-05
1.84866e-05
1.84864e-05
1.84861e-05
1.84858e-05
1.84856e-05
1.84853e-05
1.84851e-05
1.84849e-05
1.84846e-05
1.84844e-05
1.84842e-05
1.8484e-05
1.84838e-05
1.84836e-05
1.84834e-05
1.84832e-05
1.8483e-05
1.84828e-05
1.84827e-05
1.84825e-05
1.84824e-05
1.84822e-05
1.84821e-05
1.8482e-05
1.84818e-05
1.84817e-05
1.84816e-05
1.84815e-05
1.84814e-05
1.84813e-05
1.84812e-05
1.84811e-05
1.8481e-05
1.8481e-05
1.84809e-05
1.84808e-05
1.84808e-05
1.84807e-05
1.84807e-05
1.84807e-05
1.84806e-05
1.84806e-05
1.84806e-05
1.84806e-05
1.84805e-05
1.84805e-05
1.98408e-05
1.98298e-05
1.98188e-05
1.98079e-05
1.97969e-05
1.97859e-05
1.97752e-05
1.97643e-05
1.97537e-05
1.97432e-05
1.97323e-05
1.97217e-05
1.97114e-05
1.97011e-05
1.96905e-05
1.96802e-05
1.967e-05
1.96595e-05
1.96492e-05
1.96391e-05
1.96291e-05
1.96192e-05
1.96095e-05
1.95999e-05
1.95904e-05
1.9581e-05
1.95715e-05
1.9562e-05
1.95524e-05
1.95429e-05
1.95338e-05
1.95246e-05
1.95153e-05
1.95059e-05
1.94968e-05
1.9488e-05
1.94791e-05
1.94705e-05
1.9462e-05
1.94533e-05
1.94444e-05
1.94357e-05
1.94271e-05
1.94187e-05
1.94101e-05
1.94015e-05
1.93933e-05
1.93853e-05
1.93771e-05
1.93686e-05
1.93601e-05
1.9352e-05
1.93441e-05
1.93363e-05
1.93285e-05
1.93208e-05
1.9313e-05
1.93052e-05
1.92974e-05
1.92897e-05
1.92823e-05
1.92749e-05
1.92673e-05
1.92598e-05
1.92527e-05
1.92452e-05
1.92378e-05
1.92307e-05
1.92237e-05
1.92167e-05
1.92099e-05
1.92031e-05
1.91961e-05
1.91893e-05
1.91827e-05
1.91759e-05
1.91691e-05
1.91625e-05
1.91557e-05
1.91491e-05
1.91426e-05
1.91361e-05
1.91295e-05
1.91232e-05
1.91169e-05
1.91106e-05
1.91043e-05
1.9098e-05
1.90919e-05
1.90859e-05
1.90799e-05
1.90737e-05
1.90678e-05
1.90619e-05
1.90561e-05
1.90504e-05
1.90448e-05
1.90391e-05
1.90334e-05
1.90277e-05
1.90222e-05
1.90167e-05
1.90113e-05
1.9006e-05
1.90006e-05
1.89953e-05
1.899e-05
1.89848e-05
1.89796e-05
1.89743e-05
1.89691e-05
1.89641e-05
1.89591e-05
1.89542e-05
1.89493e-05
1.89444e-05
1.89396e-05
1.89348e-05
1.89298e-05
1.8925e-05
1.89202e-05
1.89155e-05
1.89109e-05
1.89062e-05
1.89016e-05
1.8897e-05
1.88925e-05
1.8888e-05
1.88836e-05
1.88792e-05
1.8875e-05
1.88706e-05
1.88662e-05
1.88618e-05
1.88576e-05
1.88535e-05
1.88495e-05
1.88454e-05
1.88415e-05
1.88376e-05
1.88337e-05
1.88296e-05
1.88256e-05
1.88217e-05
1.88178e-05
1.88139e-05
1.88101e-05
1.88064e-05
1.88027e-05
1.87991e-05
1.87955e-05
1.87919e-05
1.87885e-05
1.87849e-05
1.87813e-05
1.87778e-05
1.87744e-05
1.87709e-05
1.87675e-05
1.87641e-05
1.87608e-05
1.87575e-05
1.87541e-05
1.87509e-05
1.87476e-05
1.87445e-05
1.87413e-05
1.87382e-05
1.87351e-05
1.8732e-05
1.87289e-05
1.87259e-05
1.87229e-05
1.87199e-05
1.87171e-05
1.87142e-05
1.87114e-05
1.87085e-05
1.87057e-05
1.8703e-05
1.87002e-05
1.86975e-05
1.86949e-05
1.86923e-05
1.86897e-05
1.86872e-05
1.86846e-05
1.8682e-05
1.86794e-05
1.86768e-05
1.86741e-05
1.86716e-05
1.86692e-05
1.86667e-05
1.86643e-05
1.86619e-05
1.86595e-05
1.86571e-05
1.86547e-05
1.86522e-05
1.86499e-05
1.86477e-05
1.86454e-05
1.86432e-05
1.86411e-05
1.86389e-05
1.86368e-05
1.86347e-05
1.86326e-05
1.86305e-05
1.86285e-05
1.86265e-05
1.86245e-05
1.86225e-05
1.86206e-05
1.86187e-05
1.86168e-05
1.86148e-05
1.86129e-05
1.86111e-05
1.86093e-05
1.86075e-05
1.86057e-05
1.86039e-05
1.86022e-05
1.86004e-05
1.85987e-05
1.8597e-05
1.85953e-05
1.85937e-05
1.8592e-05
1.85904e-05
1.85888e-05
1.85871e-05
1.85856e-05
1.8584e-05
1.85824e-05
1.8581e-05
1.85795e-05
1.8578e-05
1.85766e-05
1.85751e-05
1.85737e-05
1.85723e-05
1.85709e-05
1.85695e-05
1.8568e-05
1.85665e-05
1.85651e-05
1.85637e-05
1.85623e-05
1.8561e-05
1.85597e-05
1.85584e-05
1.85572e-05
1.8556e-05
1.85548e-05
1.85536e-05
1.85523e-05
1.85511e-05
1.85499e-05
1.85487e-05
1.85476e-05
1.85464e-05
1.85453e-05
1.85441e-05
1.8543e-05
1.85419e-05
1.85408e-05
1.85397e-05
1.85387e-05
1.85377e-05
1.85367e-05
1.85357e-05
1.85347e-05
1.85337e-05
1.85328e-05
1.85318e-05
1.85308e-05
1.85299e-05
1.85289e-05
1.8528e-05
1.85271e-05
1.85262e-05
1.85253e-05
1.85244e-05
1.85236e-05
1.85227e-05
1.85219e-05
1.8521e-05
1.85202e-05
1.85194e-05
1.85186e-05
1.85179e-05
1.85171e-05
1.85163e-05
1.85155e-05
1.85147e-05
1.8514e-05
1.85132e-05
1.85125e-05
1.85118e-05
1.85111e-05
1.85104e-05
1.85097e-05
1.8509e-05
1.85084e-05
1.85078e-05
1.85071e-05
1.85065e-05
1.85059e-05
1.85053e-05
1.85047e-05
1.85041e-05
1.85035e-05
1.85029e-05
1.85023e-05
1.85018e-05
1.85012e-05
1.85007e-05
1.85002e-05
1.84997e-05
1.84991e-05
1.84986e-05
1.84981e-05
1.84976e-05
1.84971e-05
1.84966e-05
1.84962e-05
1.84957e-05
1.84952e-05
1.84948e-05
1.84944e-05
1.84939e-05
1.84935e-05
1.84931e-05
1.84927e-05
1.84923e-05
1.84919e-05
1.84915e-05
1.84911e-05
1.84908e-05
1.84904e-05
1.849e-05
1.84897e-05
1.84894e-05
1.8489e-05
1.84887e-05
1.84884e-05
1.84881e-05
1.84878e-05
1.84875e-05
1.84872e-05
1.84869e-05
1.84866e-05
1.84864e-05
1.84861e-05
1.84858e-05
1.84856e-05
1.84853e-05
1.84851e-05
1.84849e-05
1.84846e-05
1.84844e-05
1.84842e-05
1.8484e-05
1.84838e-05
1.84836e-05
1.84834e-05
1.84832e-05
1.8483e-05
1.84828e-05
1.84827e-05
1.84825e-05
1.84824e-05
1.84822e-05
1.84821e-05
1.8482e-05
1.84818e-05
1.84817e-05
1.84816e-05
1.84815e-05
1.84814e-05
1.84813e-05
1.84812e-05
1.84811e-05
1.8481e-05
1.8481e-05
1.84809e-05
1.84808e-05
1.84808e-05
1.84807e-05
1.84807e-05
1.84807e-05
1.84806e-05
1.84806e-05
1.84806e-05
1.84806e-05
1.84805e-05
1.84805e-05
1.98408e-05
1.98298e-05
1.98188e-05
1.98078e-05
1.97968e-05
1.97858e-05
1.97751e-05
1.97643e-05
1.97535e-05
1.97428e-05
1.97322e-05
1.97219e-05
1.97115e-05
1.97011e-05
1.96906e-05
1.96802e-05
1.967e-05
1.96595e-05
1.96492e-05
1.9639e-05
1.96291e-05
1.96192e-05
1.96094e-05
1.96e-05
1.95903e-05
1.95808e-05
1.95716e-05
1.9562e-05
1.95523e-05
1.95429e-05
1.95338e-05
1.95246e-05
1.95154e-05
1.9506e-05
1.94968e-05
1.94879e-05
1.94791e-05
1.94705e-05
1.94621e-05
1.94533e-05
1.94443e-05
1.94356e-05
1.94271e-05
1.94187e-05
1.94102e-05
1.94017e-05
1.93934e-05
1.93852e-05
1.93769e-05
1.93686e-05
1.93603e-05
1.93519e-05
1.93441e-05
1.93364e-05
1.93284e-05
1.93206e-05
1.93129e-05
1.93052e-05
1.92975e-05
1.92899e-05
1.92824e-05
1.92749e-05
1.92673e-05
1.92599e-05
1.92526e-05
1.92452e-05
1.92378e-05
1.92306e-05
1.92237e-05
1.92166e-05
1.92097e-05
1.92031e-05
1.91963e-05
1.91895e-05
1.91827e-05
1.91757e-05
1.9169e-05
1.91623e-05
1.91555e-05
1.91491e-05
1.91426e-05
1.9136e-05
1.91296e-05
1.91234e-05
1.91171e-05
1.91106e-05
1.91043e-05
1.90981e-05
1.9092e-05
1.90858e-05
1.90798e-05
1.90738e-05
1.90678e-05
1.90619e-05
1.90562e-05
1.90505e-05
1.90447e-05
1.90391e-05
1.90335e-05
1.90278e-05
1.90221e-05
1.90166e-05
1.90112e-05
1.9006e-05
1.90007e-05
1.89953e-05
1.899e-05
1.89847e-05
1.89796e-05
1.89743e-05
1.89692e-05
1.89642e-05
1.89591e-05
1.89542e-05
1.89493e-05
1.89445e-05
1.89397e-05
1.89348e-05
1.89298e-05
1.89249e-05
1.89202e-05
1.89155e-05
1.89108e-05
1.89062e-05
1.89017e-05
1.8897e-05
1.88924e-05
1.8888e-05
1.88836e-05
1.88793e-05
1.8875e-05
1.88706e-05
1.88661e-05
1.88618e-05
1.88575e-05
1.88535e-05
1.88495e-05
1.88455e-05
1.88415e-05
1.88376e-05
1.88335e-05
1.88295e-05
1.88257e-05
1.88217e-05
1.88178e-05
1.88139e-05
1.88101e-05
1.88064e-05
1.88028e-05
1.87992e-05
1.87955e-05
1.87919e-05
1.87884e-05
1.87849e-05
1.87813e-05
1.87778e-05
1.87744e-05
1.87709e-05
1.87675e-05
1.87642e-05
1.87609e-05
1.87575e-05
1.87541e-05
1.87508e-05
1.87476e-05
1.87444e-05
1.87413e-05
1.87381e-05
1.8735e-05
1.87319e-05
1.87289e-05
1.87259e-05
1.87229e-05
1.872e-05
1.87171e-05
1.87142e-05
1.87113e-05
1.87085e-05
1.87058e-05
1.8703e-05
1.87002e-05
1.86975e-05
1.86949e-05
1.86924e-05
1.86898e-05
1.86871e-05
1.86846e-05
1.86819e-05
1.86793e-05
1.86766e-05
1.86741e-05
1.86716e-05
1.86691e-05
1.86667e-05
1.86643e-05
1.86619e-05
1.86595e-05
1.86571e-05
1.86547e-05
1.86522e-05
1.86499e-05
1.86477e-05
1.86455e-05
1.86432e-05
1.86411e-05
1.86389e-05
1.86368e-05
1.86347e-05
1.86326e-05
1.86306e-05
1.86286e-05
1.86265e-05
1.86245e-05
1.86225e-05
1.86206e-05
1.86187e-05
1.86167e-05
1.86148e-05
1.8613e-05
1.86111e-05
1.86093e-05
1.86075e-05
1.86057e-05
1.86039e-05
1.86022e-05
1.86004e-05
1.85987e-05
1.8597e-05
1.85953e-05
1.85937e-05
1.8592e-05
1.85904e-05
1.85888e-05
1.85871e-05
1.85855e-05
1.8584e-05
1.85825e-05
1.8581e-05
1.85795e-05
1.8578e-05
1.85766e-05
1.85751e-05
1.85737e-05
1.85723e-05
1.85708e-05
1.85694e-05
1.85679e-05
1.85664e-05
1.8565e-05
1.85637e-05
1.85624e-05
1.8561e-05
1.85597e-05
1.85585e-05
1.85572e-05
1.8556e-05
1.85548e-05
1.85536e-05
1.85523e-05
1.85511e-05
1.85499e-05
1.85488e-05
1.85476e-05
1.85464e-05
1.85453e-05
1.85441e-05
1.8543e-05
1.85419e-05
1.85408e-05
1.85397e-05
1.85387e-05
1.85376e-05
1.85366e-05
1.85357e-05
1.85347e-05
1.85337e-05
1.85327e-05
1.85318e-05
1.85308e-05
1.85298e-05
1.85289e-05
1.8528e-05
1.85271e-05
1.85262e-05
1.85253e-05
1.85244e-05
1.85236e-05
1.85227e-05
1.85219e-05
1.8521e-05
1.85202e-05
1.85194e-05
1.85187e-05
1.85179e-05
1.85171e-05
1.85163e-05
1.85155e-05
1.85147e-05
1.8514e-05
1.85132e-05
1.85125e-05
1.85118e-05
1.85111e-05
1.85104e-05
1.85097e-05
1.85091e-05
1.85084e-05
1.85078e-05
1.85071e-05
1.85065e-05
1.85059e-05
1.85053e-05
1.85047e-05
1.85041e-05
1.85035e-05
1.85029e-05
1.85023e-05
1.85018e-05
1.85012e-05
1.85007e-05
1.85002e-05
1.84996e-05
1.84991e-05
1.84986e-05
1.84981e-05
1.84976e-05
1.84971e-05
1.84966e-05
1.84962e-05
1.84957e-05
1.84952e-05
1.84948e-05
1.84944e-05
1.84939e-05
1.84935e-05
1.84931e-05
1.84927e-05
1.84923e-05
1.84919e-05
1.84915e-05
1.84911e-05
1.84908e-05
1.84904e-05
1.84901e-05
1.84897e-05
1.84894e-05
1.8489e-05
1.84887e-05
1.84884e-05
1.84881e-05
1.84878e-05
1.84875e-05
1.84872e-05
1.84869e-05
1.84866e-05
1.84864e-05
1.84861e-05
1.84858e-05
1.84856e-05
1.84853e-05
1.84851e-05
1.84849e-05
1.84846e-05
1.84844e-05
1.84842e-05
1.8484e-05
1.84837e-05
1.84835e-05
1.84834e-05
1.84832e-05
1.8483e-05
1.84828e-05
1.84827e-05
1.84825e-05
1.84824e-05
1.84822e-05
1.84821e-05
1.8482e-05
1.84818e-05
1.84817e-05
1.84816e-05
1.84815e-05
1.84814e-05
1.84813e-05
1.84812e-05
1.84811e-05
1.8481e-05
1.8481e-05
1.84809e-05
1.84808e-05
1.84808e-05
1.84807e-05
1.84807e-05
1.84807e-05
1.84806e-05
1.84806e-05
1.84806e-05
1.84806e-05
1.84805e-05
1.84805e-05
1.98408e-05
1.98299e-05
1.98189e-05
1.98076e-05
1.97966e-05
1.97857e-05
1.97749e-05
1.97642e-05
1.97533e-05
1.97428e-05
1.97322e-05
1.97222e-05
1.9712e-05
1.9701e-05
1.96902e-05
1.96802e-05
1.967e-05
1.96597e-05
1.96495e-05
1.96391e-05
1.96289e-05
1.96191e-05
1.96094e-05
1.96e-05
1.95903e-05
1.95809e-05
1.95717e-05
1.95621e-05
1.95525e-05
1.95431e-05
1.95336e-05
1.95244e-05
1.95154e-05
1.95059e-05
1.94966e-05
1.94879e-05
1.94793e-05
1.94708e-05
1.9462e-05
1.9453e-05
1.94443e-05
1.94357e-05
1.9427e-05
1.94186e-05
1.94103e-05
1.94018e-05
1.93936e-05
1.93854e-05
1.93769e-05
1.93685e-05
1.93602e-05
1.9352e-05
1.93441e-05
1.93362e-05
1.93284e-05
1.93206e-05
1.93129e-05
1.93053e-05
1.92975e-05
1.92899e-05
1.92825e-05
1.9275e-05
1.92674e-05
1.926e-05
1.92527e-05
1.92452e-05
1.92377e-05
1.92304e-05
1.92235e-05
1.92166e-05
1.92097e-05
1.92031e-05
1.91963e-05
1.91895e-05
1.91827e-05
1.91757e-05
1.91689e-05
1.91623e-05
1.91557e-05
1.9149e-05
1.91424e-05
1.9136e-05
1.91297e-05
1.91234e-05
1.91171e-05
1.91107e-05
1.91043e-05
1.90981e-05
1.90919e-05
1.90858e-05
1.90798e-05
1.90739e-05
1.90679e-05
1.9062e-05
1.90563e-05
1.90506e-05
1.90448e-05
1.90391e-05
1.90335e-05
1.90278e-05
1.9022e-05
1.90164e-05
1.90112e-05
1.90059e-05
1.90006e-05
1.89953e-05
1.899e-05
1.89848e-05
1.89796e-05
1.89744e-05
1.89692e-05
1.89643e-05
1.89593e-05
1.89542e-05
1.89491e-05
1.89443e-05
1.89397e-05
1.89348e-05
1.89298e-05
1.8925e-05
1.89203e-05
1.89155e-05
1.89109e-05
1.89063e-05
1.89016e-05
1.88969e-05
1.88924e-05
1.8888e-05
1.88837e-05
1.88793e-05
1.8875e-05
1.88706e-05
1.88661e-05
1.88617e-05
1.88575e-05
1.88534e-05
1.88494e-05
1.88455e-05
1.88415e-05
1.88376e-05
1.88336e-05
1.88296e-05
1.88256e-05
1.88217e-05
1.88178e-05
1.88139e-05
1.88101e-05
1.88064e-05
1.88028e-05
1.87991e-05
1.87955e-05
1.8792e-05
1.87884e-05
1.87848e-05
1.87813e-05
1.87778e-05
1.87743e-05
1.87709e-05
1.87676e-05
1.87643e-05
1.87609e-05
1.87575e-05
1.87541e-05
1.87508e-05
1.87476e-05
1.87444e-05
1.87412e-05
1.87379e-05
1.87349e-05
1.87319e-05
1.87289e-05
1.87259e-05
1.8723e-05
1.87201e-05
1.87171e-05
1.87142e-05
1.87114e-05
1.87086e-05
1.87058e-05
1.87031e-05
1.87003e-05
1.86976e-05
1.86949e-05
1.86923e-05
1.86898e-05
1.86872e-05
1.86845e-05
1.86817e-05
1.86791e-05
1.86765e-05
1.8674e-05
1.86716e-05
1.86691e-05
1.86666e-05
1.86643e-05
1.86619e-05
1.86596e-05
1.86571e-05
1.86547e-05
1.86522e-05
1.86499e-05
1.86476e-05
1.86454e-05
1.86433e-05
1.86411e-05
1.8639e-05
1.86369e-05
1.86348e-05
1.86327e-05
1.86306e-05
1.86286e-05
1.86265e-05
1.86245e-05
1.86225e-05
1.86206e-05
1.86187e-05
1.86168e-05
1.86149e-05
1.8613e-05
1.86111e-05
1.86093e-05
1.86075e-05
1.86057e-05
1.86039e-05
1.86021e-05
1.86004e-05
1.85987e-05
1.8597e-05
1.85954e-05
1.85937e-05
1.85921e-05
1.85904e-05
1.85888e-05
1.85871e-05
1.85855e-05
1.8584e-05
1.85825e-05
1.8581e-05
1.85795e-05
1.85781e-05
1.85766e-05
1.85751e-05
1.85737e-05
1.85722e-05
1.85708e-05
1.85693e-05
1.85678e-05
1.85664e-05
1.8565e-05
1.85637e-05
1.85624e-05
1.85611e-05
1.85598e-05
1.85585e-05
1.85573e-05
1.8556e-05
1.85548e-05
1.85536e-05
1.85523e-05
1.85511e-05
1.85499e-05
1.85488e-05
1.85476e-05
1.85465e-05
1.85453e-05
1.85441e-05
1.8543e-05
1.85418e-05
1.85407e-05
1.85397e-05
1.85387e-05
1.85377e-05
1.85367e-05
1.85357e-05
1.85347e-05
1.85337e-05
1.85327e-05
1.85317e-05
1.85308e-05
1.85298e-05
1.85289e-05
1.8528e-05
1.85271e-05
1.85262e-05
1.85253e-05
1.85244e-05
1.85236e-05
1.85227e-05
1.85219e-05
1.85211e-05
1.85202e-05
1.85194e-05
1.85186e-05
1.85178e-05
1.8517e-05
1.85163e-05
1.85155e-05
1.85147e-05
1.8514e-05
1.85132e-05
1.85125e-05
1.85117e-05
1.8511e-05
1.85104e-05
1.85097e-05
1.85091e-05
1.85084e-05
1.85078e-05
1.85072e-05
1.85065e-05
1.85059e-05
1.85053e-05
1.85047e-05
1.8504e-05
1.85035e-05
1.85029e-05
1.85023e-05
1.85018e-05
1.85012e-05
1.85007e-05
1.85002e-05
1.84996e-05
1.84991e-05
1.84986e-05
1.84981e-05
1.84976e-05
1.84971e-05
1.84966e-05
1.84962e-05
1.84957e-05
1.84953e-05
1.84948e-05
1.84944e-05
1.84939e-05
1.84935e-05
1.84931e-05
1.84927e-05
1.84923e-05
1.84919e-05
1.84915e-05
1.84912e-05
1.84908e-05
1.84904e-05
1.84901e-05
1.84897e-05
1.84894e-05
1.8489e-05
1.84887e-05
1.84884e-05
1.84881e-05
1.84878e-05
1.84875e-05
1.84872e-05
1.84869e-05
1.84866e-05
1.84864e-05
1.84861e-05
1.84858e-05
1.84856e-05
1.84853e-05
1.84851e-05
1.84849e-05
1.84846e-05
1.84844e-05
1.84842e-05
1.84839e-05
1.84837e-05
1.84835e-05
1.84834e-05
1.84832e-05
1.8483e-05
1.84828e-05
1.84827e-05
1.84825e-05
1.84824e-05
1.84822e-05
1.84821e-05
1.8482e-05
1.84818e-05
1.84817e-05
1.84816e-05
1.84815e-05
1.84814e-05
1.84813e-05
1.84812e-05
1.84811e-05
1.8481e-05
1.8481e-05
1.84809e-05
1.84808e-05
1.84808e-05
1.84807e-05
1.84807e-05
1.84807e-05
1.84806e-05
1.84806e-05
1.84806e-05
1.84806e-05
1.84805e-05
1.84805e-05
1.98409e-05
1.98302e-05
1.98192e-05
1.98077e-05
1.97967e-05
1.97856e-05
1.97747e-05
1.97639e-05
1.97534e-05
1.9743e-05
1.97324e-05
1.97221e-05
1.97117e-05
1.97009e-05
1.96904e-05
1.96799e-05
1.96697e-05
1.96597e-05
1.96496e-05
1.96394e-05
1.96292e-05
1.96192e-05
1.96093e-05
1.95999e-05
1.95904e-05
1.95808e-05
1.95715e-05
1.95621e-05
1.95527e-05
1.95433e-05
1.95336e-05
1.95243e-05
1.95151e-05
1.95058e-05
1.94966e-05
1.94879e-05
1.94793e-05
1.94707e-05
1.94619e-05
1.9453e-05
1.94443e-05
1.94356e-05
1.9427e-05
1.94187e-05
1.94103e-05
1.94018e-05
1.93936e-05
1.93853e-05
1.93771e-05
1.93686e-05
1.93601e-05
1.93521e-05
1.93442e-05
1.93362e-05
1.93284e-05
1.93207e-05
1.93129e-05
1.93052e-05
1.92976e-05
1.929e-05
1.92825e-05
1.92751e-05
1.92676e-05
1.926e-05
1.92527e-05
1.92452e-05
1.92376e-05
1.92304e-05
1.92235e-05
1.92166e-05
1.92098e-05
1.92031e-05
1.91961e-05
1.91893e-05
1.91826e-05
1.91757e-05
1.91688e-05
1.91622e-05
1.91556e-05
1.91491e-05
1.91426e-05
1.9136e-05
1.91297e-05
1.91234e-05
1.91171e-05
1.91107e-05
1.91045e-05
1.90982e-05
1.90919e-05
1.90857e-05
1.90798e-05
1.9074e-05
1.9068e-05
1.9062e-05
1.90563e-05
1.90505e-05
1.90448e-05
1.90391e-05
1.90334e-05
1.90277e-05
1.9022e-05
1.90165e-05
1.90112e-05
1.90058e-05
1.90005e-05
1.89953e-05
1.89901e-05
1.89849e-05
1.89797e-05
1.89743e-05
1.89692e-05
1.89642e-05
1.89593e-05
1.89543e-05
1.89492e-05
1.89444e-05
1.89396e-05
1.89348e-05
1.89299e-05
1.8925e-05
1.89203e-05
1.89155e-05
1.89109e-05
1.89063e-05
1.89015e-05
1.8897e-05
1.88925e-05
1.8888e-05
1.88837e-05
1.88793e-05
1.88749e-05
1.88705e-05
1.8866e-05
1.88617e-05
1.88575e-05
1.88534e-05
1.88494e-05
1.88454e-05
1.88415e-05
1.88375e-05
1.88336e-05
1.88296e-05
1.88257e-05
1.88217e-05
1.88178e-05
1.8814e-05
1.88102e-05
1.88065e-05
1.88027e-05
1.87991e-05
1.87955e-05
1.8792e-05
1.87884e-05
1.87848e-05
1.87812e-05
1.87777e-05
1.87743e-05
1.8771e-05
1.87676e-05
1.87643e-05
1.87609e-05
1.87575e-05
1.87541e-05
1.87508e-05
1.87475e-05
1.87443e-05
1.87411e-05
1.87379e-05
1.87349e-05
1.87319e-05
1.87289e-05
1.8726e-05
1.87231e-05
1.87201e-05
1.87171e-05
1.87143e-05
1.87115e-05
1.87087e-05
1.87059e-05
1.87031e-05
1.87003e-05
1.86976e-05
1.8695e-05
1.86924e-05
1.86898e-05
1.8687e-05
1.86842e-05
1.86816e-05
1.8679e-05
1.86765e-05
1.8674e-05
1.86716e-05
1.86691e-05
1.86667e-05
1.86643e-05
1.86619e-05
1.86596e-05
1.86571e-05
1.86547e-05
1.86522e-05
1.86499e-05
1.86476e-05
1.86454e-05
1.86433e-05
1.86411e-05
1.8639e-05
1.86369e-05
1.86348e-05
1.86327e-05
1.86306e-05
1.86286e-05
1.86265e-05
1.86245e-05
1.86225e-05
1.86206e-05
1.86187e-05
1.86168e-05
1.86149e-05
1.86129e-05
1.86111e-05
1.86093e-05
1.86075e-05
1.86057e-05
1.86039e-05
1.86022e-05
1.86004e-05
1.85987e-05
1.8597e-05
1.85954e-05
1.85937e-05
1.8592e-05
1.85904e-05
1.85888e-05
1.85871e-05
1.85855e-05
1.85839e-05
1.85825e-05
1.8581e-05
1.85795e-05
1.8578e-05
1.85766e-05
1.85751e-05
1.85737e-05
1.85722e-05
1.85707e-05
1.85693e-05
1.85678e-05
1.85664e-05
1.8565e-05
1.85637e-05
1.85624e-05
1.85611e-05
1.85598e-05
1.85585e-05
1.85573e-05
1.8556e-05
1.85548e-05
1.85536e-05
1.85523e-05
1.85512e-05
1.855e-05
1.85488e-05
1.85476e-05
1.85465e-05
1.85453e-05
1.85441e-05
1.85429e-05
1.85418e-05
1.85407e-05
1.85397e-05
1.85387e-05
1.85377e-05
1.85367e-05
1.85357e-05
1.85347e-05
1.85337e-05
1.85327e-05
1.85317e-05
1.85308e-05
1.85298e-05
1.85289e-05
1.8528e-05
1.85271e-05
1.85262e-05
1.85253e-05
1.85244e-05
1.85236e-05
1.85227e-05
1.85219e-05
1.85211e-05
1.85202e-05
1.85194e-05
1.85186e-05
1.85178e-05
1.8517e-05
1.85162e-05
1.85155e-05
1.85147e-05
1.85139e-05
1.85132e-05
1.85125e-05
1.85117e-05
1.8511e-05
1.85104e-05
1.85097e-05
1.85091e-05
1.85084e-05
1.85078e-05
1.85072e-05
1.85065e-05
1.85059e-05
1.85053e-05
1.85046e-05
1.8504e-05
1.85035e-05
1.85029e-05
1.85023e-05
1.85018e-05
1.85012e-05
1.85007e-05
1.85002e-05
1.84996e-05
1.84991e-05
1.84986e-05
1.84981e-05
1.84976e-05
1.84971e-05
1.84966e-05
1.84962e-05
1.84957e-05
1.84953e-05
1.84948e-05
1.84944e-05
1.84939e-05
1.84935e-05
1.84931e-05
1.84927e-05
1.84923e-05
1.84919e-05
1.84915e-05
1.84912e-05
1.84908e-05
1.84904e-05
1.84901e-05
1.84897e-05
1.84894e-05
1.8489e-05
1.84887e-05
1.84884e-05
1.84881e-05
1.84878e-05
1.84875e-05
1.84872e-05
1.84869e-05
1.84866e-05
1.84864e-05
1.84861e-05
1.84858e-05
1.84856e-05
1.84853e-05
1.84851e-05
1.84849e-05
1.84846e-05
1.84844e-05
1.84842e-05
1.84839e-05
1.84837e-05
1.84835e-05
1.84834e-05
1.84832e-05
1.8483e-05
1.84828e-05
1.84827e-05
1.84825e-05
1.84824e-05
1.84822e-05
1.84821e-05
1.8482e-05
1.84818e-05
1.84817e-05
1.84816e-05
1.84815e-05
1.84814e-05
1.84813e-05
1.84812e-05
1.84811e-05
1.8481e-05
1.8481e-05
1.84809e-05
1.84808e-05
1.84808e-05
1.84807e-05
1.84807e-05
1.84807e-05
1.84806e-05
1.84806e-05
1.84806e-05
1.84806e-05
1.84805e-05
1.84805e-05
1.98409e-05
1.98301e-05
1.98192e-05
1.9808e-05
1.97969e-05
1.97857e-05
1.97746e-05
1.97638e-05
1.97532e-05
1.97428e-05
1.97324e-05
1.97221e-05
1.97115e-05
1.97007e-05
1.96902e-05
1.96799e-05
1.96698e-05
1.96596e-05
1.96496e-05
1.96397e-05
1.96293e-05
1.96192e-05
1.96095e-05
1.96001e-05
1.95906e-05
1.95808e-05
1.95714e-05
1.95619e-05
1.95526e-05
1.95432e-05
1.95336e-05
1.95241e-05
1.9515e-05
1.95058e-05
1.94968e-05
1.94881e-05
1.94793e-05
1.94705e-05
1.94618e-05
1.94532e-05
1.94445e-05
1.94357e-05
1.94271e-05
1.94187e-05
1.94103e-05
1.94017e-05
1.93935e-05
1.93853e-05
1.9377e-05
1.93687e-05
1.93602e-05
1.93521e-05
1.93442e-05
1.93362e-05
1.93283e-05
1.93207e-05
1.9313e-05
1.93052e-05
1.92976e-05
1.92901e-05
1.92826e-05
1.92752e-05
1.92676e-05