/*--------------------------------*- C++ -*----------------------------------*\
  =========                 |
  \\      /  F ield         | OpenFOAM: The Open Source CFD Toolbox
   \\    /   O peration     | Website:  https://openfoam.org
    \\  /    A nd           | Version:  7
     \\/     M anipulation  |
\*---------------------------------------------------------------------------*/
FoamFile
{
    version     2.0;
    format      ascii;
    class       volScalarField;
    location    "1500";
    object      muTotal;
}
// * * * * * * * * * * * * * * * * * * * * * * * * * * * * * * * * * * * * * //

dimensions      [1 -1 -1 0 0 0 0];

internalField   nonuniform List<scalar> 
160000
(
0.000255986
0.000257287
0.000204332
0.00022496
0.000210639
0.000207724
0.000246149
0.000295506
0.000245475
0.000247813
0.000241703
0.000232664
0.000227329
0.000258312
0.000255624
0.000241246
0.000242419
0.000264008
0.00030728
0.000292011
0.000236723
0.000237845
0.00027566
0.000263986
0.000222356
0.000223391
0.000291458
0.000292826
0.000294172
0.00029552
0.000293371
0.000244067
0.000245203
0.000246344
0.000247421
0.000251507
0.000320106
0.000321505
0.000322861
0.000324217
0.000233414
0.000234425
0.000265362
0.000323963
0.000325303
0.00032669
0.000328052
0.000262059
0.000263128
0.00026422
0.000273331
0.000334633
0.000335988
0.000337331
0.000338644
0.000307003
0.000283933
0.000285045
0.000293785
0.000318484
0.000319733
0.000320975
0.000322176
0.000323332
0.000324479
0.000297107
0.000291343
0.000292415
0.000293452
0.000329638
0.000330795
0.000331945
0.000333104
0.000334212
0.000335359
0.000336469
0.000337642
0.000338725
0.000339882
0.000340968
0.000342126
0.000343238
0.000344393
0.000330039
0.000331087
0.000334543
0.000332922
0.000333919
0.000335484
0.000324171
0.000325151
0.000354183
0.000355308
0.000356354
0.000336743
0.000337678
0.000365594
0.00036663
0.000367664
0.000368673
0.000369691
0.000350698
0.000356804
0.000357783
0.00036591
0.00034852
0.000349428
0.000380907
0.000381938
0.000382916
0.000383953
0.000384873
0.000378444
0.000370385
0.00037127
0.00036104
0.000361903
0.000397805
0.000398766
0.000399763
0.000392123
0.000397974
0.000410321
0.000411261
0.000412196
0.000391213
0.000368102
0.000368911
0.000371176
0.000356908
0.00035767
0.000360725
0.000418855
0.000398345
0.000367325
0.000368059
0.000368808
0.000369527
0.000370256
0.000370942
0.000379366
0.000372992
0.000373706
0.000417429
0.000418225
0.000419062
0.000419808
0.000405844
0.000381934
0.000382609
0.000398055
0.000398752
0.000399434
0.000386883
0.000387549
0.000419172
0.000419894
0.000420597
0.000408666
0.000388828
0.000389463
0.000390091
0.000390712
0.000388279
0.000384696
0.00042056
0.000421239
0.000421862
0.000422523
0.000423108
0.000423766
0.000395641
0.000396289
0.000402208
0.000402792
0.00040725
0.000430179
0.000430753
0.000423903
0.00042279
0.000423342
0.000448699
0.000426095
0.000426625
0.000437325
0.000446125
0.000441697
0.000408289
0.000408786
0.000436986
0.000387071
0.000378108
0.000378524
0.00037901
0.000379447
0.000379907
0.000447234
0.000447756
0.000428404
0.000391755
0.000392259
0.000392659
0.000394149
0.000424257
0.000450124
0.000450604
0.000451078
0.000455335
0.000461551
0.000462011
0.000455713
0.0004291
0.000429523
0.000451238
0.000446395
0.00044546
0.000445855
0.00045042
0.000450806
0.000451253
0.000451622
0.000450295
0.000450662
0.000477134
0.000477531
0.000477977
0.00046616
0.00042012
0.000420496
0.000420813
0.000421161
0.000455787
0.000455172
0.000455701
0.000456073
0.000456398
0.000456759
0.000457062
0.000457125
0.000458399
0.000458741
0.000466915
0.000460118
0.000460426
0.000463995
0.00043946
0.000438324
0.00043571
0.00040211
0.000400502
0.000407601
0.000407881
0.000401168
0.000408489
0.000446194
0.000446454
0.000446714
0.00042093
0.000438796
0.000439057
0.000425071
0.000425327
0.000438122
0.000451588
0.000467794
0.00046805
0.000468304
0.000462245
0.000450587
0.000424856
0.000425076
0.000459051
0.000459268
0.000459481
0.000457068
0.000479367
0.000479573
0.000479795
0.000447821
0.000442896
0.000444441
0.000474907
0.000475111
0.000475318
0.000453165
0.000446083
0.000429733
0.000423137
0.000469025
0.000471974
0.000435364
0.000435525
0.000485132
0.000485316
0.000485506
0.000485686
0.000460771
0.000460936
0.000467602
0.000467749
0.000473166
0.000454173
0.000418746
0.000405173
0.000405319
0.000405453
0.000411759
0.000411892
0.000425467
0.000471719
0.000471843
0.000471992
0.000472722
0.000472886
0.000441173
0.000421988
0.000422006
0.000422215
0.000467731
0.000454774
0.00045488
0.000458504
0.000465225
0.000456814
0.000456966
0.000459233
0.000466569
0.000464787
0.000458883
0.000457058
0.000441866
0.000427922
0.000427972
0.000428096
0.000428148
0.000428264
0.000429334
0.000406102
0.000350622
0.000350613
0.000350745
0.000350753
0.000350841
0.000351962
0.000567653
0.000574984
0.000575174
0.000575157
0.000575368
0.000575278
0.00052352
0.000500112
0.000475761
0.000475822
0.000488472
0.00048852
0.000488596
0.000461012
0.000455153
0.000455176
0.000471956
0.000488875
0.000465529
0.000456035
0.000456124
0.000456099
0.000472342
0.000472372
0.000472568
0.000472462
0.000482672
0.000482716
0.000482746
0.00047459
0.000474632
0.000474911
0.000474946
0.000483119
0.000483127
0.000483185
0.00048318
0.000478242
0.000467738
0.000467755
0.000467765
0.000467775
0.000458878
0.000458906
0.000458925
0.000460108
0.000454203
0.000439675
0.000434938
0.000433309
0.000433295
0.000377578
0.000259196
0.000259339
0.000259361
0.000259377
0.000224102
0.000217323
0.000282419
0.00020474
0.000205771
0.000215703
0.000231222
0.000232385
0.000242655
0.000241734
0.000242505
0.000253752
0.000265481
0.000266815
0.000268161
0.000257561
0.000242394
0.000262684
0.000246165
0.000235621
0.000236748
0.000273149
0.000275679
0.000276991
0.000242786
0.000290036
0.000291416
0.000292804
0.000294169
0.000281604
0.000250682
0.000249378
0.000254158
0.000246337
0.000247424
0.000309529
0.000310933
0.000288182
0.000322808
0.000265612
0.000233438
0.000234427
0.000242586
0.000318397
0.000325292
0.000326695
0.000317936
0.000279981
0.00026312
0.000264224
0.000265321
0.000330452
0.000326642
0.000317396
0.00031867
0.000335888
0.000335327
0.000300654
0.000313017
0.000314204
0.000319727
0.000320956
0.000297469
0.000318636
0.000321789
0.000294441
0.000324207
0.000327339
0.000328506
0.000329646
0.000309917
0.000302207
0.000303221
0.000327042
0.000316556
0.000317636
0.000318698
0.000319765
0.000339849
0.000340986
0.000337861
0.000332352
0.000343557
0.000345516
0.000346613
0.000334554
0.000332918
0.000349962
0.000351012
0.000352101
0.000353147
0.000354235
0.000355275
0.000356025
0.000335189
0.000349817
0.000344443
0.000340211
0.000332147
0.000333061
0.000333952
0.00033489
0.000376469
0.000392731
0.00037153
0.00037645
0.000377425
0.000356235
0.000357149
0.0003581
0.000359007
0.000359924
0.000387611
0.000388569
0.000394903
0.000395864
0.000396818
0.000397798
0.000398776
0.000399734
0.000371374
0.000372239
0.000373073
0.000373932
0.000374777
0.000387781
0.000374473
0.000385324
0.000393376
0.00036302
0.000357664
0.000374264
0.000418886
0.000419815
0.000420713
0.000424896
0.000428915
0.000371691
0.000380647
0.000413027
0.000414977
0.0004158
0.000416644
0.000417411
0.000396926
0.000377368
0.000414417
0.000391604
0.000381926
0.000385783
0.000377568
0.000378237
0.00041061
0.000417744
0.000418467
0.000419197
0.000419901
0.000413455
0.000381144
0.000392352
0.000392997
0.000384909
0.000369139
0.000369727
0.000384694
0.000420575
0.00042122
0.000417613
0.000384285
0.000379698
0.000380308
0.000380855
0.000405042
0.000441351
0.000442023
0.000454304
0.000430178
0.000430762
0.000448768
0.000434012
0.000451294
0.000451875
0.00042609
0.000446595
0.000460016
0.000460616
0.000408002
0.000408287
0.000462314
0.000462903
0.000463476
0.000420521
0.000420026
0.000425879
0.000426385
0.000446734
0.00044725
0.000440991
0.000391302
0.000391811
0.000392215
0.000392685
0.000411984
0.000449641
0.000450117
0.000450602
0.000403893
0.000404319
0.000408105
0.000408511
0.000408914
0.000424893
0.000450811
0.00045124
0.000451662
0.00045559
0.000452244
0.000408686
0.000409077
0.000409426
0.000415077
0.000437087
0.000476729
0.00047713
0.000477599
0.000477939
0.000478435
0.000478736
0.000479213
0.00047951
0.000479936
0.000456601
0.000403275
0.000403602
0.000403906
0.000456398
0.000432941
0.000433265
0.000433569
0.000433874
0.000434177
0.000483316
0.000483728
0.000484075
0.000484394
0.000484806
0.000485054
0.00047898
0.000400168
0.000400558
0.000400789
0.000407858
0.000401195
0.000401388
0.000443229
0.000438774
0.000413647
0.000413873
0.000414122
0.000414373
0.00041462
0.000456904
0.000465783
0.000466038
0.000449617
0.000418629
0.000418854
0.000474637
0.00047489
0.000475142
0.000427842
0.000405515
0.000405712
0.000405901
0.000454793
0.00048118
0.000454479
0.000421259
0.000421508
0.000436606
0.000457423
0.000460874
0.000455724
0.000422349
0.000422616
0.000422717
0.000422964
0.000423122
0.000456384
0.000471974
0.000484074
0.000488381
0.000443406
0.000413722
0.00041387
0.000497208
0.000497367
0.000497579
0.000497708
0.000498024
0.000476364
0.000404851
0.000405022
0.000405163
0.000405635
0.000416331
0.000441461
0.000441595
0.000441726
0.000471726
0.000471898
0.00047203
0.0004586
0.000421659
0.000421874
0.000421884
0.000422102
0.000477491
0.000489199
0.000489365
0.000489448
0.000489632
0.000489688
0.000489944
0.00048993
0.000473272
0.000473086
0.000425774
0.000425907
0.000464023
0.000486944
0.000456409
0.00043331
0.000441013
0.000428182
0.000428242
0.000481054
0.000481634
0.000430767
0.000431913
0.000445318
0.000364262
0.000350838
0.000443777
0.000574891
0.00057504
0.000523033
0.000439406
0.000437166
0.000437302
0.000437323
0.000463962
0.000494952
0.000495006
0.000473217
0.000476999
0.000488587
0.00048869
0.000488708
0.000488828
0.000488821
0.000488937
0.000488928
0.000489093
0.000489032
0.00046622
0.000449971
0.000450118
0.00045007
0.000450194
0.000450153
0.000450266
0.000457024
0.000470345
0.000480818
0.000480884
0.000483107
0.000483099
0.000483169
0.000483154
0.000483353
0.000474388
0.000458238
0.000458332
0.0004657
0.000453694
0.000453713
0.000460856
0.000484353
0.000484349
0.000466345
0.000481668
0.000433341
0.000433329
0.000466407
0.000415083
0.000259279
0.000259282
0.000259373
0.000259361
0.000224086
0.000238529
0.000282425
0.000283877
0.000270061
0.000228023
0.000256775
0.000255917
0.000243024
0.000253716
0.000255027
0.000256319
0.000257752
0.000266779
0.000268145
0.000269471
0.000257222
0.000229027
0.0002421
0.000261326
0.000262592
0.000263287
0.000257244
0.00026679
0.000288707
0.000290047
0.000291395
0.000292769
0.000294148
0.00027755
0.000274095
0.000276889
0.000260009
0.000246343
0.000247439
0.000297774
0.000303513
0.000288166
0.000287712
0.0002865
0.000296231
0.000294891
0.000286079
0.000292391
0.000264189
0.00026532
0.000282587
0.000296666
0.000297872
0.000299142
0.000284557
0.0002857
0.00030636
0.000333275
0.00033459
0.000335893
0.000337198
0.000315374
0.00028649
0.000287582
0.000301583
0.000320923
0.000284981
0.000284673
0.000293359
0.000294452
0.000295532
0.000296584
0.000302822
0.000329658
0.000330793
0.000322262
0.000303222
0.000304233
0.000335318
0.00033646
0.000337621
0.000338725
0.000339893
0.00033766
0.000347491
0.000315068
0.000315081
0.000316068
0.000346614
0.000343186
0.000350569
0.00032366
0.000324638
0.000338277
0.000338524
0.000338233
0.000347249
0.000333637
0.000334606
0.000349804
0.000350792
0.000351789
0.000352787
0.000353777
0.0003734
0.000374423
0.00037545
0.000392736
0.000393797
0.000346276
0.000347187
0.000348085
0.000380275
0.000381267
0.000382254
0.000383206
0.000379955
0.000379207
0.000380465
0.000381386
0.000393076
0.000373923
0.000348076
0.000348921
0.000349739
0.000381845
0.000382872
0.00038374
0.000375333
0.000376189
0.000390015
0.000392515
0.000393376
0.000391338
0.000395275
0.000396136
0.000396993
0.00039786
0.000408797
0.000409619
0.000428915
0.000417575
0.000373997
0.000378229
0.000414966
0.000365414
0.000366097
0.000404596
0.000396202
0.000377368
0.00040592
0.000409351
0.000396656
0.000409594
0.000410323
0.000405227
0.000410595
0.000376859
0.000375661
0.000376295
0.000424474
0.000386595
0.000372055
0.000372665
0.000392998
0.000435889
0.000435792
0.000431846
0.000412025
0.00039754
0.000398161
0.000398799
0.000401522
0.00037975
0.000380243
0.000380878
0.000381355
0.000381974
0.00038787
0.000454309
0.00045495
0.000455592
0.000456213
0.000451351
0.000411953
0.000399806
0.000442909
0.00045903
0.00045961
0.000460595
0.000461228
0.000461746
0.000462381
0.000404944
0.000390165
0.000392962
0.0004273
0.000423747
0.000426385
0.000420988
0.00042146
0.000427554
0.000414791
0.000391795
0.000404945
0.00042899
0.000423012
0.000402289
0.000402728
0.000403134
0.000403555
0.000421455
0.000421882
0.000422303
0.00043064
0.00045276
0.000429351
0.000429731
0.000450821
0.000455585
0.000456007
0.000419775
0.00040906
0.00043793
0.000475892
0.000476329
0.00047672
0.000477172
0.000477536
0.000477993
0.000478341
0.000478798
0.000479124
0.000475728
0.000454502
0.000454868
0.000432233
0.000406028
0.000422652
0.000406835
0.000407135
0.000434755
0.000482336
0.000482678
0.000483027
0.000483359
0.000483695
0.000484062
0.000464187
0.000426534
0.00039972
0.000399908
0.000400274
0.000401924
0.000413615
0.000403323
0.000400439
0.000404385
0.000439023
0.000435358
0.000428547
0.000456908
0.000451363
0.000417484
0.000450181
0.000461805
0.000462049
0.000466046
0.000462611
0.000462866
0.000448628
0.000418884
0.000419101
0.000419314
0.00046908
0.000493588
0.000493808
0.000494068
0.000494275
0.000481222
0.000499358
0.000423517
0.000421429
0.000421691
0.000421802
0.00042206
0.00042217
0.000422425
0.000440014
0.000486413
0.000486611
0.000486814
0.000487005
0.000488003
0.000488194
0.000488385
0.000487599
0.00049681
0.000497122
0.000497186
0.000497508
0.000497546
0.00049785
0.000494225
0.000404663
0.000404844
0.00045047
0.000517473
0.000500288
0.000417463
0.000417485
0.00041761
0.000452537
0.000470414
0.0004214
0.000421519
0.000421587
0.000421759
0.000421844
0.000467921
0.000488959
0.000489071
0.000489216
0.000489322
0.00048952
0.000489569
0.000489825
0.000435605
0.000421454
0.000421557
0.000421653
0.000421751
0.000446777
0.000481128
0.000486946
0.000450864
0.000433319
0.000449355
0.000435885
0.0004745
0.000540909
0.000554029
0.000548568
0.000505277
0.000447764
0.000454816
0.000482672
0.000471359
0.000436974
0.000436945
0.000437104
0.000436993
0.000437236
0.000492544
0.000494812
0.000494883
0.000494951
0.000479912
0.000473207
0.000495218
0.000450912
0.000428531
0.000428616
0.000430459
0.000488599
0.000488874
0.00048904
0.000488981
0.000473978
0.000434148
0.000541789
0.000544496
0.000528573
0.000575326
0.000573679
0.000479765
0.000420618
0.000420522
0.000420679
0.000420602
0.000420735
0.000420753
0.000454607
0.000442112
0.000442091
0.000479121
0.000479222
0.000472474
0.000465696
0.000483516
0.000484337
0.000484348
0.000484359
0.000441326
0.000464485
0.00048239
0.000482401
0.00048241
0.000482417
0.000360675
0.000259232
0.000259367
0.000259293
0.000259369
0.000232963
0.000237435
0.000247694
0.000250994
0.000250829
0.000255512
0.000256798
0.000250538
0.000237355
0.000234959
0.000236136
0.00023929
0.000240604
0.00025546
0.000266095
0.000237231
0.000233369
0.000229024
0.000246884
0.000253403
0.000262589
0.000263851
0.000257251
0.000266771
0.000265964
0.000267196
0.000288494
0.000275498
0.000234285
0.000241158
0.000280569
0.000285777
0.000291035
0.000294086
0.000295436
0.000296738
0.000280145
0.000281331
0.000295938
0.000297238
0.000298567
0.000299866
0.000278976
0.000280743
0.000270613
0.00026529
0.000266376
0.000267448
0.000276054
0.000299136
0.000300376
0.000298445
0.000283214
0.000288455
0.000275047
0.000276105
0.000280604
0.000292693
0.000307212
0.000309114
0.000310271
0.000311445
0.000267929
0.000284664
0.000308941
0.000322501
0.000328777
0.00036322
0.000364503
0.000306504
0.000307561
0.000313206
0.000333321
0.000334446
0.000326933
0.000290321
0.000291268
0.000292242
0.00029321
0.000326223
0.000354209
0.000355402
0.000328855
0.000345929
0.00034886
0.000349963
0.000351091
0.000352167
0.000324741
0.000312978
0.000313919
0.000338216
0.000339236
0.000333629
0.00034919
0.000343576
0.000275508
0.000324039
0.000352764
0.00035377
0.000336006
0.000390712
0.000391754
0.000392744
0.000400825
0.000373075
0.000347255
0.000349154
0.000371661
0.000365214
0.000372727
0.000383196
0.000350504
0.000342054
0.00038393
0.000389391
0.000390326
0.000364774
0.000348093
0.000348918
0.000354542
0.000342735
0.000335615
0.000336385
0.000375328
0.000376191
0.000365073
0.000365873
0.000380364
0.000384929
0.000371195
0.000382167
0.000381643
0.000441836
0.000450244
0.000451139
0.000437915
0.000360844
0.000361582
0.000362222
0.00036299
0.00036366
0.000412161
0.000412946
0.000413797
0.000414539
0.000415371
0.000409859
0.000410933
0.00039821
0.000369656
0.000370304
0.000370939
0.000396236
0.00042937
0.000431593
0.000432308
0.000433075
0.000433756
0.000434495
0.000435173
0.000435922
0.000432726
0.000386165
0.000357518
0.000407668
0.000460167
0.000481295
0.000482011
0.000482763
0.000430865
0.000380875
0.000423064
0.000423674
0.000401768
0.000402336
0.000402898
0.000403458
0.000436858
0.000443786
0.000371866
0.000372359
0.00042279
0.000459443
0.000460013
0.00046065
0.000461177
0.000458612
0.000370222
0.000370742
0.000390159
0.000426797
0.000427304
0.000388814
0.000389248
0.000389695
0.0004283
0.000428797
0.000417713
0.000392093
0.000369447
0.000457767
0.000477764
0.000478246
0.000478777
0.000406447
0.000403517
0.00040395
0.000404348
0.000404757
0.000451862
0.000452777
0.000453202
0.000453657
0.000454057
0.000453682
0.000444951
0.000444168
0.000436319
0.000473359
0.000475869
0.000470951
0.00043788
0.000414092
0.000414454
0.00042697
0.000434695
0.000455291
0.000467652
0.000469112
0.000458939
0.000395161
0.000376905
0.000450035
0.000522897
0.000523314
0.000523675
0.000468146
0.000403895
0.000404181
0.000404459
0.00042578
0.000483722
0.000484069
0.000484387
0.000484745
0.000483169
0.000400015
0.000400212
0.000409635
0.000413586
0.000400188
0.000400435
0.000450908
0.000456123
0.000456365
0.000456686
0.000456909
0.000457225
0.000457446
0.000461088
0.000469303
0.000469561
0.000467543
0.000417656
0.00041499
0.000475601
0.00052079
0.000521109
0.000508744
0.000437856
0.000438071
0.00043828
0.000447543
0.000494293
0.000510784
0.000504699
0.000489547
0.000449931
0.000421641
0.000421877
0.000433175
0.000439653
0.000439839
0.000424407
0.000424586
0.000450484
0.000486807
0.000487005
0.000472185
0.000472386
0.000496424
0.000496614
0.000496853
0.000458423
0.000435206
0.000435345
0.000476159
0.000448505
0.000396504
0.000403906
0.000524476
0.000542161
0.000542422
0.000542511
0.000542729
0.000508238
0.000419501
0.000418735
0.00041886
0.000418984
0.000465047
0.000471753
0.000421725
0.000421877
0.00042196
0.000422104
0.000431224
0.000489107
0.000489335
0.00046477
0.000450037
0.000455006
0.000437484
0.000435921
0.000466722
0.000470489
0.000477785
0.000477889
0.00044947
0.000474422
0.00050818
0.000526515
0.00055361
0.000553712
0.00055394
0.000553936
0.000554233
0.000536305
0.000445557
0.000434232
0.000434325
0.000482687
0.000499771
0.000499833
0.000487517
0.000438891
0.00043717
0.000437198
0.0004373
0.000438367
0.000443513
0.000494973
0.000495091
0.000495155
0.00049522
0.00048916
0.000490808
0.00049086
0.000478634
0.000419618
0.000425969
0.000423315
0.000466503
0.000436806
0.000377155
0.000496561
0.000583817
0.00058384
0.000583984
0.000583938
0.000539176
0.000454242
0.000420649
0.000420583
0.000420707
0.000420661
0.00044457
0.000479041
0.000462017
0.000442135
0.00044215
0.00047918
0.000479325
0.000479224
0.000479288
0.000484344
0.00042658
0.000423305
0.00042339
0.000423372
0.000423411
0.000465908
0.00048241
0.000482417
0.000453662
0.000405496
0.000293193
0.000259382
0.000259369
0.000238364
0.000272134
0.00025636
0.000245839
0.000247053
0.000242427
0.000238337
0.000240158
0.000228865
0.00023
0.000238954
0.000239261
0.000253779
0.000231791
0.000232971
0.000254703
0.000255946
0.000257217
0.000258482
0.000253328
0.000250979
0.000252174
0.00025659
0.000258687
0.0002599
0.000270623
0.000288472
0.000259179
0.000229927
0.000230971
0.000232029
0.000233064
0.000273618
0.000235157
0.000287258
0.000308002
0.0003093
0.000310636
0.000292259
0.000293576
0.000297522
0.000292612
0.000274195
0.000275333
0.000299521
0.000300907
0.000288302
0.000289473
0.000281118
0.000282297
0.000298191
0.000282103
0.000283222
0.000285332
0.00031108
0.000312298
0.000297864
0.000298986
0.000299638
0.000300766
0.00031018
0.000287291
0.000267897
0.000268888
0.000269843
0.000270848
0.000271865
0.000357442
0.000365362
0.00036666
0.0003679
0.00036915
0.000364689
0.000321265
0.000328111
0.000295905
0.0002913
0.000295546
0.000293207
0.000294167
0.000295136
0.00035704
0.00035818
0.000359309
0.000348422
0.000339804
0.000340865
0.000350079
0.000348377
0.000341419
0.000318908
0.000330285
0.000353758
0.000354793
0.000353612
0.000330149
0.000270889
0.000271649
0.000272386
0.00028525
0.000273921
0.000354049
0.000417824
0.000418908
0.00042007
0.000421132
0.000422293
0.000366161
0.000365083
0.000350601
0.000340678
0.000362418
0.000340708
0.000341599
0.000342412
0.000343262
0.000390312
0.000383876
0.000348086
0.000368229
0.000364235
0.000343365
0.000362102
0.000370513
0.000358548
0.000359376
0.000360172
0.000382617
0.000383436
0.000382131
0.000313444
0.000302823
0.000303459
0.000304121
0.00043515
0.000451185
0.000452048
0.000452943
0.000453805
0.000395678
0.000362962
0.000363688
0.000364364
0.000365097
0.000395978
0.00039564
0.000396356
0.000410199
0.000410935
0.00040957
0.000400903
0.000404286
0.000404749
0.000370821
0.000371499
0.00037208
0.000372763
0.00037336
0.000411863
0.00043445
0.000419646
0.000306855
0.000305822
0.000306345
0.000306783
0.000309127
0.000307738
0.000456998
0.000482061
0.000482762
0.000483474
0.000426566
0.000423037
0.000423666
0.00042708
0.000427682
0.000428275
0.000420526
0.00042109
0.000432324
0.000407045
0.000372333
0.000372816
0.000373274
0.00041576
0.000460593
0.000461251
0.000369977
0.000370285
0.000370729
0.0003712
0.000387774
0.000388332
0.000388795
0.000389244
0.000423035
0.000428288
0.000428793
0.00039133
0.000332337
0.000332707
0.000430895
0.000477739
0.000478283
0.000478747
0.000440211
0.000407147
0.000438413
0.000451364
0.000451812
0.000452257
0.000431026
0.000414363
0.000414746
0.000415138
0.000453506
0.000461708
0.000462141
0.000462565
0.000462983
0.000429363
0.000429266
0.000429632
0.000414102
0.000414438
0.000433563
0.000463132
0.000467258
0.000467636
0.00046128
0.000458583
0.000343866
0.000335912
0.000336172
0.000480896
0.000523303
0.000523704
0.000524054
0.000524478
0.000524788
0.000522748
0.000428988
0.000426219
0.00042651
0.000412526
0.000399399
0.000399752
0.000399955
0.000400283
0.000427706
0.000430551
0.00043421
0.000453714
0.000450882
0.000456089
0.000456382
0.000453338
0.000434765
0.000402043
0.000402275
0.0004025
0.000423277
0.000440854
0.000350749
0.000343966
0.00034416
0.000344358
0.000486844
0.000521093
0.000521405
0.000521609
0.000501558
0.000522107
0.0005224
0.000522598
0.000518554
0.000463959
0.000421326
0.000421499
0.000421706
0.000442307
0.000446203
0.000433018
0.000433205
0.000436043
0.000436222
0.0004311
0.000422404
0.000422572
0.000440207
0.000483547
0.000496406
0.000496656
0.000496808
0.00048885
0.000438971
0.000342937
0.000343053
0.00034318
0.000343307
0.000343429
0.000505432
0.000542248
0.000542339
0.00053777
0.000484428
0.000484581
0.000491812
0.000491945
0.000489542
0.000488704
0.000488837
0.000488976
0.000489108
0.000485892
0.000486016
0.000479681
0.000427825
0.000428005
0.000427998
0.000428223
0.000428215
0.000428437
0.000428495
0.000451242
0.000477565
0.000477675
0.000477784
0.000416581
0.000344655
0.000344709
0.000344774
0.000344856
0.000344939
0.000479094
0.000553833
0.000554086
0.000554044
0.000554218
0.000554231
0.000554343
0.000446278
0.000425856
0.000425894
0.000426
0.000461394
0.000471563
0.000471637
0.000466914
0.00047179
0.000471984
0.000472055
0.000472125
0.000470774
0.000470857
0.000495218
0.000495268
0.00048846
0.000479111
0.000456789
0.000419596
0.000416394
0.000398401
0.000311542
0.000300133
0.000300208
0.00030022
0.000527839
0.000583913
0.000583907
0.000584036
0.000583987
0.000438506
0.000420572
0.000420678
0.000488752
0.000482941
0.000446426
0.000479097
0.000479089
0.000479191
0.000479143
0.000479315
0.000479203
0.000473305
0.000498758
0.000498828
0.000498794
0.000498862
0.000477091
0.000424813
0.000423382
0.000423425
0.000423404
0.000436943
0.00046994
0.000437087
0.000294652
0.000259382
0.000259383
0.000222127
0.000269992
0.0002413
0.000227141
0.000230121
0.000245933
0.000237672
0.000238869
0.000253984
0.000257646
0.000258939
0.000252089
0.000260619
0.000261966
0.000263291
0.000247701
0.000248922
0.000255186
0.000258466
0.000259238
0.000274663
0.000241721
0.000232834
0.000233887
0.000265638
0.000254273
0.000255426
0.000257997
0.000266064
0.000264549
0.000232026
0.000233066
0.00023411
0.000235164
0.000304961
0.000307994
0.000309318
0.000310631
0.000312009
0.000313369
0.000314745
0.000315703
0.000285363
0.000298397
0.000299646
0.000300906
0.000280674
0.00028182
0.000294801
0.000286471
0.000276902
0.000278006
0.00029577
0.00029695
0.000298108
0.000312289
0.000313502
0.000308627
0.000308535
0.000309699
0.000298805
0.000301468
0.000282627
0.00026888
0.000269858
0.000270856
0.000271879
0.000314142
0.000365389
0.000366637
0.000367912
0.000359134
0.000312089
0.000313132
0.000328123
0.000329265
0.000330388
0.00032129
0.000298445
0.000321551
0.000329815
0.000330877
0.00033195
0.000346343
0.000357319
0.000358461
0.000359587
0.000360712
0.000313458
0.000308132
0.000309038
0.000352699
0.000353744
0.00031805
0.000303637
0.00027013
0.000270893
0.000271628
0.000272404
0.000273157
0.000273918
0.000411362
0.000417813
0.000418977
0.000418869
0.000376692
0.000361119
0.000371741
0.000372716
0.0003737
0.000336922
0.000337758
0.000357631
0.000386408
0.000357872
0.000343236
0.000344062
0.000376592
0.000407945
0.000408944
0.000409909
0.000410873
0.00038395
0.000377958
0.000358673
0.00036963
0.000376956
0.000377788
0.000364656
0.000304428
0.00030218
0.0003028
0.000303478
0.000304104
0.000450238
0.000451167
0.000452121
0.000452948
0.000453847
0.000437409
0.000385946
0.000385892
0.000406436
0.000366629
0.000367362
0.000398086
0.000404036
0.000404786
0.000376065
0.000376742
0.000393715
0.000404304
0.000405003
0.000405741
0.000406418
0.000398671
0.000411209
0.000433033
0.000433739
0.000434505
0.000435175
0.000362497
0.000305857
0.000306294
0.000306816
0.000307263
0.000307755
0.000404543
0.000482064
0.000482781
0.00047902
0.000468358
0.00046902
0.00040951
0.000407635
0.0004082
0.000442931
0.000434324
0.000434909
0.000435495
0.000413223
0.000372344
0.000383818
0.000416764
0.000410875
0.000368856
0.000369258
0.000369832
0.000370252
0.000417972
0.000415076
0.000388004
0.000389144
0.0003888
0.000389245
0.000397044
0.000390872
0.00033154
0.000331954
0.000332333
0.000332709
0.000421607
0.000477761
0.000478243
0.000453011
0.000440178
0.000445249
0.000418645
0.000419071
0.000431968
0.000452259
0.000435338
0.000417002
0.000415005
0.000415123
0.000422865
0.000401298
0.000389687
0.000390044
0.000390386
0.000395628
0.000434783
0.000458775
0.000459174
0.000459568
0.000455181
0.000460979
0.000467246
0.00046763
0.000399697
0.000335376
0.000335646
0.000335907
0.000336176
0.000420396
0.000519934
0.000523684
0.000524093
0.000489476
0.000429919
0.000430185
0.000446156
0.000451938
0.000452251
0.000427898
0.000409745
0.000410774
0.000411085
0.000400309
0.000419803
0.000470642
0.000472331
0.000472629
0.000430522
0.000426346
0.000426582
0.000426848
0.000427089
0.000428686
0.000475916
0.000476154
0.000457794
0.000396173
0.000343747
0.000343952
0.000344152
0.000344355
0.000452648
0.000521116
0.000521353
0.000521662
0.000521858
0.00052215
0.000522346
0.000477666
0.000428409
0.000428602
0.000428792
0.000477384
0.000497727
0.000497942
0.000498177
0.000498374
0.000443617
0.000415278
0.000415453
0.000447855
0.00047592
0.000476112
0.000418525
0.00041869
0.000425742
0.000389578
0.000375745
0.000375848
0.000370004
0.000342931
0.000343061
0.000343177
0.000343305
0.000343445
0.000488852
0.000542166
0.000542423
0.000542508
0.000542733
0.000484956
0.000496582
0.000460893
0.000419822
0.000419812
0.000420071
0.000420103
0.000420316
0.000420396
0.000450878
0.00049101
0.000491143
0.000491272
0.000456313
0.0004282
0.000428331
0.000438923
0.000461453
0.000461556
0.000448339
0.000448432
0.000456221
0.000456326
0.000428137
0.000344667
0.000344764
0.000344847
0.000344929
0.000485057
0.000553887
0.000553941
0.000554117
0.000553482
0.000553178
0.000444784
0.000444933
0.000466014
0.000466096
0.000466176
0.000466252
0.000468246
0.00047164
0.000471713
0.000471786
0.000471771
0.000472051
0.000454854
0.000448448
0.000448502
0.000447701
0.000446612
0.000446567
0.000446621
0.000454933
0.000490314
0.000462655
0.000324394
0.000300058
0.000300174
0.000300165
0.000300221
0.000488459
0.000583858
0.000584024
0.000583958
0.000584173
0.000584032
0.000584275
0.000584112
0.000489126
0.000441357
0.000441399
0.000476609
0.000474137
0.000441257
0.000441276
0.000441301
0.000457841
0.000457853
0.000457872
0.000498776
0.000498844
0.000498808
0.000498863
0.000498826
0.000498875
0.000498838
0.000459601
0.000469935
0.000469933
0.000438388
0.000259409
0.000259397
0.000259383
0.000245563
0.000229066
0.000225588
0.00022675
0.000246705
0.000245919
0.000237681
0.00025349
0.000256405
0.000257674
0.000253586
0.000253657
0.00023337
0.000234568
0.000248106
0.000249369
0.000259858
0.000261638
0.000267793
0.000273273
0.000274651
0.000246757
0.000260616
0.000273925
0.000275199
0.000276509
0.000261713
0.000264875
0.000266084
0.000268019
0.000232021
0.000233092
0.000234123
0.000235167
0.000306638
0.000307975
0.000309312
0.000301115
0.000302394
0.000313349
0.000314708
0.0003161
0.00028536
0.000289553
0.000279155
0.000280331
0.000287329
0.0002936
0.000294808
0.000296034
0.000297273
0.000282826
0.000295761
0.000296946
0.000297156
0.000312287
0.000313493
0.000291453
0.000291672
0.000292773
0.000294239
0.000301454
0.000280951