/*--------------------------------*- C++ -*----------------------------------*\
  =========                 |
  \\      /  F ield         | OpenFOAM: The Open Source CFD Toolbox
   \\    /   O peration     | Website:  https://openfoam.org
    \\  /    A nd           | Version:  7
     \\/     M anipulation  |
\*---------------------------------------------------------------------------*/
FoamFile
{
    version     2.0;
    format      ascii;
    class       volScalarField;
    location    "1500";
    object      nuTotal;
}
// * * * * * * * * * * * * * * * * * * * * * * * * * * * * * * * * * * * * * //

dimensions      [0 2 -1 0 0 0 0];

internalField   nonuniform List<scalar> 
160000
(
4.78316e-07
4.80691e-07
4.93666e-07
4.91621e-07
4.97519e-07
5.00949e-07
4.95749e-07
4.914e-07
5.01058e-07
5.03368e-07
5.07211e-07
5.11613e-07
5.15422e-07
5.12557e-07
5.1567e-07
5.20839e-07
5.23317e-07
5.22352e-07
5.19367e-07
5.23894e-07
5.35344e-07
5.3783e-07
5.341e-07
5.38516e-07
5.49184e-07
5.51688e-07
5.42664e-07
5.45144e-07
5.47616e-07
5.50059e-07
5.52892e-07
5.63361e-07
5.65938e-07
5.68505e-07
5.70951e-07
5.72842e-07
5.6565e-07
5.68073e-07
5.70422e-07
5.72772e-07
5.89563e-07
5.92067e-07
5.88803e-07
5.83339e-07
5.85706e-07
5.88155e-07
5.90561e-07
6.02257e-07
6.04671e-07
6.07132e-07
6.08193e-07
6.02692e-07
6.05089e-07
6.07428e-07
6.09792e-07
6.15954e-07
6.21765e-07
6.24155e-07
6.2527e-07
6.24398e-07
6.26788e-07
6.29197e-07
6.31481e-07
6.33737e-07
6.35933e-07
6.41961e-07
6.45331e-07
6.47663e-07
6.49922e-07
6.47365e-07
6.49563e-07
6.5182e-07
6.54007e-07
6.56197e-07
6.58358e-07
6.60557e-07
6.62748e-07
6.64914e-07
6.67076e-07
6.69248e-07
6.71403e-07
6.73632e-07
6.75802e-07
6.79691e-07
6.81804e-07
6.83643e-07
6.86056e-07
6.88089e-07
6.90034e-07
6.93641e-07
6.95679e-07
6.94418e-07
6.96518e-07
6.98607e-07
7.02959e-07
7.04903e-07
7.03877e-07
7.05844e-07
7.07801e-07
7.09716e-07
7.11638e-07
7.15646e-07
7.16969e-07
7.18909e-07
7.20006e-07
7.23862e-07
7.25716e-07
7.24364e-07
7.26249e-07
7.28125e-07
7.30002e-07
7.31791e-07
7.34268e-07
7.36967e-07
7.38699e-07
7.41627e-07
7.43373e-07
7.41656e-07
7.43434e-07
7.45231e-07
7.47764e-07
7.49006e-07
7.49682e-07
7.51374e-07
7.53057e-07
7.56717e-07
7.60856e-07
7.62498e-07
7.63945e-07
7.67234e-07
7.68847e-07
7.70145e-07
7.66201e-07
7.69707e-07
7.74531e-07
7.76094e-07
7.77612e-07
7.79131e-07
7.80622e-07
7.82055e-07
7.82718e-07
7.85033e-07
7.86514e-07
7.83875e-07
7.85406e-07
7.86899e-07
7.88336e-07
7.91048e-07
7.94837e-07
7.96223e-07
7.96131e-07
7.97497e-07
7.98837e-07
8.01487e-07
8.02844e-07
8.01307e-07
8.02644e-07
8.03993e-07
8.06441e-07
8.09717e-07
8.11024e-07
8.1231e-07
8.13588e-07
8.15187e-07
8.16869e-07
8.14774e-07
8.1604e-07
8.17261e-07
8.18455e-07
8.19643e-07
8.20834e-07
8.24709e-07
8.25881e-07
8.26533e-07
8.27723e-07
8.2847e-07
8.27605e-07
8.2871e-07
8.30465e-07
8.31764e-07
8.32833e-07
8.31877e-07
8.3482e-07
8.35838e-07
8.36009e-07
8.36381e-07
8.37806e-07
8.41768e-07
8.4278e-07
8.41383e-07
8.47101e-07
8.4914e-07
8.50138e-07
8.51139e-07
8.52171e-07
8.53122e-07
8.47834e-07
8.48803e-07
8.51429e-07
8.55924e-07
8.569e-07
8.57836e-07
8.58617e-07
8.56672e-07
8.55441e-07
8.56331e-07
8.57209e-07
8.57764e-07
8.58179e-07
8.59023e-07
8.60365e-07
8.63392e-07
8.64205e-07
8.63253e-07
8.64466e-07
8.65365e-07
8.6613e-07
8.66568e-07
8.67369e-07
8.68151e-07
8.68918e-07
8.69806e-07
8.70525e-07
8.69294e-07
8.70006e-07
8.70717e-07
8.72314e-07
8.76816e-07
8.7751e-07
8.78221e-07
8.78879e-07
8.76661e-07
8.77415e-07
8.7808e-07
8.78747e-07
8.79404e-07
8.80037e-07
8.80666e-07
8.81303e-07
8.81838e-07
8.82448e-07
8.82446e-07
8.83574e-07
8.84169e-07
8.84506e-07
8.87069e-07
8.87787e-07
8.8863e-07
8.92398e-07
8.93197e-07
8.93089e-07
8.93657e-07
8.94902e-07
8.94711e-07
8.91853e-07
8.9237e-07
8.92887e-07
8.95645e-07
8.94581e-07
8.95111e-07
8.96904e-07
8.97404e-07
8.96773e-07
8.96143e-07
8.95375e-07
8.95859e-07
8.96339e-07
8.9727e-07
8.98659e-07
9.01366e-07
9.01819e-07
8.99398e-07
8.99825e-07
9.00245e-07
9.00859e-07
8.99609e-07
9.0002e-07
9.00452e-07
9.03327e-07
9.04147e-07
9.04425e-07
9.02451e-07
9.02836e-07
9.03222e-07
9.05311e-07
9.06274e-07
9.0807e-07
9.09049e-07
9.05592e-07
9.0574e-07
9.09049e-07
9.09384e-07
9.05849e-07
9.06188e-07
9.06524e-07
9.0686e-07
9.09047e-07
9.09364e-07
9.09174e-07
9.09488e-07
9.09403e-07
9.11186e-07
9.14609e-07
9.1627e-07
9.16565e-07
9.16846e-07
9.165e-07
9.16771e-07
9.15753e-07
9.12195e-07
9.12461e-07
9.12718e-07
9.12927e-07
9.13186e-07
9.15979e-07
9.17959e-07
9.18215e-07
9.18441e-07
9.14834e-07
9.16083e-07
9.16308e-07
9.16248e-07
9.15951e-07
9.16842e-07
9.17063e-07
9.17105e-07
9.16755e-07
9.17112e-07
9.17785e-07
9.18134e-07
9.19589e-07
9.21021e-07
9.21212e-07
9.21391e-07
9.21575e-07
9.21747e-07
9.21827e-07
9.24245e-07
9.31047e-07
9.3123e-07
9.31375e-07
9.31537e-07
9.31693e-07
9.31701e-07
9.13748e-07
9.13526e-07
9.13658e-07
9.13801e-07
9.13932e-07
9.14074e-07
9.17045e-07
9.18658e-07
9.20491e-07
9.20617e-07
9.19834e-07
9.19951e-07
9.20065e-07
9.22225e-07
9.22806e-07
9.22913e-07
9.21713e-07
9.20594e-07
9.22408e-07
9.23257e-07
9.23349e-07
9.23448e-07
9.22278e-07
9.22367e-07
9.22442e-07
9.2253e-07
9.21857e-07
9.21927e-07
9.21996e-07
9.22663e-07
9.22728e-07
9.22772e-07
9.22832e-07
9.22295e-07
9.2235e-07
9.22399e-07
9.2245e-07
9.22855e-07
9.23685e-07
9.23727e-07
9.23768e-07
9.23805e-07
9.24535e-07
9.24566e-07
9.24595e-07
9.24528e-07
9.25027e-07
9.26271e-07
9.26707e-07
9.26869e-07
9.26884e-07
9.32666e-07
9.53766e-07
9.53735e-07
9.53734e-07
9.53732e-07
4.8401e-07
4.88065e-07
4.79832e-07
4.96252e-07
4.98694e-07
4.99014e-07
4.98434e-07
5.0089e-07
5.0161e-07
5.04457e-07
5.07075e-07
5.07845e-07
5.0866e-07
5.11149e-07
5.13684e-07
5.18006e-07
5.23266e-07
5.22547e-07
5.2812e-07
5.32899e-07
5.35394e-07
5.31848e-07
5.34135e-07
5.36626e-07
5.44927e-07
5.4007e-07
5.42571e-07
5.45118e-07
5.47592e-07
5.51914e-07
5.59542e-07
5.62442e-07
5.64292e-07
5.68496e-07
5.70948e-07
5.64216e-07
5.66721e-07
5.72164e-07
5.7033e-07
5.807e-07
5.89621e-07
5.92072e-07
5.93031e-07
5.83948e-07
5.85689e-07
5.88167e-07
5.91728e-07
5.99296e-07
6.04628e-07
6.07142e-07
6.09617e-07
6.03166e-07
6.06068e-07
6.09687e-07
6.12045e-07
6.1252e-07
6.15109e-07
6.21839e-07
6.2268e-07
6.24995e-07
6.26792e-07
6.29146e-07
6.34702e-07
6.34298e-07
6.36297e-07
6.42426e-07
6.40907e-07
6.42934e-07
6.45189e-07
6.47385e-07
6.52226e-07
6.5567e-07
6.57848e-07
6.57029e-07
6.60637e-07
6.62843e-07
6.65047e-07
6.6721e-07
6.67086e-07
6.69252e-07
6.71923e-07
6.74874e-07
6.75856e-07
6.77849e-07
6.79965e-07
6.83652e-07
6.86066e-07
6.86265e-07
6.883e-07
6.90346e-07
6.9242e-07
6.94462e-07
6.96526e-07
6.98644e-07
7.03108e-07
7.03464e-07
7.06137e-07
7.08705e-07
7.11775e-07
7.13693e-07
7.15612e-07
7.1755e-07
7.14969e-07
7.15446e-07
7.1946e-07
7.20914e-07
7.22753e-07
7.26923e-07
7.28799e-07
7.30662e-07
7.32533e-07
7.34325e-07
7.33401e-07
7.35166e-07
7.36421e-07
7.38178e-07
7.39922e-07
7.41665e-07
7.4343e-07
7.45212e-07
7.49795e-07
7.51506e-07
7.53183e-07
7.54872e-07
7.56557e-07
7.57055e-07
7.6016e-07
7.60803e-07
7.61743e-07
7.66537e-07
7.68835e-07
7.68666e-07
7.66205e-07
7.67884e-07
7.69515e-07
7.70762e-07
7.72034e-07
7.78905e-07
7.79519e-07
7.78012e-07
7.79395e-07
7.80933e-07
7.82436e-07
7.83912e-07
7.87322e-07
7.9081e-07
7.88793e-07
7.92379e-07
7.94822e-07
7.95861e-07
7.98169e-07
7.99559e-07
7.97818e-07
7.98613e-07
7.9998e-07
8.01335e-07
8.02669e-07
8.04625e-07
8.09111e-07
8.09346e-07
8.10653e-07
8.12827e-07
8.15886e-07
8.17164e-07
8.16862e-07
8.14773e-07
8.16036e-07
8.17627e-07
8.22059e-07
8.23813e-07
8.25018e-07
8.26238e-07
8.2504e-07
8.23146e-07
8.24315e-07
8.24543e-07
8.2761e-07
8.28732e-07
8.28465e-07
8.30793e-07
8.30561e-07
8.31631e-07
8.34805e-07
8.34198e-07
8.34253e-07
8.35291e-07
8.40718e-07
8.41766e-07
8.38369e-07
8.3941e-07
8.40471e-07
8.44972e-07
8.46049e-07
8.46584e-07
8.47579e-07
8.46898e-07
8.47853e-07
8.49372e-07
8.54953e-07
8.55934e-07
8.56897e-07
8.57817e-07
8.56854e-07
8.54555e-07
8.55439e-07
8.56337e-07
8.61316e-07
8.62161e-07
8.62676e-07
8.63521e-07
8.6436e-07
8.6375e-07
8.62446e-07
8.63257e-07
8.64053e-07
8.64561e-07
8.65625e-07
8.70207e-07
8.71001e-07
8.71777e-07
8.72032e-07
8.70855e-07
8.68569e-07
8.69286e-07
8.7e-07
8.70726e-07
8.71441e-07
8.72146e-07
8.72834e-07
8.73538e-07
8.74202e-07
8.76592e-07
8.8198e-07
8.82681e-07
8.83342e-07
8.79401e-07
8.81978e-07
8.82609e-07
8.83223e-07
8.83831e-07
8.8444e-07
8.81271e-07
8.8186e-07
8.82465e-07
8.83044e-07
8.8362e-07
8.84233e-07
8.85286e-07
8.92613e-07
8.93199e-07
8.93773e-07
8.93645e-07
8.94889e-07
8.95423e-07
8.921e-07
8.93011e-07
8.9581e-07
8.96309e-07
8.96824e-07
8.97359e-07
8.97874e-07
8.94725e-07
8.94542e-07
8.95014e-07
8.9679e-07
9.00005e-07
9.00475e-07
8.96343e-07
8.96811e-07
8.97284e-07
9.01559e-07
9.04132e-07
9.04566e-07
9.04982e-07
9.01034e-07
8.99478e-07
9.01911e-07
9.05221e-07
9.05627e-07
9.04681e-07
9.0337e-07
9.03503e-07
9.04307e-07
9.07576e-07
9.07953e-07
9.08332e-07
9.0869e-07
9.09049e-07
9.06565e-07
9.0574e-07
9.05226e-07
9.05273e-07
9.09049e-07
9.12097e-07
9.12431e-07
9.06073e-07
9.06411e-07
9.0673e-07
9.07042e-07
9.07349e-07
9.09182e-07
9.1567e-07
9.15975e-07
9.16272e-07
9.16527e-07
9.15761e-07
9.13769e-07
9.14041e-07
9.14308e-07
9.12193e-07
9.12455e-07
9.12712e-07
9.14008e-07
9.17464e-07
9.17715e-07
9.17975e-07
9.18204e-07
9.13868e-07
9.13277e-07
9.13503e-07
9.1373e-07
9.13946e-07
9.1417e-07
9.14388e-07
9.14621e-07
9.16032e-07
9.16262e-07
9.20403e-07
9.20606e-07
9.17586e-07
9.16099e-07
9.18584e-07
9.2073e-07
9.20246e-07
9.21575e-07
9.21752e-07
9.1765e-07
9.17786e-07
9.22059e-07
9.22129e-07
9.21127e-07
9.29731e-07
9.31693e-07
9.21752e-07
9.1338e-07
9.13521e-07
9.16517e-07
9.22721e-07
9.23059e-07
9.23185e-07
9.23318e-07
9.21252e-07
9.19134e-07
9.1926e-07
9.20935e-07
9.20775e-07
9.20065e-07
9.20175e-07
9.20287e-07
9.20388e-07
9.20493e-07
9.20589e-07
9.20693e-07
9.20782e-07
9.20886e-07
9.22653e-07
9.24042e-07
9.24121e-07
9.24211e-07
9.2428e-07
9.2436e-07
9.24424e-07
9.23946e-07
9.2298e-07
9.22275e-07
9.22335e-07
9.22236e-07
9.22296e-07
9.22347e-07
9.224e-07
9.22438e-07
9.23138e-07
9.24427e-07
9.24465e-07
9.23927e-07
9.24916e-07
9.24951e-07
9.24411e-07
9.22681e-07
9.22709e-07
9.24066e-07
9.22948e-07
9.2685e-07
9.26868e-07
9.24134e-07
9.28605e-07
9.53744e-07
9.5375e-07
9.53731e-07
9.53736e-07
4.83976e-07
4.83807e-07
4.79842e-07
4.82252e-07
4.86701e-07
4.96408e-07
4.93935e-07
4.96761e-07
5.01573e-07
5.02401e-07
5.04938e-07
5.07438e-07
5.09832e-07
5.11093e-07
5.13642e-07
5.16141e-07
5.20716e-07
5.28748e-07
5.28907e-07
5.28315e-07
5.30822e-07
5.33392e-07
5.37059e-07
5.38157e-07
5.37648e-07
5.40087e-07
5.4255e-07
5.45036e-07
5.47575e-07
5.52539e-07
5.55661e-07
5.57881e-07
5.6326e-07
5.68496e-07
5.70982e-07
5.65681e-07
5.67566e-07
5.7214e-07
5.74718e-07
5.77497e-07
5.78828e-07
5.81649e-07
5.85497e-07
5.87161e-07
5.94148e-07
5.96635e-07
5.96401e-07
5.96882e-07
5.99264e-07
6.01773e-07
6.0652e-07
6.08918e-07
6.08535e-07
6.07837e-07
6.10193e-07
6.12515e-07
6.14867e-07
6.19875e-07
6.26376e-07
6.28723e-07
6.29138e-07
6.29096e-07
6.36542e-07
6.39055e-07
6.40114e-07
6.42447e-07
6.44774e-07
6.47018e-07
6.48481e-07
6.47414e-07
6.49607e-07
6.52938e-07
6.57836e-07
6.60004e-07
6.58344e-07
6.60556e-07
6.62751e-07
6.64925e-07
6.67133e-07
6.69676e-07
6.70836e-07
6.77034e-07
6.79343e-07
6.81434e-07
6.79957e-07
6.82587e-07
6.83986e-07
6.89391e-07
6.91462e-07
6.9193e-07
6.94085e-07
6.96316e-07
6.9741e-07
7.01152e-07
7.03156e-07
7.03431e-07
7.05384e-07
7.07356e-07
7.09329e-07
7.11286e-07
7.11278e-07
7.13206e-07
7.15098e-07
7.15445e-07
7.17338e-07
7.24138e-07
7.26012e-07
7.27863e-07
7.2641e-07
7.28287e-07
7.30133e-07
7.31934e-07
7.34135e-07
7.36048e-07
7.37767e-07
7.39528e-07
7.4025e-07
7.43941e-07
7.48656e-07
7.50432e-07
7.52173e-07
7.50523e-07
7.52208e-07
7.53906e-07
7.56511e-07
7.58207e-07
7.5861e-07
7.60101e-07
7.61743e-07
7.63625e-07
7.64921e-07
7.66533e-07
7.68188e-07
7.69821e-07
7.70506e-07
7.72037e-07
7.7202e-07
7.74533e-07
7.80188e-07
7.81283e-07
7.79391e-07
7.85827e-07
7.87354e-07
7.85041e-07
7.87383e-07
7.90814e-07
7.89548e-07
7.90724e-07
7.93354e-07
7.93609e-07
7.94998e-07
7.96898e-07
7.97805e-07
8.02508e-07
8.04115e-07
8.05459e-07
8.02295e-07
8.07174e-07
8.10091e-07
8.11397e-07
8.10642e-07
8.08211e-07
8.09581e-07
8.11236e-07
8.14238e-07
8.16886e-07
8.18132e-07
8.19348e-07
8.20346e-07
8.23821e-07
8.25048e-07
8.26238e-07
8.27424e-07
8.28581e-07
8.29151e-07
8.24516e-07
8.25658e-07
8.26801e-07
8.27907e-07
8.29407e-07
8.33816e-07
8.36078e-07
8.33394e-07
8.33251e-07
8.34286e-07
8.35289e-07
8.36317e-07
8.3735e-07
8.38384e-07
8.44274e-07
8.4685e-07
8.47613e-07
8.45434e-07
8.4678e-07
8.47573e-07
8.49053e-07
8.50028e-07
8.50514e-07
8.52674e-07
8.55936e-07
8.55612e-07
8.5438e-07
8.55836e-07
8.58702e-07
8.59589e-07
8.60471e-07
8.61332e-07
8.60542e-07
8.61399e-07
8.62248e-07
8.62378e-07
8.61431e-07
8.64206e-07
8.65024e-07
8.64114e-07
8.64559e-07
8.65343e-07
8.69183e-07
8.70999e-07
8.69211e-07
8.6709e-07
8.67831e-07
8.68562e-07
8.69287e-07
8.70017e-07
8.70736e-07
8.71449e-07
8.72136e-07
8.72843e-07
8.73803e-07
8.76069e-07
8.76738e-07
8.7931e-07
8.82434e-07
8.81547e-07
8.83724e-07
8.84361e-07
8.82475e-07
8.7945e-07
8.80059e-07
8.80674e-07
8.81272e-07
8.81869e-07
8.82461e-07
8.84496e-07
8.88196e-07
8.91404e-07
8.92042e-07
8.92633e-07
8.93062e-07
8.92495e-07
8.94088e-07
8.94956e-07
8.95107e-07
8.92449e-07
8.933e-07
8.9443e-07
8.92595e-07
8.93575e-07
8.97059e-07
8.94731e-07
8.9433e-07
8.94816e-07
8.95013e-07
8.95775e-07
8.96256e-07
8.97868e-07
9.00959e-07
9.01431e-07
9.01884e-07
8.98182e-07
8.96903e-07
8.97333e-07
8.97746e-07
8.98157e-07
8.99479e-07
8.98676e-07
9.05009e-07
9.05629e-07
9.06017e-07
9.06417e-07
9.068e-07
9.07197e-07
9.07575e-07
9.06402e-07
9.03217e-07
9.03583e-07
9.0394e-07
9.04295e-07
9.04591e-07
9.04938e-07
9.05278e-07
9.0568e-07
9.05402e-07
9.0573e-07
9.06079e-07
9.06408e-07
9.06734e-07
9.0704e-07
9.07618e-07
9.15381e-07
9.15685e-07
9.11827e-07
9.07385e-07
9.08772e-07
9.15644e-07
9.15934e-07
9.16206e-07
9.13403e-07
9.12287e-07
9.16678e-07
9.16938e-07
9.17203e-07
9.17461e-07
9.17719e-07
9.14084e-07
9.12808e-07
9.13045e-07
9.13275e-07
9.13504e-07
9.13724e-07
9.13953e-07
9.14169e-07
9.18631e-07
9.20149e-07
9.20358e-07
9.20568e-07
9.20776e-07
9.18766e-07
9.16309e-07
9.16097e-07
9.19034e-07
9.20731e-07
9.19545e-07
9.20885e-07
9.17952e-07
9.13845e-07
9.13301e-07
9.13772e-07
9.16522e-07
9.20921e-07
9.20507e-07
9.18555e-07
9.19545e-07
9.22492e-07
9.22645e-07
9.2278e-07
9.22936e-07
9.23054e-07
9.189e-07
9.1888e-07
9.19008e-07
9.19134e-07
9.20319e-07
9.20935e-07
9.19489e-07
9.22919e-07
9.24983e-07
9.25089e-07
9.25029e-07
9.20508e-07
9.20593e-07
9.20685e-07
9.20792e-07
9.21973e-07
9.25312e-07
9.17772e-07
9.1771e-07
9.18709e-07
9.16248e-07
9.16406e-07
9.22139e-07
9.2713e-07
9.2721e-07
9.27263e-07
9.27336e-07
9.27385e-07
9.27442e-07
9.2452e-07
9.25618e-07
9.25672e-07
9.22791e-07
9.22829e-07
9.23372e-07
9.23928e-07
9.22642e-07
9.22619e-07
9.22651e-07
9.22681e-07
9.26081e-07
9.2421e-07
9.22896e-07
9.22915e-07
9.22931e-07
9.22944e-07
9.34788e-07
9.53756e-07
9.53727e-07
9.53752e-07
9.53734e-07
4.82227e-07
4.84004e-07
4.84843e-07
4.86942e-07
4.89632e-07
4.91559e-07
4.93978e-07
4.97644e-07
5.0265e-07
5.05802e-07
5.08278e-07
5.10316e-07
5.1274e-07
5.12853e-07
5.13922e-07
5.21563e-07
5.2505e-07
5.28741e-07
5.28026e-07
5.29643e-07
5.30814e-07
5.33315e-07
5.37069e-07
5.3812e-07
5.40952e-07
5.43408e-07
5.42911e-07
5.47416e-07
5.57436e-07
5.58722e-07
5.54708e-07
5.56616e-07
5.58564e-07
5.60875e-07
5.63397e-07
5.65829e-07
5.70731e-07
5.73097e-07
5.7356e-07
5.76029e-07
5.7855e-07
5.81017e-07
5.86548e-07
5.88851e-07
5.93056e-07
5.96578e-07
5.98968e-07
6.0134e-07
6.02528e-07
6.01762e-07
6.04215e-07
6.07119e-07
6.11799e-07
6.13491e-07
6.18133e-07
6.20472e-07
6.22233e-07
6.22906e-07
6.23407e-07
6.25645e-07
6.27949e-07
6.3027e-07
6.39383e-07
6.39041e-07
6.37959e-07
6.38713e-07
6.40447e-07
6.39212e-07
6.41414e-07
6.50388e-07
6.52581e-07
6.54089e-07
6.53916e-07
6.56096e-07
6.59337e-07
6.6678e-07
6.68956e-07
6.71119e-07
6.73345e-07
6.71045e-07
6.7013e-07
6.7231e-07
6.7755e-07
6.77767e-07
6.7966e-07
6.81816e-07
6.83926e-07
6.86041e-07
6.91429e-07
6.95192e-07
6.97249e-07
6.96295e-07
6.98335e-07
7.01136e-07
7.01398e-07
7.04117e-07
7.16174e-07
7.10684e-07
7.09284e-07
7.11274e-07
7.15422e-07
7.11719e-07
7.13603e-07
7.15468e-07
7.16721e-07
7.21258e-07
7.26012e-07
7.27745e-07
7.27266e-07
7.2989e-07
7.31031e-07
7.31892e-07
7.37224e-07
7.40102e-07
7.3745e-07
7.38769e-07
7.40496e-07
7.44892e-07
7.48678e-07
7.5044e-07
7.51599e-07
7.54795e-07
7.57508e-07
7.59187e-07
7.56495e-07
7.58209e-07
7.61154e-07
7.62801e-07
7.62985e-07
7.64224e-07
7.67306e-07
7.67901e-07
7.69694e-07
7.6622e-07
7.67265e-07
7.68787e-07
7.71313e-07
7.80036e-07
7.81529e-07
7.83014e-07
7.84529e-07
7.86038e-07
7.82798e-07
7.84294e-07
7.85781e-07
7.87276e-07
7.88728e-07
7.90678e-07
7.92021e-07
7.94637e-07
7.99015e-07
8.00388e-07
8.01748e-07
8.00579e-07
7.99096e-07
8.00321e-07
8.01665e-07
8.03012e-07
8.0431e-07
8.05593e-07
8.06901e-07
8.08204e-07
8.09826e-07
8.15411e-07
8.19916e-07
8.15944e-07
8.13002e-07
8.12847e-07
8.14063e-07
8.15281e-07
8.20325e-07
8.26231e-07
8.23416e-07
8.24577e-07
8.27758e-07
8.28889e-07
8.30031e-07
8.31156e-07
8.29372e-07
8.29956e-07
8.37874e-07
8.38952e-07
8.35042e-07
8.33204e-07
8.34248e-07
8.35286e-07
8.36331e-07
8.37609e-07
8.46864e-07
8.47919e-07
8.46867e-07
8.44453e-07
8.4545e-07
8.50134e-07
8.5111e-07
8.52067e-07
8.49425e-07
8.50403e-07
8.52408e-07
8.55904e-07
8.59391e-07
8.52075e-07
8.5157e-07
8.52471e-07
8.53354e-07
8.60132e-07
8.61318e-07
8.62166e-07
8.63027e-07
8.63866e-07
8.60627e-07
8.6142e-07
8.62261e-07
8.63072e-07
8.63865e-07
8.64711e-07
8.66213e-07
8.6709e-07
8.68542e-07
8.66474e-07
8.67079e-07
8.68201e-07
8.71527e-07
8.74403e-07
8.75132e-07
8.74745e-07
8.74813e-07
8.73867e-07
8.73659e-07
8.74265e-07
8.75729e-07
8.82124e-07
8.84834e-07
8.78543e-07
8.74274e-07
8.74916e-07
8.75547e-07
8.79821e-07
8.85964e-07
8.86574e-07
8.87185e-07
8.85791e-07
8.81862e-07
8.82461e-07
8.83059e-07
8.83662e-07
8.84412e-07
8.92052e-07
8.92648e-07
8.92294e-07
8.92491e-07
8.94401e-07
8.94946e-07
8.90918e-07
8.91048e-07
8.9157e-07
8.92079e-07
8.926e-07
8.93116e-07
8.93629e-07
8.93862e-07
8.93752e-07
8.94242e-07
8.94899e-07
8.99593e-07
9.0035e-07
8.95811e-07
8.93335e-07
8.93796e-07
8.95013e-07
9.00677e-07
9.01119e-07
9.01539e-07
9.01187e-07
8.98151e-07
8.97515e-07
8.98334e-07
8.9977e-07
9.03147e-07
9.06026e-07
9.06412e-07
9.05793e-07
9.05633e-07
9.06016e-07
9.07781e-07
9.08153e-07
9.06292e-07
9.03937e-07
9.04292e-07
9.05722e-07
9.06065e-07
9.04729e-07
9.05065e-07
9.05401e-07
9.08536e-07
9.10817e-07
9.11149e-07
9.08225e-07
9.10702e-07
9.15912e-07
9.15468e-07
9.06356e-07
9.05641e-07
9.05928e-07
9.06219e-07
9.06494e-07
9.08831e-07
9.16015e-07
9.16369e-07
9.16639e-07
9.16906e-07
9.13241e-07
9.13007e-07
9.17464e-07
9.17714e-07
9.17962e-07
9.18198e-07
9.17603e-07
9.13279e-07
9.13503e-07
9.15532e-07
9.1694e-07
9.1677e-07
9.18469e-07
9.18829e-07
9.16524e-07
9.16456e-07
9.1613e-07
9.16336e-07
9.18746e-07
9.16997e-07
9.14875e-07
9.1394e-07
9.12601e-07
9.12785e-07
9.12954e-07
9.13131e-07
9.13293e-07
9.14461e-07
9.20938e-07
9.22085e-07
9.22242e-07
9.18552e-07
9.17536e-07
9.1769e-07
9.18682e-07
9.22623e-07
9.22917e-07
9.23056e-07
9.23183e-07
9.23225e-07
9.22915e-07
9.19133e-07
9.19254e-07
9.19374e-07
9.1949e-07
9.20025e-07
9.20027e-07
9.20137e-07
9.21114e-07
9.26145e-07
9.25651e-07
9.26003e-07
9.22435e-07
9.24981e-07
9.31205e-07
9.20564e-07
9.15671e-07
9.15751e-07
9.15823e-07
9.15902e-07
9.18323e-07
9.24171e-07
9.27198e-07
9.27271e-07
9.27325e-07
9.27391e-07
9.25297e-07
9.22642e-07
9.23983e-07
9.25668e-07
9.25714e-07
9.22832e-07
9.22867e-07
9.22915e-07
9.22947e-07
9.22618e-07
9.27341e-07
9.27678e-07
9.27697e-07
9.27724e-07
9.27743e-07
9.24142e-07
9.22931e-07
9.22945e-07
9.25155e-07
9.29577e-07
9.45863e-07
9.53728e-07
9.53734e-07
4.8123e-07
4.7856e-07
4.83451e-07
4.87832e-07
4.90284e-07
4.9376e-07
4.97134e-07
4.99462e-07
5.04347e-07
5.06793e-07
5.07736e-07
5.10257e-07
5.10333e-07
5.17192e-07
5.19762e-07
5.18458e-07
5.20931e-07
5.23457e-07
5.25976e-07
5.2964e-07
5.32799e-07
5.35283e-07
5.37179e-07
5.39441e-07
5.41922e-07
5.4284e-07
5.42877e-07
5.4996e-07
5.58297e-07
5.6079e-07
5.63319e-07
5.65772e-07
5.61065e-07
5.70745e-07
5.64563e-07
5.64441e-07
5.66789e-07
5.69163e-07
5.74095e-07
5.76599e-07
5.78686e-07
5.8197e-07
5.87316e-07
5.89704e-07
5.88785e-07
5.9119e-07
5.95474e-07
5.97845e-07
6.01739e-07
6.04218e-07
6.04527e-07
6.09442e-07
6.11813e-07
6.13996e-07
6.12942e-07
6.15299e-07
6.19683e-07
6.2201e-07
6.24444e-07
6.26755e-07
6.27936e-07
6.33618e-07
6.39337e-07
6.41649e-07
6.43901e-07
6.46235e-07
6.48609e-07
6.39837e-07
6.41393e-07
6.43599e-07
6.45786e-07
6.47911e-07
6.5063e-07
6.57702e-07
6.592e-07
6.6593e-07
6.6899e-07
6.70638e-07
6.73298e-07
6.7549e-07
6.77653e-07
6.72134e-07
6.74252e-07
6.7634e-07
6.79695e-07
6.82934e-07
6.85059e-07
6.86242e-07
6.88631e-07
6.91608e-07
6.96566e-07
6.97239e-07
6.96669e-07
6.98692e-07
7.00886e-07
7.05698e-07
7.17024e-07
7.18986e-07
7.20913e-07
7.20679e-07
7.24888e-07
7.15428e-07
7.11462e-07
7.13306e-07
7.15181e-07
7.17053e-07
7.18926e-07
7.25866e-07
7.27925e-07
7.31475e-07
7.34568e-07
7.33955e-07
7.3832e-07
7.40146e-07
7.41969e-07
7.43694e-07
7.40489e-07
7.42949e-07
7.48672e-07
7.48269e-07
7.5051e-07
7.54722e-07
7.54346e-07
7.55216e-07
7.58318e-07
7.60044e-07
7.61701e-07
7.61051e-07
7.62663e-07
7.64491e-07
7.7459e-07
7.77998e-07
7.79671e-07
7.81306e-07
7.684e-07
7.68804e-07
7.70307e-07
7.71785e-07
7.73279e-07
7.79569e-07
7.84523e-07
7.86016e-07
7.8752e-07
7.89013e-07
7.87382e-07
7.88969e-07
7.90424e-07
7.90627e-07
7.92025e-07
7.9361e-07
7.95841e-07
7.96963e-07
7.98351e-07
8.03192e-07
8.0456e-07
8.05918e-07
8.0726e-07
8.08583e-07
8.0613e-07
8.05568e-07
8.08154e-07
8.22988e-07
8.24575e-07
8.25864e-07
8.2711e-07
8.28024e-07
8.2961e-07
8.14585e-07
8.14111e-07
8.15305e-07
8.16482e-07
8.21882e-07
8.23402e-07
8.24554e-07
8.25468e-07
8.26615e-07
8.27743e-07
8.29571e-07
8.30671e-07
8.30857e-07
8.3422e-07
8.38932e-07
8.39988e-07
8.41023e-07
8.37823e-07
8.35289e-07
8.36361e-07
8.45845e-07
8.46928e-07
8.4795e-07
8.48952e-07
8.48173e-07
8.49155e-07
8.50149e-07
8.51109e-07
8.4886e-07
8.49406e-07
8.50388e-07
8.5495e-07
8.63242e-07
8.64194e-07
8.54226e-07
8.5158e-07
8.52467e-07
8.53353e-07
8.57132e-07
8.6095e-07
8.59059e-07
8.58912e-07
8.59752e-07
8.60586e-07
8.63194e-07
8.65549e-07
8.66361e-07
8.67152e-07
8.64715e-07
8.64908e-07
8.65695e-07
8.66469e-07
8.6723e-07
8.70712e-07
8.71492e-07
8.72228e-07
8.74404e-07
8.75135e-07
8.74168e-07
8.72543e-07
8.72962e-07
8.73656e-07
8.7484e-07
8.75751e-07
8.88301e-07
8.90155e-07
8.90833e-07
8.76961e-07
8.74932e-07
8.75553e-07
8.76171e-07
8.76776e-07
8.77391e-07
8.78144e-07
8.85507e-07
8.86382e-07
8.86982e-07
8.88908e-07
8.90855e-07
8.91466e-07
8.92075e-07
8.92643e-07
8.90605e-07
8.90931e-07
8.91183e-07
8.90133e-07
8.90911e-07
8.91045e-07
8.91566e-07
8.92342e-07
8.94416e-07
8.98029e-07
8.98537e-07
8.99034e-07
8.97537e-07
8.96497e-07
9.0666e-07
9.08118e-07
9.08596e-07
9.09079e-07
8.95533e-07
8.93817e-07
8.94253e-07
8.94693e-07
8.96382e-07
8.95533e-07
8.95943e-07
8.96366e-07
8.9704e-07
9.01183e-07
9.05214e-07
9.05625e-07
9.06021e-07
9.046e-07
9.04677e-07
9.06207e-07
9.06587e-07
9.06729e-07
9.07101e-07
9.0794e-07
9.09113e-07
9.09466e-07
9.08258e-07
9.05256e-07
9.04728e-07
9.05067e-07
9.05415e-07
9.06306e-07
9.10489e-07
9.21545e-07
9.21874e-07
9.22191e-07
9.22505e-07
9.22823e-07
9.07542e-07
9.05643e-07
9.05935e-07
9.06483e-07
9.10138e-07
9.10409e-07
9.10187e-07
9.10459e-07
9.10907e-07
9.11243e-07
9.11508e-07
9.11776e-07
9.12037e-07
9.1252e-07
9.12762e-07
9.13459e-07
9.17908e-07
9.18133e-07
9.18376e-07
9.18597e-07
9.18836e-07
9.19049e-07
9.19271e-07
9.17526e-07
9.15713e-07
9.15923e-07
9.16128e-07
9.21476e-07
9.30177e-07
9.30372e-07
9.30562e-07
9.30753e-07
9.30945e-07
9.17442e-07
9.12963e-07
9.13127e-07
9.13306e-07
9.13467e-07
9.13631e-07
9.1379e-07
9.21207e-07
9.23173e-07
9.23332e-07
9.23481e-07
9.20614e-07
9.19981e-07
9.20119e-07
9.20618e-07
9.20386e-07
9.20507e-07
9.20636e-07
9.20762e-07
9.20992e-07
9.2111e-07
9.1949e-07
9.19606e-07
9.2019e-07
9.20969e-07
9.22782e-07
9.26147e-07
9.2656e-07
9.28496e-07
9.40605e-07
9.42837e-07
9.42925e-07
9.43019e-07
9.18674e-07
9.1575e-07
9.15828e-07
9.15898e-07
9.15974e-07
9.25498e-07
9.27206e-07
9.27262e-07
9.21773e-07
9.22246e-07
9.2514e-07
9.22638e-07
9.22693e-07
9.22738e-07
9.2279e-07
9.22824e-07
9.22876e-07
9.23351e-07
9.21589e-07
9.21619e-07
9.21654e-07
9.21681e-07
9.23234e-07
9.27589e-07
9.27745e-07
9.27761e-07
9.2778e-07
9.2656e-07
9.23876e-07
9.26569e-07
9.45567e-07
9.53728e-07
9.53731e-07
4.84349e-07
4.78797e-07
4.85852e-07
4.9126e-07
4.93353e-07
4.93163e-07
4.97322e-07
4.99772e-07
4.99804e-07
5.01817e-07
5.04284e-07
5.08004e-07
5.093e-07
5.1188e-07
5.14407e-07
5.19716e-07
5.22211e-07
5.23795e-07
5.2594e-07
5.28564e-07
5.28963e-07
5.37162e-07
5.41654e-07
5.44054e-07
5.40961e-07
5.45524e-07
5.47946e-07
5.5016e-07
5.51491e-07
5.54441e-07
5.63318e-07
5.65789e-07
5.68261e-07
5.7077e-07
5.62237e-07
5.64435e-07
5.66789e-07
5.6918e-07
5.71622e-07
5.74109e-07
5.76562e-07
5.79062e-07
5.85605e-07
5.86349e-07
5.88758e-07
5.91189e-07
5.9661e-07
5.98999e-07
5.99703e-07
6.03546e-07
6.07695e-07
6.10074e-07
6.09943e-07
6.12331e-07
6.14674e-07
6.15278e-07
6.17627e-07
6.20747e-07
6.23224e-07
6.25532e-07
6.29465e-07
6.31517e-07
6.36805e-07
6.41641e-07
6.43912e-07
6.46258e-07
6.48646e-07
6.44732e-07
6.41405e-07
6.436e-07
6.45766e-07
6.48878e-07
6.56613e-07
6.58817e-07
6.59225e-07
6.61468e-07
6.63702e-07
6.67111e-07
6.72531e-07
6.71631e-07
6.72886e-07
6.75042e-07
6.77151e-07
6.77704e-07
6.78761e-07
6.80892e-07
6.82991e-07
6.85092e-07
6.92934e-07
6.95905e-07
6.97916e-07
6.94601e-07
6.96651e-07
7.0311e-07
7.07245e-07
7.15045e-07
7.17018e-07
7.18961e-07
7.20952e-07
7.22919e-07
7.2488e-07
7.1002e-07
7.11462e-07
7.13349e-07
7.15304e-07
7.20904e-07
7.24425e-07
7.25248e-07
7.27122e-07
7.29012e-07
7.35047e-07
7.3682e-07
7.3636e-07
7.35335e-07
7.40144e-07
7.43679e-07
7.45394e-07
7.43654e-07
7.42641e-07
7.44429e-07
7.46154e-07
7.4788e-07
7.52087e-07
7.54455e-07
7.58332e-07
7.58916e-07
7.59893e-07
7.61531e-07
7.64611e-07
7.74288e-07
7.76378e-07
7.78044e-07
7.79697e-07
7.81304e-07
7.67269e-07
7.68807e-07
7.70327e-07
7.71819e-07
7.73301e-07
7.7605e-07
7.82088e-07
7.83655e-07
7.83282e-07
7.88829e-07
7.90316e-07
7.88711e-07
7.89672e-07
7.91103e-07
7.95403e-07
7.96789e-07
7.96519e-07
7.96964e-07
7.98346e-07
7.99725e-07
8.01096e-07
8.03227e-07
8.03448e-07
8.02972e-07
8.04267e-07
8.05565e-07
8.06893e-07
8.15277e-07
8.24567e-07
8.25856e-07
8.2712e-07
8.28383e-07
8.29655e-07
8.18927e-07
8.14131e-07
8.15302e-07
8.16764e-07
8.18676e-07
8.19827e-07
8.25789e-07
8.27187e-07
8.28318e-07
8.26532e-07
8.2838e-07
8.29478e-07
8.30584e-07
8.33652e-07
8.38917e-07
8.38759e-07
8.36632e-07
8.38269e-07
8.43767e-07
8.44884e-07
8.4594e-07
8.46967e-07
8.43168e-07
8.44476e-07
8.48158e-07
8.49071e-07
8.50138e-07
8.51103e-07
8.51291e-07
8.52917e-07
8.61271e-07
8.62266e-07
8.63245e-07
8.642e-07
8.55037e-07
8.51577e-07
8.52464e-07
8.55206e-07
8.57119e-07
8.57602e-07
8.60756e-07
8.61611e-07
8.61361e-07
8.6059e-07
8.62823e-07
8.65289e-07
8.66319e-07
8.6714e-07
8.67249e-07
8.70103e-07
8.72132e-07
8.72917e-07
8.73675e-07
8.73905e-07
8.71015e-07
8.69857e-07
8.70596e-07
8.71328e-07
8.7241e-07
8.727e-07
8.72957e-07
8.73648e-07
8.80223e-07
8.88797e-07
8.89466e-07
8.90145e-07
8.90846e-07
8.818e-07
8.75139e-07
8.75556e-07
8.76168e-07
8.7896e-07
8.84167e-07
8.84783e-07
8.84058e-07
8.84223e-07
8.84833e-07
8.87514e-07
8.89842e-07
8.90375e-07
8.90968e-07
8.92641e-07
8.91321e-07
8.87705e-07
8.8815e-07
8.8869e-07
8.92615e-07
8.93539e-07
8.94063e-07
8.94578e-07
8.95093e-07
8.95481e-07
8.92225e-07
8.92729e-07
8.94617e-07
9.00707e-07
9.0763e-07
9.08114e-07
9.08602e-07
9.09103e-07
8.98088e-07
8.93823e-07
8.94258e-07
8.94686e-07
8.95112e-07
8.95522e-07
8.95939e-07
8.99296e-07
9.03693e-07
9.04116e-07
9.04532e-07
9.0105e-07
9.00061e-07
9.00451e-07
9.00837e-07
9.01222e-07
9.05688e-07
9.0863e-07
9.09004e-07
9.06501e-07
9.04707e-07
9.05063e-07
9.10206e-07
9.10551e-07
9.10251e-07
9.14254e-07
9.16205e-07
9.16545e-07
9.17596e-07
9.21549e-07
9.21875e-07
9.22192e-07
9.22504e-07
9.22821e-07
9.08649e-07
9.0565e-07
9.0593e-07
9.06214e-07
9.06487e-07
9.10377e-07
9.09858e-07
9.1272e-07
9.16542e-07
9.16824e-07
9.17077e-07
9.17353e-07
9.17603e-07
9.17853e-07
9.15421e-07
9.12661e-07
9.12897e-07
9.1313e-07
9.15959e-07
9.186e-07
9.18825e-07
9.18115e-07
9.16485e-07
9.16698e-07
9.17984e-07
9.18196e-07
9.17774e-07
9.17976e-07
9.20597e-07
9.30378e-07
9.30564e-07
9.30755e-07
9.30948e-07
9.17019e-07
9.12963e-07
9.13138e-07
9.13303e-07
9.13504e-07
9.13686e-07
9.21167e-07
9.21322e-07
9.19783e-07
9.19937e-07
9.20091e-07
9.20236e-07
9.20228e-07
9.20115e-07
9.20252e-07
9.20387e-07
9.20524e-07
9.20636e-07
9.22106e-07
9.22761e-07
9.2288e-07
9.23068e-07
9.23279e-07
9.23399e-07
9.23508e-07
9.22932e-07
9.20389e-07
9.22526e-07
9.38296e-07
9.42745e-07
9.4283e-07
9.42935e-07
9.4302e-07
9.21212e-07
9.15753e-07
9.15823e-07
9.15903e-07
9.15966e-07
9.16044e-07
9.16102e-07
9.16175e-07
9.21746e-07
9.25512e-07
9.25568e-07
9.2282e-07
9.23057e-07
9.25743e-07
9.25791e-07
9.25835e-07
9.24504e-07
9.24545e-07
9.2458e-07
9.21622e-07
9.21651e-07
9.21684e-07
9.21708e-07
9.21736e-07
9.21755e-07
9.21776e-07
9.24652e-07
9.23864e-07
9.23876e-07
9.26455e-07
9.53717e-07
9.53725e-07
9.53731e-07
4.79961e-07
4.85508e-07
4.88819e-07
4.91274e-07
4.90273e-07
4.93133e-07
4.9734e-07
4.97287e-07
4.99454e-07
5.01872e-07
5.05144e-07
5.07745e-07
5.14133e-07
5.16711e-07
5.16939e-07
5.19421e-07
5.20358e-07
5.22762e-07
5.24481e-07
5.26343e-07
5.2894e-07
5.36221e-07
5.36492e-07
5.37033e-07
5.39479e-07
5.41994e-07
5.46923e-07
5.49074e-07
5.5153e-07
5.53901e-07
5.63312e-07
5.65841e-07
5.683e-07
5.70771e-07
5.61981e-07
5.64379e-07
5.66806e-07
5.70404e-07
5.72829e-07
5.74066e-07
5.76523e-07
5.7901e-07
5.85598e-07
5.87544e-07
5.91678e-07
5.94124e-07
5.95632e-07
5.97306e-07
5.99726e-07
6.02164e-07
6.0465e-07
6.09303e-07
6.09928e-07
6.12327e-07
6.14819e-07
6.15275e-07
6.1761e-07
6.23088e-07
6.25527e-07
6.27846e-07
6.30081e-07
6.31484e-07
6.37051e-07
6.41694e-07