/*--------------------------------*- C++ -*----------------------------------*\
  =========                 |
  \\      /  F ield         | OpenFOAM: The Open Source CFD Toolbox
   \\    /   O peration     | Website:  https://openfoam.org
    \\  /    A nd           | Version:  7
     \\/     M anipulation  |
\*---------------------------------------------------------------------------*/
FoamFile
{
    version     2.0;
    format      ascii;
    class       volScalarField;
    location    "1500";
    object      p;
}
// * * * * * * * * * * * * * * * * * * * * * * * * * * * * * * * * * * * * * //

dimensions      [1 -1 -2 0 0 0 0];

internalField   nonuniform List<scalar> 
160000
(
131882
131881
131879
131877
131874
131870
131865
131859
131851
131845
131839
131831
131822
131814
131804
131793
131781
131769
131758
131747
131734
131717
131699
131682
131664
131646
131631
131615
131597
131576
131550
131526
131509
131492
131467
131442
131420
131398
131369
131339
131316
131292
131268
131240
131210
131186
131158
131122
131091
131065
131036
131009
130980
130949
130919
130885
130856
130827
130782
130738
130712
130688
130649
130603
130551
130517
130486
130454
130418
130359
130322
130286
130243
130197
130151
130108
130066
130021
129980
129940
129902
129870
129835
129789
129746
129709
129665
129609
129552
129507
129460
129416
129381
129346
129301
129240
129181
129127
129072
129010
128952
128892
128838
128793
128739
128680
128620
128564
128516
128469
128422
128362
128303
128250
128183
128123
128062
128001
127953
127911
127861
127795
127728
127671
127619
127579
127540
127483
127419
127361
127296
127226
127176
127138
127095
127033
126970
126908
126826
126732
126670
126627
126573
126506
126459
126405
126339
126277
126211
126137
126059
125984
125899
125832
125764
125686
125615
125556
125497
125437
125374
125302
125226
125154
125079
125009
124955
124892
124813
124727
124651
124588
124513
124463
124418
124340
124258
124175
124115
124059
123974
123893
123820
123714
123614
123527
123442
123358
123271
123205
123153
123097
123041
122997
122958
122909
122844
122796
122754
122717
122684
122646
122604
122562
122517
122467
122401
122344
122298
122249
122199
122153
122101
122035
121978
121924
121851
121791
121742
121687
121638
121589
121523
121451
121379
121306
121233
121150
121068
120988
120871
120776
120706
120636
120556
120476
120386
120289
120187
120091
120005
119910
119829
119743
119645
119563
119487
119400
119332
119278
119229
119185
119131
119052
118964
118896
118822
118729
118643
118584
118536
118484
118421
118345
118269
118198
118125
118051
117981
117916
117835
117729
117635
117539
117453
117370
117293
117218
117122
117026
116944
116861
116780
116699
116610
116509
116426
116343
116274
116219
116154
116058
115938
115832
115735
115657
115583
115480
115371
115272
115150
115047
114977
114916
114849
114768
114684
114601
114503
114427
114353
114258
114166
114079
113970
113854
113761
113670
113578
113486
113374
113251
113144
113053
112954
112848
112770
112695
112597
112487
112380
112259
112129
112018
111908
111791
111689
111597
111520
111434
111279
111137
111023
110899
110779
110641
110431
110259
110106
109972
109848
109724
109622
109517
109378
109235
109110
108982
108830
108658
108489
108340
108207
108064
107930
107795
107641
107539
107433
107250
107007
106773
106577
106449
106311
106144
105985
105785
105566
105338
105140
104928
104730
104545
104343
104159
103992
103821
103629
103418
103195
102968
102768
102557
102276
102085
101918
101683
101519
101392
131881
131880
131878
131876
131873
131869
131864
131858
131851
131845
131838
131830
131820
131811
131802
131792
131779
131769
131759
131748
131734
131717
131701
131684
131665
131644
131628
131612
131595
131575
131553
131529
131510
131491
131466
131441
131420
131395
131362
131338
131317
131292
131266
131237
131209
131186
131159
131120
131088
131065
131041
131010
130977
130948
130919
130882
130852
130821
130783
130746
130712
130682
130646
130602
130556
130520
130484
130447
130406
130364
130327
130288
130244
130196
130149
130108
130067
130022
129980
129941
129904
129869
129829
129781
129741
129707
129665
129612
129556
129508
129464
129420
129382
129345
129295
129233
129176
129121
129069
129009
128951
128897
128835
128788
128741
128681
128620
128567
128518
128471
128423
128365
128303
128242
128178
128119
128059
128001
127952
127907
127861
127802
127736
127678
127625
127580
127534
127476
127416
127357
127289
127220
127176
127139
127092
127021
126966
126913
126824
126732
126667
126622
126572
126512
126462
126406
126339
126274
126202
126120
126057
125993
125898
125829
125765
125694
125624
125561
125495
125431
125366
125299
125231
125154
125074
125004
124950
124888
124814
124741
124664
124594
124514
124462
124408
124331
124261
124187
124117
124052
123969
123885
123799
123694
123605
123525
123441
123353
123266
123205
123155
123102
123045
122998
122957
122908
122851
122802
122762
122723
122688
122649
122603
122556
122515
122471
122410
122352
122303
122252
122201
122152
122102
122039
121976
121921
121857
121795
121742
121688
121635
121576
121509
121440
121372
121303
121232
121151
121068
120983
120869
120770
120705
120645
120568
120481
120386
120289
120186
120089
119999
119899
119825
119750
119649
119564
119490
119406
119332
119279
119229
119180
119130
119062
118972
118898
118820
118735
118658
118591
118533
118475
118410
118335
118267
118204
118129
118051
117983
117915
117823
117729
117640
117539
117449
117364
117292
117223
117123
117025
116940
116859
116779
116700
116619
116529
116440
116349
116272
116207
116135
116044
115941
115843
115742
115653
115573
115472
115369
115274
115166
115072
114997
114927
114854
114772
114686
114599
114506
114426
114346
114251
114165
114080
113986
113874
113765
113664
113570
113476
113368
113248
113141
113056
112962
112851
112768
112695
112602
112481
112381
112274
112134
112027
111923
111799
111697
111606
111514
111403
111260
111130
111021
110904
110771
110625
110456
110286
110123
109979
109849
109720
109614
109513
109383
109234
109108
108984
108834
108655
108484
108340
108211
108074
107945
107806
107662
107546
107415
107224
107014
106801
106607
106451
106299
106129
105948
105759
105549
105334
105146
104926
104751
104593
104369
104165
103990
103807
103611
103420
103201
102968
102774
102563
102296
102098
101915
101701
101529
101391
131879
131878
131876
131874
131871
131867
131862
131857
131851
131844
131837
131829
131818
131808
131800
131790
131779
131769
131758
131747
131733
131718
131702
131683
131664
131644
131625
131609
131593
131575
131552
131528
131508
131489
131467
131441
131418
131391
131359
131336
131315
131291
131264
131233
131209
131187
131155
131117
131087
131065
131043
131014
130978
130945
130914
130878
130847
130815
130784
130751
130711
130676
130643
130603
130557
130523
130490
130448
130406
130366
130324
130281
130240
130193
130148
130109
130065
130023
129985
129944
129903
129867
129827
129779
129736
129698
129657
129614
129565
129513
129469
129426
129381
129338
129286
129224
129169
129113
129060
129007
128951
128897
128840
128784
128736
128684
128627
128569
128516
128468
128418
128360
128303
128237
128174
128115
128055
128003
127957
127908
127857
127798
127739
127682
127629
127580
127529
127472
127412
127347
127281
127226
127181
127138
127087
127019
126957
126897
126817
126730
126663
126618
126571
126512
126461
126408
126340
126268
126193
126118
126054
125982
125891
125828
125772
125701
125630
125567
125497
125428
125359
125292
125226
125152
125074
125003
124944
124878
124808
124744
124675
124604
124534
124465
124390
124318
124258
124192
124116
124043
123966
123871
123771
123678
123595
123515
123431
123345
123265
123208
123160
123110
123056
123003
122955
122910
122864
122818
122776
122733
122693
122654
122610
122562
122512
122464
122405
122356
122311
122249
122198
122154
122102
122036
121975
121920
121860
121797
121736
121679
121626
121565
121497
121431
121364
121297
121224
121142
121067
120984
120876
120778
120705
120639
120568
120490
120393
120286
120174
120082
119994
119896
119822
119750
119656
119566
119493
119420
119345
119287
119233
119179
119123
119055
118980
118901
118822
118745
118671
118597
118530
118467
118399
118327
118261
118201
118137
118064
117988
117908
117821
117727
117632
117534
117447
117360
117290
117221
117120
117027
116939
116863
116789
116704
116619
116535
116449
116353
116269
116193
116118
116037
115938
115838
115740
115651
115567
115466
115377
115292
115197
115103
115021
114941
114859
114775
114688
114594
114504
114426
114340
114253
114174
114086
113986
113876
113770
113663
113563
113465
113361
113257
113157
113064
112964
112863
112773
112687
112590
112467
112370
112278
112153
112039
111936
111810
111706
111613
111505
111383
111250
111115
111004
110898
110764
110620
110481
110328
110149
109981
109848
109715
109610
109510
109369
109221
109101
108986
108851
108665
108482
108336
108216
108100
107981
107835
107681
107546
107376
107191
107009
106816
106633
106461
106297
106127
105936
105725
105514
105336
105158
104933
104762
104618
104417
104172
103973
103799
103619
103432
103211
102983
102780
102559
102319
102109
101896
101701
101543
101395
131877
131876
131874
131872
131869
131865
131861
131856
131850
131843
131836
131826
131815
131806
131798
131788
131777
131767
131756
131744
131731
131717
131701
131680
131663
131645
131623
131606
131591
131572
131549
131526
131504
131485
131465
131441
131414
131385
131354
131333
131313
131291
131264
131233
131207
131181
131149
131116
131088
131063
131040
131014
130979
130945
130914
130879
130845
130811
130779
130745
130707
130672
130640
130600
130555
130522
130489
130449
130407
130370
130328
130274
130229
130185
130148
130114
130071
130027
129987
129942
129904
129866
129822
129770
129728
129692
129652
129611
129564
129517
129473
129425
129380
129330
129271
129218
129169
129106
129049
129003
128956
128900
128841
128784
128731
128681
128630
128571
128516
128466
128407
128350
128298
128238
128176
128111
128049
128001
127959
127908
127851
127793
127737
127679
127630
127584
127529
127471
127406
127342
127279
127230
127185
127136
127083
127015
126948
126883
126810
126734
126670
126614
126560
126505
126454
126404
126342
126262
126181
126115
126052
125980
125901
125829
125765
125694
125630
125568
125491
125421
125356
125287
125222
125153
125073
125000
124939
124874
124807
124748
124681
124603
124532
124462
124387
124315
124252
124182
124102
124031
123959
123865
123753
123663
123582
123504
123424
123340
123269
123216
123167
123120
123072
123015
122959
122915
122875
122834
122791
122746
122702
122660
122617
122569
122512
122458
122402
122354
122307
122242
122197
122155
122099
122033
121973
121916
121858
121795
121729
121671
121615
121552
121490
121425
121355
121288
121217
121134
121057
120971
120882
120797
120710
120641
120567
120480
120387
120289
120180
120084
119993
119889
119814
119739
119652
119571
119503
119438
119365
119301
119240
119178
119113
119052
118986
118899
118823
118755
118683
118604
118528
118461
118393
118322
118253
118192
118134
118070
117988
117908
117833
117736
117625
117532
117444
117358
117286
117214
117127
117033
116941
116862
116783
116704
116623
116536
116449
116351
116272
116193
116101
116020
115930
115833
115739
115651
115563
115472
115390
115311
115228
115140
115052
114962
114863
114771
114680
114586
114502
114422
114332
114256
114183
114091
113989
113884
113774
113653
113560
113470
113367
113268
113170
113069
112964
112871
112775
112683
112590
112460
112355
112265
112161
112048
111944
111824
111713
111619
111501
111367
111242
111111
110989
110888
110772
110624
110480
110336
110173
109999
109863
109729
109606
109494
109353
109216
109090
108971
108844
108684
108505
108345
108217
108105
108005
107881
107717
107556
107365
107190
107020
106830
106649
106468
106282
106106
105919
105683
105481
105331
105168
104939
104775
104638
104450
104188
103967
103801
103627
103441
103247
103018
102792
102564
102322
102097
101885
101701
101537
101391
131875
131874
131872
131870
131867
131863
131859
131854
131848
131841
131832
131820
131811
131804
131797
131786
131775
131764
131752
131741
131730
131716
131699
131679
131660
131640
131619
131603
131586
131567
131549
131526
131502
131484
131465
131438
131407
131377
131354
131334
131311
131288
131263
131231
131202
131174
131142
131110
131087
131064
131039
131012
130978
130944
130911
130877
130842
130809
130776
130740
130702
130665
130631
130593
130550
130519
130490
130452
130409
130368
130323
130271
130228
130186
130147
130115
130075
130028
129982
129943
129907
129863
129816
129766
129724
129687
129647
129606
129563
129518
129468
129417
129373
129324
129264
129213
129164
129105
129046
128999
128957
128905
128840
128784
128729
128677
128625
128567
128514
128465
128404
128339
128286
128239
128185
128113
128041
127996
127955
127902
127845
127790
127734
127679
127634
127586
127526
127465
127401
127339
127277
127231
127186
127135
127080
127016
126944
126870
126802
126733
126670
126608
126553
126501
126447
126394
126332
126256
126182
126112
126040
125970
125900
125831
125763
125695
125629
125560
125479
125412
125350
125284
125221
125155
125073
124998
124942
124883
124811
124746
124674
124595
124526
124455
124382
124308
124236
124164
124087
124016
123945
123860
123759
123656
123563
123487
123413
123343
123283
123237
123188
123134
123088
123032
122967
122923
122885
122845
122803
122758
122712
122669
122623
122574
122516
122455
122399
122349
122297
122241
122198
122152
122091
122029
121964
121909
121858
121796
121730
121667
121602
121539
121481
121418
121344
121274
121201
121123
121044
120953
120875
120802
120717
120646
120572
120476
120381
120280
120172
120082
119995
119895
119809
119726
119648
119579
119523
119462
119383
119318
119252
119183
119117
119048
118980
118902
118821
118754
118686
118610
118534
118454
118385
118316
118245
118184
118133
118078
118000
117912
117827
117715
117612
117533
117446
117357
117287
117212
117130
117037
116946
116867
116783
116696
116613
116535
116456
116366
116274
116184
116093
116009
115919
115824
115733
115655
115575
115478
115393
115323
115253
115173
115079
114977
114874
114773
114665
114581
114501
114412
114324
114259
114193
114095
113987
113883
113778
113659
113560
113473
113377
113278
113177
113067
112965
112878
112781
112685
112593
112464
112343
112252
112168
112073
111955
111835
111720
111609
111479
111351
111233
111107
110986
110885
110767
110610
110466
110328
110176
110012
109878
109752
109618
109488
109344
109215
109088
108961
108831
108683
108516
108350
108212
108103
108013
107905
107754
107578
107383
107202
107027
106845
106671
106488
106255
106056
105888
105680
105473
105321
105168
104973
104795
104649
104454
104177
103961
103808
103645
103447
103252
103037
102820
102584
102294
102074
101897
101728
101547
101389
131872
131871
131869
131866
131863
131859
131855
131850
131844
131836
131827
131817
131809
131802
131794
131785
131774
131761
131748
131736
131725
131713
131697
131675
131655
131637
131617
131599
131579
131563
131547
131525
131502
131481
131460
131433
131403
131375
131352
131330
131307
131284
131258
131226
131197
131170
131139
131109
131083
131061
131038
131008
130973
130942
130908
130872
130839
130806
130769
130733
130695
130655
130622
130589
130549
130518
130490
130453
130407
130363
130317
130272
130234
130191
130147
130114
130077
130031
129984
129939
129899
129857
129809
129762
129721
129681
129639
129601
129563
129517
129461
129408
129367
129321
129262
129207
129155
129103
129051
128999
128951
128899
128841
128787
128730
128672
128614
128555
128510
128466
128407
128338
128281
128233
128180
128108
128037
127987
127946
127899
127841
127788
127730
127681
127638
127579
127519
127462
127400
127337
127279
127231
127184
127126
127069
127013
126948
126873
126799
126729
126664
126599
126546
126495
126438
126378
126318
126252
126180
126103
126033
125966
125900
125837
125766
125691
125612
125540
125468
125407
125350
125285
125215
125151
125083
125008
124946
124886
124812
124740
124664
124581
124515
124451
124377
124292
124218
124144
124071
124007
123939
123847
123745
123647
123558
123479
123416
123360
123299
123254
123208
123150
123104
123054
122985
122933
122895
122855
122813
122768
122719
122672
122626
122575
122514
122458
122403
122347
122295
122243
122194
122141
122082
122024
121957
121901
121854
121799
121730
121655
121588
121525
121465
121404
121334
121262
121184
121109
121034
120947
120859
120783
120719
120651
120568
120470
120374
120277
120176
120084
119990
119894
119809
119728
119655
119586
119534
119483
119398
119328
119264
119193
119122
119048
118977
118903
118823
118751
118676
118611
118542
118451
118376
118309
118245
118188
118135
118076
117998
117911
117816
117704
117603
117529
117450
117357
117286
117211
117133
117042
116949
116869
116785
116700
116613
116529
116446
116364
116276
116179
116091
116011
115921
115824
115736
115660
115580
115488
115398
115335
115268
115183
115093
114988
114880
114774
114657
114583
114508
114412
114326
114260
114193
114096
113986
113882
113778
113668
113567
113473
113379
113279
113168
113061
112969
112885
112790
112689
112592
112473
112341
112253
112172
112077
111964
111850
111730
111591
111456
111346
111235
111096
110974
110876
110762
110600
110443
110307
110180
110042
109887
109754
109630
109492
109348
109221
109088
108955
108821
108676
108517
108362
108213
108106
108021
107918
107770
107586
107394
107212
107035
106848
106674
106493
106248
106031
105872
105699
105487
105320
105165
104994
104803
104639
104454
104184
103975
103820
103650
103457
103265
103052
102826
102561
102253
102066
101910
101748
101562
101391
131867
131866
131864
131862
131858
131855
131851
131846
131840
131832
131823
131814
131807
131800
131791
131781
131769
131757
131743
131731
131720
131709
131690
131668
131649
131633
131615
131598
131577
131560
131543
131523
131500
131477
131453
131427
131401
131375
131349
131324
131301
131279
131252
131220
131194
131168
131137
131107
131081
131057
131033
131002
130969
130939
130905
130867
130833
130799
130761
130725
130687
130647
130618
130589
130553
130516
130486
130454
130410
130358
130310
130271
130235
130191
130149
130113
130072
130028
129982
129935
129893
129849
129799
129760
129722
129678
129635
129597
129557
129511
129454
129401
129359
129314
129256
129195
129146
129102
129056
128998
128948
128897
128842
128788
128725
128668
128608
128546
128505
128463
128397
128332
128276
128225
128169
128098
128032
127985
127941
127896
127846
127787
127726
127680
127637
127571
127510
127457
127402
127342
127279
127224
127172
127117
127065
127009
126948
126882
126796
126723
126658
126595
126536
126484
126430
126371
126309
126239
126166
126086
126029
125969
125900
125842
125769
125683
125595
125525
125458
125401
125351
125288
125208
125146
125083
125009
124942
124881
124813
124735
124660
124582
124509
124444
124369
124281
124204
124130
124056
123992
123923
123828
123731
123647
123566
123483
123428
123382
123325
123269
123215
123160
123117
123071
123005
122947
122904
122865
122823
122774
122721
122673
122625
122574
122517
122465
122408
122344
122296
122247
122187
122128
122076
122018
121949
121892
121845
121792
121723
121643
121578
121513
121447
121385
121324
121255
121174
121097
121017
120936
120845
120775
120714
120641
120557
120462
120369
120278
120184
120088
119991
119896
119816
119747
119679
119610
119540
119480
119409
119338
119271
119197
119122
119047
118979
118905
118827
118755
118681
118611
118534
118442
118373
118315
118250
118190
118132
118068
117995
117908
117809
117699
117599
117525
117445
117354
117284
117215
117138
117045
116949
116866
116784
116703
116613
116530
116444
116356
116269
116171
116089
116022
115939
115833
115741
115662
115583
115496
115414
115350
115280
115183
115092
114994
114889
114784
114673
114594
114519
114420
114325
114252
114178
114089
113987
113884
113775
113668
113572
113473
113382
113287
113168
113060
112969
112883
112793
112695
112585
112471
112364
112264
112172
112073
111966
111858
111737
111575
111441
111343
111239
111098
110968
110863
110745
110591
110428
110293
110178
110058
109916
109761
109624
109486
109352
109231
109096
108948
108805
108669
108527
108382
108228
108111
108020
107913
107775
107616
107429
107216
107029
106848
106673
106491
106269
106030
105847
105682
105509
105332
105152
104970
104786
104622
104442
104206
104004
103846
103678
103478
103273
103060
102832
102550
102282
102086
101909
101730
101538
101385
131862
131861
131859
131857
131854
131851
131847
131841
131835
131828
131819
131810
131803
131795
131786
131774
131763
131753
131741
131727
131714
131699
131682
131664
131645
131627
131613
131597
131576
131558
131539
131518
131494
131473
131451
131424
131397
131367
131341
131318
131296
131272
131245
131215
131190
131164
131134
131106
131081
131057
131028
130995
130965
130934
130899
130861
130825
130788
130750
130718
130683
130645
130615
130586
130552
130516
130484
130452
130410
130356
130308
130272
130237
130191
130147
130109
130069
130022
129971
129927
129886
129842
129799
129760
129718
129672
129628
129592
129554
129505
129448
129395
129349
129300
129246
129195
129142
129095
129052
129003
128951
128896
128842
128784
128719
128661
128599
128541
128498
128448
128386
128332
128271
128215
128154
128090
128034
127988
127940
127893
127843
127781
127722
127680
127638
127569
127499
127445
127397
127341
127273
127214
127165
127117
127065
127003
126944
126877
126785
126715
126658
126596
126527
126475
126425
126360
126287
126224
126159
126085
126023
125950
125892
125839
125766
125680
125594
125520
125449
125394
125344
125278
125204
125147
125086
125005
124928
124872
124816
124740
124651
124579
124514
124440
124352
124267
124191
124117
124037
123963
123892
123812
123733
123654
123582
123509
123448
123403
123351
123291
123230
123171
123129
123083
123023
122963
122914
122873
122833
122781
122725
122675
122624
122571
122517
122469
122415
122350
122295
122241
122178
122125
122070
122009
121943
121886
121835
121778
121712
121636
121563
121499
121438
121377
121311
121233
121161
121089
121006
120927
120844
120772
120707
120632
120547
120458
120365
120276
120184
120087
119999
119909
119826
119762
119698
119631
119556
119490
119424
119344
119271
119203
119126
119050
118983
118901
118827
118765
118690
118612
118532
118442
118372
118316
118255
118188
118127
118063
117992
117898
117800
117699
117605
117525
117439
117353
117281
117209
117137
117049
116947
116861
116781
116697
116606
116532
116453
116359
116266
116164
116088
116026
115957
115854
115748
115666
115593
115509
115431
115363
115285
115190
115091
114990
114893
114796
114697
114608
114523
114426
114323
114245
114172
114091
113995
113877
113769
113667
113573
113478
113384
113291
113175
113062
112974
112884
112794
112700
112577
112458
112369
112279
112171
112073
111968
111856
111732
111567
111437
111334
111224
111097
110963
110853
110734
110578
110418
110295
110183
110056
109925
109779
109616
109476
109358
109241
109105
108958
108806
108655
108525
108401
108265
108134
108021
107899
107759
107611
107438
107227
107033
106850
106670
106486
106280
106055
105846
105679
105517
105325
105123
104949
104787
104605
104416
104244
104060
103878
103692
103483
103274
103060
102819
102525
102309
102134
101936
101713
101516
101381
131856
131856
131855
131853
131849
131847
131843
131837
131830
131822
131814
131806
131799
131790
131780
131768
131758
131748
131734
131718
131705
131691
131677
131660
131642
131625
131610
131591
131571
131553
131533
131511
131489
131468
131446
131417
131388
131356
131333
131314
131293
131267
131238
131211
131185
131158
131131
131104
131078
131054
131022
130985
130957
130929
130892
130854
130818
130780
130743
130713
130680
130643
130611
130581
130551
130519
130484
130449
130409
130356
130307
130268
130229
130184
130145
130109
130066
130012
129961
129920
129882
129839
129797
129757
129713
129664
129621
129585
129545
129498
129443
129391
129342
129289
129237
129189
129136
129089
129047
129000
128947
128895
128841
128776
128717
128659
128596
128539
128487
128422
128373
128324
128266
128212
128150
128087
128037
127989
127936
127890
127840
127779
127724
127676
127627
127568
127501
127440
127384
127321
127264
127213
127164
127116
127062
127002
126938
126856
126775
126711
126658
126599
126525
126465
126406
126339
126276
126213
126141
126077
126017
125941
125882
125823
125754
125682
125597
125519
125444
125385
125329
125266
125209
125151
125082
125001
124924
124861
124801
124737
124658
124578
124506
124426
124335
124257
124182
124098
124002
123942
123880
123808
123739
123669
123604
123538
123476
123425
123365
123307
123252
123193
123143
123092
123035
122980
122926
122881
122840
122789
122730
122677
122625
122570
122515
122466
122415
122353
122293
122236
122177
122125
122066
121999
121933
121881
121827
121767
121702
121623
121552
121494
121432
121361
121292
121219
121148
121075
120995
120919
120845
120774
120697
120619
120542
120456
120363
120280
120195
120092
120003
119916
119835
119772
119710
119646
119573
119496
119425
119353
119277
119210
119134
119051
118985
118901
118825
118766
118699
118620
118538
118451
118378
118312
118238
118187
118136
118061
117974
117871
117794
117713
117614
117526
117434
117353
117280
117208
117136
117043
116944
116857
116781
116703
116616
116531
116445
116353
116262
116176
116092
116019
115952
115862
115762
115681
115607
115523
115437
115366
115292
115210
115109
114993
114888
114793
114709
114625
114529
114431
114329
114247
114167
114088
113998
113879
113775
113671
113570
113481
113389
113293
113189
113075
112978
112883
112786
112690
112580
112455
112365
112282
112178
112082
111985
111859
111706
111550
111422
111303
111198
111091
110956
110847
110732
110577
110419
110295
110176
110053
109933
109805
109646
109476
109353
109236
109098
108963
108812
108642
108516
108400
108283
108164
108030
107898
107760
107602
107418
107232
107058
106879
106680
106463
106252
106064
105872
105681
105504
105315
105137
104963
104794
104603
104400
104253
104103
103907
103707
103491
103267
103053
102821
102556
102333
102148
101946
101723
101537
101390
131851
131850
131850
131848
131845
131842
131838
131832
131825
131816
131809
131801
131793
131784
131774
131763
131751
131740
131725
131710
131696
131685
131674
131655
131638
131621
131602
131583
131565
131545
131525
131506
131486
131462
131436
131408
131384
131355
131328
131308
131287
131259
131231
131204
131178
131151
131127
131101
131076
131051
131017
130978
130951
130922
130885
130849
130813
130773
130739
130708
130673
130638
130607
130577
130549
130521
130485
130445
130402
130348
130299
130258
130219
130179
130141
130103
130059
130008
129961
129918
129874
129829
129791
129754
129709
129659
129615
129577
129537
129488
129437
129389
129337
129282
129224
129176
129128
129084
129044
128997
128943
128893
128839
128768
128712
128657
128596
128538
128478
128415
128363
128308
128261
128215
128151
128085
128033
127987
127936
127885
127830
127774
127723
127673
127620
127563
127498
127435
127374
127315
127261
127208
127157
127108
127053
126995
126924
126838
126778
126722
126655
126581
126506
126448
126389
126327
126267
126198
126123
126070
126015
125934
125870
125804
125745
125684
125593
125512
125440
125383
125326
125261
125204
125148
125079
124995
124922
124855
124785
124722
124652
124568
124496
124419
124326
124247
124169
124085
124001
123932
123863
123806
123750
123684
123621
123561
123504
123449
123377
123318
123267
123211
123160
123110
123048
122990
122939
122892
122845
122794
122737
122680
122626
122571
122514
122463
122414
122351
122290
122231
122173
122121
122064
121995
121930
121877
121818
121758
121693
121611
121542
121483
121416
121342
121281
121213
121135
121059
120992
120922
120841
120768
120690
120611
120540
120458
120366
120279
120190
120096
120014
119933
119849
119776
119710
119651
119583
119501
119429
119364
119294
119213
119132
119056
118985
118899
118825
118760
118696
118633
118556
118458
118381
118314
118242
118187
118126
118044
117960
117866
117795
117718
117615
117524
117435
117354
117276
117204
117130
117040
116950
116866
116790
116707
116617
116519
116435
116353
116271
116188
116098
116016
115948
115869
115771
115685
115612
115529
115446
115374
115292
115207
115119
115014
114903
114804
114713
114627
114529
114430
114343
114258
114172
114084
113988
113880
113782
113680
113568
113484
113395
113285
113190
113095
112988
112878
112778
112685
112577
112452
112364
112286
112184
112084
111988
111848
111679
111542
111403
111267
111185
111096
110963
110845
110723
110571
110429
110306
110180
110060
109938
109805
109658
109466
109343
109226
109093
108969
108811
108635
108512
108402
108289
108178
108048
107910
107769
107600
107429
107254
107066
106872
106656
106434
106243
106074
105889
105683
105499
105326
105164
104995
104811
104598
104390
104249
104108
103933
103741
103506
103267
103045
102808
102577
102362
102138
101915
101722
101562
101407
131845
131845
131844
131842
131840
131836
131831
131824
131816
131809
131802
131795
131787
131778
131768
131755
131743
131732
131717
131703
131691
131681
131668
131649
131631
131612
131594
131576
131557
131538
131521
131503
131481
131455
131426
131402
131379
131353
131324
131300
131275
131249
131222
131195
131170
131147
131124
131099
131073
131046
131012
130975
130944
130913
130878
130844
130806
130766
130735
130703
130665
130633
130605
130573
130547
130520
130479
130437
130391
130337
130291
130249
130208
130171
130135
130097
130053
130009
129967
129919
129869
129823
129788
129750
129699
129653
129611
129571
129530
129483
129433
129378
129325
129273
129214
129166
129125
129083
129040
128993
128940
128888
128834
128763
128705
128647
128589
128534
128478
128418
128361
128301
128253
128206
128147
128080
128025
127982
127935
127881
127823
127762
127718
127675
127616
127554
127491
127431
127372
127312
127255
127198
127145
127098
127048
126987
126906
126831
126774
126716
126641
126565
126496
126433
126375
126322
126265
126195
126123
126059
125993
125928
125861
125791
125732
125669
125584
125507
125437
125382
125326
125252
125194
125144
125082
124991
124914
124839
124772
124714
124644
124548
124488
124424
124320
124236
124156
124071
124003
123941
123866
123805
123754
123698
123635
123574
123519