/*--------------------------------*- C++ -*----------------------------------*\
  =========                 |
  \\      /  F ield         | OpenFOAM: The Open Source CFD Toolbox
   \\    /   O peration     | Website:  https://openfoam.org
    \\  /    A nd           | Version:  7
     \\/     M anipulation  |
\*---------------------------------------------------------------------------*/
FoamFile
{
    version     2.0;
    format      ascii;
    class       surfaceScalarField;
    location    "1500";
    object      phi;
}
// * * * * * * * * * * * * * * * * * * * * * * * * * * * * * * * * * * * * * //

dimensions      [0 3 -1 0 0 0 0];

internalField   nonuniform List<scalar> 
319200
(
7.90822e-17
1.29366e-16
2.1519e-16
8.73769e-17
3.47376e-16
1.18083e-16
4.88635e-16
1.14572e-16
5.97029e-16
1.75224e-16
6.84269e-16
1.59241e-16
7.35313e-16
2.0023e-16
8.16453e-16
1.01204e-16
1.03139e-15
1.57869e-17
1.1989e-15
9.60424e-17
1.32874e-15
1.24054e-16
1.51247e-15
5.71753e-17
1.53948e-15
2.49638e-16
1.2956e-15
4.92938e-16
1.13125e-15
3.65559e-16
1.16738e-15
1.93808e-16
1.14663e-15
2.34296e-16
1.29966e-15
4.9793e-17
1.61611e-15
-1.10355e-16
1.94117e-15
-1.11523e-16
2.22856e-15
-4.23364e-17
2.47377e-15
-9.90259e-18
2.88542e-15
-1.90935e-16
3.3684e-15
-2.37865e-16
3.65439e-15
-2.21153e-17
3.45951e-15
4.74087e-16
2.97012e-15
7.20796e-16
2.71089e-15
4.69119e-16
2.62701e-15
3.0127e-16
2.73889e-15
8.06924e-17
3.223e-15
-2.91244e-16
3.89074e-15
-4.23494e-16
4.19095e-15
-1.97445e-17
4.18551e-15
2.50816e-16
4.23186e-15
1.90776e-16
4.23851e-15
2.40186e-16
4.34864e-15
9.69934e-17
4.12194e-15
4.47134e-16
3.46661e-15
8.26531e-16
3.42866e-15
2.27458e-16
3.82459e-15
-1.52716e-16
4.04005e-15
2.68309e-17
3.99193e-15
2.85807e-16
3.86257e-15
3.08037e-16
3.89263e-15
1.71034e-16
4.14606e-15
-5.46062e-17
4.33023e-15
7.41389e-18
4.27134e-15
2.63093e-16
4.02308e-15
4.8e-16
4.32595e-15
-9.53455e-17
5.28815e-15
-7.42585e-16
5.78607e-15
-2.82894e-16
5.40528e-15
5.77432e-16
5.33896e-15
2.50576e-16
5.46409e-15
8.13853e-17
5.20817e-15
4.39206e-16
4.56261e-15
8.8289e-16
4.02167e-15
7.26335e-16
4.32164e-15
-1.25402e-16
5.3711e-15
-8.70734e-16
5.56865e-15
3.55128e-17
4.87771e-15
8.75705e-16
4.67185e-15
3.88074e-16
4.75316e-15
9.1062e-17
5.39097e-15
-4.77051e-16
6.25952e-15
-6.43692e-16
6.2073e-15
2.62565e-16
5.04153e-15
1.38426e-15
3.81493e-15
1.39182e-15
4.61931e-15
-6.77575e-16
5.70675e-15
-8.84241e-16
6.15213e-15
-2.84713e-16
6.57395e-15
-2.26322e-16
6.55987e-15
1.82626e-16
6.50535e-15
2.40624e-16
6.66335e-15
1.86894e-17
6.92292e-15
-7.22192e-17
7.18588e-15
-9.18786e-17
7.53164e-15
-1.51629e-16
7.95738e-15
-2.51462e-16
8.54218e-15
-3.90154e-16
8.3728e-15
3.72103e-16
7.56008e-15
9.915e-16
6.50764e-15
1.22801e-15
5.51337e-15
1.16787e-15
5.34641e-15
3.34359e-16
5.53841e-15
-2.42313e-17
5.95853e-15
-2.6847e-16
6.59257e-15
-4.69082e-16
6.86891e-15
-9.0212e-17
7.62579e-15
-6.04816e-16
8.65998e-15
-8.53045e-16
8.93767e-15
-9.21488e-17
8.73308e-15
3.8321e-16
8.09484e-15
8.12272e-16
7.32515e-15
9.18162e-16
6.81926e-15
6.63046e-16
6.27663e-15
6.89708e-16
6.01308e-15
4.1175e-16
6.0285e-15
1.18568e-16
6.17927e-15
8.56914e-19
6.86203e-15
-5.53803e-16
6.75499e-15
2.75562e-16
6.02549e-15
8.77892e-16
6.44293e-15
-2.87121e-16
6.72558e-15
-1.20326e-16
6.89018e-15
-3.25883e-17
7.62518e-15
-5.86981e-16
8.12851e-15
-3.50348e-16
8.52879e-15
-2.49168e-16
8.72455e-15
-3.69069e-17
9.10934e-15
-2.5919e-16
9.29455e-15
-2.46885e-17
8.61014e-15
8.25429e-16
8.23213e-15
5.13482e-16
7.94542e-15
4.35106e-16
7.79376e-15
2.83974e-16
8.19845e-15
-2.73417e-16
8.10263e-15
2.4391e-16
7.5329e-15
7.07647e-16
7.65157e-15
1.5045e-17
8.58953e-15
-8.16753e-16
9.95032e-15
-1.2278e-15
1.12913e-14
-1.20459e-15
1.25196e-14
-1.08774e-15
1.27646e-14
-8.46991e-17
1.17238e-14
1.19951e-15
1.09946e-14
8.61236e-16
1.08903e-14
2.44237e-16
1.06491e-14
3.85778e-16
1.01023e-14
6.8042e-16
9.87717e-15
3.51134e-16
1.05778e-14
-5.76952e-16
1.1128e-14
-4.0197e-16
1.06304e-14
6.39645e-16
9.101e-15
1.66618e-15
8.12716e-15
1.09588e-15
8.66215e-15
-4.0486e-16
8.6143e-15
1.65483e-16
8.85673e-15
-1.35872e-16
8.68208e-15
3.05579e-16
7.79593e-15
1.02591e-15
7.80458e-15
8.96115e-17
8.9265e-15
-1.00383e-15
9.68019e-15
-6.20957e-16
9.81657e-15
-2.01927e-17
9.8552e-15
7.86239e-17
9.57659e-15
3.97362e-16
8.62505e-15
1.07222e-15
7.24235e-15
1.4911e-15
7.1523e-15
1.88337e-16
8.14726e-15
-8.84611e-16
8.29578e-15
-5.01508e-17
8.13068e-15
2.86883e-16
8.43668e-15
-2.09811e-16
9.65062e-15
-1.10564e-15
1.10489e-14
-1.29051e-15
1.21447e-14
-9.75574e-16
1.20777e-14
1.79954e-16
1.11784e-14
1.01946e-15
1.01918e-14
1.09204e-15
9.8711e-15
4.30169e-16
1.05459e-14
-5.73025e-16
1.05908e-14
7.49798e-17
1.02249e-14
4.58396e-16
9.74409e-15
5.86701e-16
8.96956e-15
8.78879e-16
8.74515e-15
3.16299e-16
9.0529e-15
-2.09973e-16
1.05762e-14
-1.43375e-15
1.25935e-14
-1.90712e-15
1.34556e-14
-7.39993e-16
1.36755e-14
-1.19006e-16
1.35266e-14
2.68477e-16
1.23676e-14
1.26504e-15
1.12714e-14
1.18701e-15
1.2085e-14
-7.21114e-16
1.39001e-14
-1.72151e-15
1.45796e-14
-5.7096e-16
1.34892e-14
1.19588e-15
1.31326e-14
4.34397e-16
1.19597e-14
1.26738e-15
1.00089e-14
2.03344e-15
8.528e-15
1.5573e-15
7.61351e-15
9.90478e-16
7.57293e-15
1.16869e-16
7.59004e-15
6.27268e-17
7.28998e-15
3.83319e-16
6.9159e-15
4.50676e-16
6.99874e-15
1.57802e-19
7.36575e-15
-2.72085e-16
7.94351e-15
-4.89162e-16
8.64781e-15
-6.09133e-16
8.98944e-15
-2.41797e-16
8.21265e-15
8.85021e-16
8.17254e-15
1.11671e-16
9.86628e-15
-1.61517e-15
1.14602e-14
-1.50057e-15
1.2974e-14
-1.41433e-15
1.4029e-14
-9.47735e-16
1.43764e-14
-2.43948e-16
1.43708e-14
9.7955e-17
1.39978e-14
4.59232e-16
1.30288e-14
1.04701e-15
1.25508e-14
5.54786e-16
1.30477e-14
-4.13945e-16
1.35097e-14
-3.8602e-16
1.44337e-14
-8.48707e-16
1.50725e-14
-5.61848e-16
1.54397e-14
-2.92209e-16
1.55856e-14
-6.89687e-17
1.5125e-14
5.40321e-16
1.49773e-14
2.19202e-16
1.54024e-14
-3.56252e-16
1.49554e-14
5.2142e-16
1.43993e-14
6.25207e-16
1.54085e-14
-9.46326e-16
1.66318e-14
-1.15166e-15
1.66522e-14
5.77148e-17
1.64623e-14
2.62437e-16
1.53031e-14
1.23351e-15
1.31514e-14
2.22005e-15
1.13357e-14
1.87136e-15
1.02894e-14
1.10141e-15
9.43425e-15
9.11118e-16
9.15244e-15
3.38811e-16
8.86627e-15
3.49764e-16
8.94562e-15
-2.31765e-17
8.99881e-15
1.53647e-17
8.3337e-15
7.27273e-16
8.22698e-15
1.54609e-16
7.77646e-15
5.09045e-16
7.70292e-15
1.26874e-16
8.86188e-15
-1.09927e-15
1.00921e-14
-1.17197e-15
1.07625e-14
-6.09357e-16
1.08312e-14
-1.72012e-17
1.09319e-14
-4.24641e-17
1.10204e-14
-3.88381e-17
1.09509e-14
1.25869e-16
1.05802e-14
4.22841e-16
9.80739e-15
8.21349e-16
9.49792e-15
3.62811e-16
1.03606e-14
-8.13671e-16
1.11007e-14
-6.86312e-16
1.14888e-14
-3.33711e-16
1.21947e-14
-6.4848e-16
1.29689e-14
-7.17477e-16
1.25382e-14
5.01402e-16
1.19808e-14
6.21072e-16
1.1191e-14
8.54675e-16
9.534e-15
1.71798e-15
8.6924e-15
8.94363e-16
9.2863e-15
-5.45319e-16
1.04026e-14
-1.07022e-15
1.10287e-14
-5.72557e-16
1.08911e-14
1.85839e-16
1.22456e-14
-1.30953e-15
1.51996e-14
-2.90306e-15
1.67124e-14
-1.45017e-15
1.54744e-14
1.30093e-15
1.3547e-14
1.97766e-15
1.18849e-14
1.70857e-15
1.09005e-14
1.02474e-15
1.11977e-14
-2.53137e-16
1.2047e-14
-8.00684e-16
1.26936e-14
-5.99102e-16
1.32973e-14
-5.62244e-16
1.40338e-14
-6.89262e-16
1.32272e-14
8.62952e-16
1.16395e-14
1.63069e-15
1.16079e-14
7.18729e-17
1.21095e-14
-4.58754e-16
1.22833e-14
-1.33186e-16
1.23711e-14
-4.83407e-17
1.22834e-14
1.24914e-16
1.25711e-14
-2.45688e-16
1.25351e-14
8.26518e-17
1.18296e-14
7.45813e-16
1.15557e-14
3.1559e-16
1.13219e-14
2.72394e-16
1.13733e-14
-1.34736e-17
1.13359e-14
7.5877e-17
1.13549e-14
2.01326e-17
1.21205e-14
-7.25958e-16
1.42689e-14
-2.11026e-15
1.63575e-14
-2.04406e-15
1.75453e-14
-1.14984e-15
1.76752e-14
-9.12281e-17
1.53334e-14
2.38066e-15
1.244e-14
2.9342e-15
1.12024e-14
1.26783e-15
1.19015e-14
-6.65666e-16
1.33195e-14
-1.38356e-15
1.44288e-14
-1.07295e-15
1.40172e-14
4.48405e-16
1.23868e-14
1.66879e-15
1.17037e-14
7.11429e-16
1.16941e-14
4.54694e-17
1.20421e-14
-3.16966e-16
1.3536e-14
-1.45872e-15
1.68488e-14
-3.27379e-15
1.99153e-14
-3.02088e-15
2.08718e-14
-9.10935e-16
2.06024e-14
3.12153e-16
2.01504e-14
4.89959e-16
1.96937e-14
4.93499e-16
1.89114e-14
8.18016e-16
1.90407e-14
-9.74298e-17
1.91171e-14
-4.41603e-17
1.8073e-14
1.07624e-15
1.73475e-14
7.5437e-16
1.73844e-14
-6.35568e-18
1.73451e-14
7.29277e-17
1.83817e-14
-1.00465e-15
1.99482e-14
-1.53136e-15
1.983e-14
1.53162e-16
1.90171e-14
8.42609e-16
1.81925e-14
8.52016e-16
1.70215e-14
1.20067e-15
1.65896e-14
4.58568e-16
1.68411e-14
-2.23586e-16
1.71288e-14
-2.60413e-16
1.79199e-14
-7.59108e-16
1.8636e-14
-6.86086e-16
1.88275e-14
-1.61642e-16
1.80326e-14
8.25539e-16
1.73146e-14
7.47922e-16
1.72369e-14
1.0561e-16
1.59784e-14
1.28626e-15
1.58423e-14
1.62298e-16
1.70762e-14
-1.20461e-15
1.74875e-14
-3.83945e-16
1.90653e-14
-1.54971e-15
2.11046e-14
-2.01145e-15
2.27374e-14
-1.60521e-15
2.50314e-14
-2.26575e-15
2.7394e-14
-2.33132e-15
2.51067e-14
2.32644e-15
1.99983e-14
5.13989e-15
1.77934e-14
2.23055e-15
1.69591e-14
8.63435e-16
1.67566e-14
2.32764e-16
1.73536e-14
-5.69436e-16
1.61915e-14
1.18511e-15
1.46917e-14
1.5171e-15
1.63506e-14
-1.64062e-15
1.88684e-14
-2.49755e-15
2.04208e-14
-1.53253e-15
2.12345e-14
-7.93367e-16
2.1347e-14
-9.0508e-17
2.10389e-14
3.29084e-16
1.97933e-14
1.27067e-15
1.91887e-14
6.2654e-16
1.9707e-14
-4.95896e-16
1.96753e-14
5.35602e-17
1.94808e-14
2.17989e-16
1.95094e-14
-5.09091e-18
1.96673e-14
-1.34671e-16
1.93933e-14
2.95334e-16
1.91564e-14
2.58155e-16
1.94892e-14
-3.11906e-16
2.03156e-14
-8.03019e-16
2.17319e-14
-1.39439e-15
2.46228e-14
-2.8661e-15
2.61735e-14
-1.52643e-15
3.00772e-14
-3.88215e-15
3.2415e-14
-2.31018e-15
2.91909e-14
3.24862e-15
2.60335e-14
3.17843e-15
2.66068e-14
-5.53765e-16
2.95603e-14
-2.93196e-15
3.37612e-14
-4.1793e-15
3.44195e-14
-6.31704e-16
3.28139e-14
1.62541e-15
3.02853e-14
2.55313e-15
2.52925e-14
5.01304e-15
2.17556e-14
3.55696e-15
2.01101e-14
1.66391e-15
1.96623e-14
4.67088e-16
2.0427e-14
-7.4527e-16
2.03244e-14
1.22204e-16
2.39407e-14
-3.59647e-15
3.03701e-14
-6.4077e-15
3.37337e-14
-3.34099e-15
3.48071e-14
-1.05046e-15
3.45105e-14
3.2049e-16
3.22752e-14
2.25876e-15
2.9743e-14
2.5538e-15
3.01424e-14
-3.78668e-16
3.09129e-14
-7.48485e-16
3.09853e-14
-5.09754e-17
3.21985e-14
-1.18966e-15
3.31114e-14
-8.90696e-16
3.53734e-14
-2.24201e-15
3.85802e-14
-3.17864e-15
3.81459e-14
4.65128e-16
4.0654e-14
-2.48424e-15
4.35028e-14
-2.81335e-15
4.94656e-16
1.31388e-16
2.94688e-16
2.21858e-16
2.22327e-16
2.68146e-16
2.78141e-16
3.69561e-16
2.587e-16
4.81004e-16
3.00791e-16
6.68396e-16
2.17624e-16
8.48659e-16
2.80545e-16
9.40591e-16
2.52992e-16
1.05126e-15
1.44601e-16
1.16804e-15
2.26135e-16
1.26535e-15
2.80635e-16
1.32322e-15
2.20917e-16
1.45779e-15
3.37425e-16
1.6126e-15
5.67622e-16
1.60783e-15
6.1836e-16
1.66544e-15
3.48803e-16
2.04694e-15
7.77344e-17
2.44999e-15
-8.44208e-17
2.45519e-15
1.59744e-16
2.30885e-15
2.96351e-16
2.3098e-15
1.8978e-16
2.55816e-15
-3.98125e-17
2.75018e-15
-1.47293e-16
2.59009e-15
1.55501e-16
2.64929e-15
1.29781e-16
3.2893e-15
4.14916e-17
3.71369e-15
5.46438e-16
3.59058e-15
8.32799e-16
3.63758e-15
4.63798e-16
3.87563e-15
7.97844e-17
3.60905e-15
2.19845e-16
3.16242e-15
2.48345e-16
2.97325e-15
4.04132e-16
3.10501e-15
3.45393e-16
3.52899e-15
-2.3536e-17
3.91471e-15
6.82851e-17
3.81995e-15
4.19122e-16
3.96104e-15
4.56247e-16
4.49307e-15
4.9525e-16
4.40382e-15
5.76247e-16
4.04881e-15
4.48283e-16
4.05823e-15
2.4116e-16
4.1192e-15
4.76441e-16
4.07102e-15
5.26695e-16
4.44473e-15
-2.27104e-18
4.67241e-15
-6.54644e-17
4.40573e-15
4.68459e-16
4.44656e-15
4.11122e-16
4.7931e-15
3.61612e-16
4.792e-15
1.55497e-16
4.4963e-15
-2.33762e-16
4.77119e-15
-3.67196e-16
5.55276e-15
-2.42764e-17
5.46966e-15
5.65121e-16
4.93735e-15
7.72823e-16
4.86655e-15
6.96178e-16
4.77151e-15
1.17225e-15
4.63594e-15
1.04532e-15
4.6868e-15
1.08084e-17
4.62813e-15
-6.23553e-16
4.64364e-15
2.07912e-16
4.76385e-15
9.51802e-16
4.84456e-15
4.91677e-16
5.17108e-15
-6.43297e-17
4.94083e-15
-5.67161e-17
4.85157e-15
-3.57954e-16
5.83207e-15
-5.5548e-16
7.5985e-15
-1.7917e-16
9.05398e-15
1.35041e-16
9.01443e-15
-4.25564e-16
7.84332e-15
5.04455e-16
6.52029e-15
1.24223e-15
5.85285e-15
6.09e-16
5.85463e-15
3.59594e-16
6.11271e-15
1.61731e-16
6.33339e-15
-6.38212e-18
6.17121e-15
2.66871e-16
6.284e-15
-2.68607e-17
7.08515e-15
-7.87713e-16
7.38123e-15
-3.56575e-16
6.9828e-15
1.9327e-16
7.16644e-15
3.65461e-16
8.00261e-15
3.28974e-16
9.20472e-15
1.97782e-16
9.35876e-15
1.21362e-15
8.11653e-15
1.78077e-15
6.87105e-15
1.38101e-15
6.98264e-15
-2.19733e-16
7.57469e-15
-8.97088e-16
8.38962e-15
-7.29712e-16
8.82151e-15
-8.54066e-16
9.01168e-15
-8.73868e-16
9.03516e-15
7.5183e-17
8.46401e-15
1.13097e-15
8.53159e-15
9.00717e-16
8.65226e-15
9.67232e-16
8.64856e-15
8.29204e-16
8.37782e-15
1.13199e-15
7.84538e-15
1.11465e-15
7.97054e-15
1.43689e-16
8.15341e-15
-7.23985e-18
7.87224e-15
-1.09053e-16
8.90084e-15
-6.2323e-16
9.34261e-15
6.02928e-16
8.34384e-15
8.66558e-16
8.72281e-15
-3.64155e-16
9.72588e-15
-8.77938e-16
9.59252e-15
-2.80657e-16
9.01102e-15
3.8979e-16
8.44115e-15
4.82597e-16
7.67628e-15
8.83289e-16
6.94757e-15
6.00429e-16
7.072e-15
-1.75013e-17
7.74688e-15
2.78622e-16
8.20077e-15
1.91991e-16
8.56682e-15
2.0383e-16
8.74796e-15
2.36961e-16
9.06309e-15
-4.49109e-16
1.03353e-14
-8.86916e-16
1.13965e-14
-1.99088e-16
1.084e-14
7.33151e-16
9.7043e-15
4.5902e-16
9.04924e-15
-4.33116e-16
8.53341e-15
-5.49772e-16
8.18546e-15
-6.0432e-16
8.42423e-15
-1.87625e-16
9.13394e-15
6.27197e-16
9.68659e-15
4.31851e-16
9.5862e-15
4.77822e-16
9.22684e-15
8.76764e-16
9.34206e-15
6.95718e-16
1.12329e-14
-1.4362e-15
1.2522e-14
-1.72581e-15
1.19941e-14
2.68399e-16
1.18682e-14
8.93404e-16
1.34052e-14
2.31469e-16
1.25811e-14
2.05741e-15
1.0171e-14
2.1287e-15
9.86086e-15
5.85209e-16
9.97097e-15
-1.35548e-16
1.00808e-14
3.15912e-16
1.03711e-14
8.61313e-16
1.06674e-14
-8.57952e-17
9.92758e-15
-1.39358e-16
9.17524e-15
2.62e-16
9.40658e-15
-1.38624e-16
9.73568e-15
-1.33002e-16
9.59849e-15
6.49548e-16
9.82822e-15
9.56472e-16
1.12899e-14
1.31411e-16
1.1096e-14
5.20259e-16
9.40316e-15
9.11131e-16
8.90372e-15
5.48616e-16
9.27474e-15
2.27542e-17
1.03106e-14
-1.13868e-15
1.04221e-14
-1.10052e-15
1.02221e-14
-9.88396e-16
1.0454e-14
-1.09203e-15
1.11252e-14
-3.86402e-16
1.19723e-14
2.89566e-16
1.24852e-14
6.91654e-16
1.19294e-14
1.10576e-15
1.08256e-14
6.45961e-16
1.06736e-14
3.36966e-16
1.13349e-14
-1.00094e-16
1.22004e-14
-1.739e-16
1.22187e-14
9.7384e-16
1.13972e-14
1.23593e-15
1.05173e-14
7.80837e-16
9.75701e-15
-5.65212e-16
9.29407e-15
-1.33604e-15
9.90818e-15
-1.24897e-15
1.20576e-14
-2.18333e-15
1.31884e-14
-7.54621e-16
1.29903e-14
1.55484e-15
1.25505e-14
1.71828e-15
1.16266e-14
2.99854e-16
1.08915e-14
-8.96688e-16
1.05293e-14
-1.17845e-16
1.09257e-14
8.87162e-16
1.13963e-14
4.54237e-17
1.15156e-14
1.23466e-15
1.09614e-14
2.6688e-15
1.12508e-14
1.33492e-15
1.13174e-14
1.0082e-15
1.04117e-14
1.10225e-15
9.55135e-15
1.01305e-15
9.27106e-15
7.41084e-16
9.80041e-15
-2.03179e-19
1.02094e-14
-3.16244e-16
1.02058e-14
-1.75189e-16
1.05865e-14
-7.74826e-16
1.17161e-14
-1.65072e-15
1.228e-14
-7.06231e-16
1.25332e-14
7.16474e-16
1.32645e-14
-5.30866e-16
1.40769e-14
-2.33015e-15
1.53795e-14
-2.70328e-15
1.60524e-14
-1.9811e-15
1.62338e-14
-1.03049e-15
1.64623e-14
-3.77684e-16
1.69045e-14
-2.5732e-16
1.83546e-14
-9.10553e-16
2.05015e-14
-1.02067e-15
2.04168e-14
7.29241e-16
1.8342e-14
1.75018e-15
1.71062e-14
9.35455e-16
1.68524e-14
-5.14814e-16
1.71018e-14
-7.33256e-16
1.63383e-14
5.53209e-16
1.58536e-14
4.92841e-16
1.65982e-14
-1.36478e-16
1.67142e-14
1.71844e-16
1.58926e-14
5.36806e-16
1.62335e-14
2.4543e-16
1.68279e-14
9.55558e-17
1.6406e-14
-4.56562e-16
1.56576e-14
-3.27191e-16
1.48685e-14
9.22036e-16
1.39002e-14
1.29637e-15
1.37853e-14
1.41028e-15
1.4829e-14
1.22798e-15
1.53962e-14
1.35936e-15
1.56361e-14
9.17182e-16
1.54825e-14
1.12686e-15
1.47031e-14
1.18032e-15
1.35999e-14
1.51841e-15
1.24291e-14
1.20231e-15
1.22719e-14
2.35164e-16
1.27926e-14
2.6403e-16
1.35024e-14
-4.97301e-16
1.5328e-14
-1.2568e-15
1.56743e-14
-1.40509e-16
1.36097e-14
1.0419e-15
1.24479e-14
4.81443e-17
1.29526e-14
-1.05858e-15
1.3678e-14
-6.8187e-16
1.34514e-14
2.4569e-16
1.26041e-14
8.61315e-16
1.20819e-14
7.04797e-16
1.24549e-14
1.00937e-16
1.36519e-14
-3.29644e-16
1.40051e-14
6.54516e-17
1.35199e-14
-2.73574e-16
1.41672e-14
-1.29013e-15
1.49065e-14
-1.01639e-15
1.50823e-14
-7.65606e-16
1.55099e-14
-1.08337e-15
1.64487e-14
-3.65261e-16
1.71719e-14
-3.32736e-17
1.77151e-14
3.74957e-16
1.84413e-14
1.05295e-15
1.73658e-14
2.03423e-15
1.58241e-14
1.05105e-15
1.59444e-14
-1.14049e-15
1.60557e-14
-6.2862e-16
1.69806e-14
-6.89716e-16
1.77827e-14
-2.05645e-15
1.66762e-14
-1.73567e-15
1.54784e-14
-1.9116e-16
1.58116e-14
1.01481e-15
1.65022e-14
1.33018e-15
1.70357e-14
1.21906e-15
1.73696e-14
7.34841e-16
1.63315e-14
8.35775e-16
1.50298e-14
5.5505e-16
1.58278e-14
-1.35695e-15
1.7931e-14
-2.62204e-15
1.77641e-14
-4.69733e-16
1.68878e-14
1.78798e-15
1.78402e-14
7.21937e-16
1.75966e-14
3.65892e-16
1.59651e-14
1.22192e-15
1.56392e-14
2.33495e-16
1.63184e-14
-6.87603e-16
1.70861e-14
-6.03246e-16
1.65762e-14
3.12455e-16
1.53884e-14
1.31965e-15
1.49513e-14
1.22477e-15
1.52766e-14
3.02654e-17
1.55888e-14
1.01288e-18
1.65662e-14
-9.50293e-16
1.81461e-14
-1.46122e-15
1.84769e-14
-2.62511e-16
1.72972e-14
4.99637e-16
1.58759e-14
-6.47057e-16
1.50522e-14
-1.18139e-15
1.49446e-14
-1.00546e-15
1.54985e-14
-6.09795e-16
1.62806e-14
1.63405e-15
1.6486e-14
2.75875e-15
1.73833e-14
4.04591e-16
1.69582e-14
-2.00342e-16
1.50506e-14
5.66805e-16
1.39712e-14
3.78969e-17
1.44277e-14
2.5658e-17
1.48013e-14
1.3308e-15
1.48653e-14
6.80233e-16
1.69605e-14
-2.01654e-15
1.91272e-14
-2.44419e-15
2.07267e-14
-3.01865e-15
2.07595e-14
-3.26171e-15
2.00523e-14
-2.2723e-15
2.02617e-14
-1.083e-15
2.03544e-14
2.54862e-16
2.04495e-14
4.27621e-16
2.05751e-14
3.99351e-16
2.02943e-14
1.13203e-15
1.98952e-14
3.32025e-16
1.99177e-14
-3.5726e-17
2.04035e-14
6.20352e-16
2.14946e-14
-3.07043e-16
2.28906e-14
-1.36916e-15
2.31747e-14
-1.74536e-16
2.1115e-14
1.09141e-15
1.8853e-14
7.63056e-16
1.90805e-14
-4.74004e-17
1.98983e-14
5.0141e-17
2.03424e-14
4.35344e-16
2.05493e-14
1.0208e-15
2.05453e-14
4.89355e-16
2.23139e-14
-1.96627e-15
2.55429e-14
-3.46002e-15
2.64451e-14
-1.62757e-15
2.53159e-14
4.7435e-16
2.67095e-14
-1.52624e-15
2.82721e-14
-7.06382e-16
2.68827e-14
2.17302e-15
2.48806e-14
2.13792e-15
2.38608e-14
2.33217e-15
2.1807e-14
2.2435e-15
2.06681e-14
-3.8288e-17
2.18238e-14
-1.51355e-15
2.25566e-14
-2.25332e-15
2.22913e-14
-1.71697e-15
2.25121e-14
-1.79959e-15
2.24796e-14
-2.20775e-15
2.13924e-14
-1.21695e-15
2.19194e-14
1.82675e-15
2.379e-14
3.2952e-15
2.46077e-14
1.43868e-15
2.3155e-14
2.34834e-15
2.03966e-14
3.02103e-15
1.90379e-14
8.15428e-16
1.92523e-14
9.90501e-16
1.98163e-14
9.73501e-16
2.05518e-14
-2.35492e-15
2.17829e-14
-3.70332e-15
2.21102e-14
-1.83494e-15
2.15299e-14
-1.87394e-16
2.14861e-14
-2.42797e-17
2.162e-14
2.18088e-16
2.24347e-14
4.77446e-16
2.25779e-14
5.07419e-16
2.07227e-14
1.38111e-15
1.93464e-14
1.45091e-15
1.85652e-14
1.0206e-15
1.85348e-14
4.66406e-17
1.96002e-14
-1.17962e-15
2.08336e-14
-9.17364e-16
2.13998e-14
-2.87216e-16
2.11354e-14
-2.5405e-17
2.16934e-14
-1.33974e-15
2.43036e-14
-3.98306e-15
2.75271e-14
-6.06503e-15
2.91622e-14
-3.13786e-15
2.86411e-14
-3.33521e-15
2.62854e-14
7.15892e-17
2.51551e-14
4.4006e-15
2.41251e-14
4.22935e-15
2.2751e-14
8.41442e-16
2.16989e-14
-1.86089e-15
2.11138e-14
-3.57311e-15
2.21178e-14
-1.61638e-15
2.34346e-14
3.30219e-16
2.58453e-14
1.61013e-16
2.96546e-14
1.22474e-15
2.90592e-14
4.17451e-15
2.68366e-14
3.90569e-15
2.76783e-14
-3.53859e-16
2.86064e-14
-1.65051e-15
2.94178e-14
-6.72592e-16
2.82771e-14
-2.43038e-15
2.53476e-14
-3.45734e-15
2.6663e-14
-4.63865e-15
2.6698e-14
-1.06195e-15
2.4594e-14
2.4455e-15
2.59215e-14
9.51007e-16
2.9731e-14
-1.23534e-15
3.13273e-14
-1.95263e-15
3.17882e-14
-1.18984e-15
3.41763e-14
-2.41785e-15
3.42533e-14
-1.24202e-15
3.28589e-14
5.25294e-16
3.38388e-14
-3.20252e-15
3.29581e-14
-2.27174e-15
3.12545e-14
2.19331e-15
2.89732e-14
-1.73313e-16
2.87084e-14
-2.52298e-15
-1.00386e-15
1.21666e-16
3.8245e-16
2.08731e-16
3.27006e-16
3.06587e-16
4.00305e-16
4.07795e-16
3.35379e-16
5.44237e-16
4.07609e-16
6.53269e-16
3.18372e-16
8.78217e-16
2.82272e-16
1.04769e-15
3.35774e-16
1.23314e-15
1.7602e-16
1.55697e-15
1.55861e-16
1.78458e-15
3.29039e-16
1.73674e-15
5.15352e-16
1.76705e-15
5.29507e-16
2.13101e-15
4.51155e-16
2.51097e-15
5.08461e-16
2.72336e-15
3.70471e-16
2.67593e-15
4.02235e-16
2.38177e-15
4.87903e-16
2.24244e-15
5.29554e-16
2.27042e-15
5.17697e-16
2.28788e-15
3.9812e-16
2.21152e-15
2.69161e-16
2.10284e-15
1.77726e-16
1.99482e-15
4.61056e-16
2.13504e-15
1.78863e-16
2.41654e-15
-3.67967e-17
2.77737e-15
3.95568e-16
3.37897e-15
4.42912e-16
3.62003e-15
4.71865e-16
3.39176e-15
5.30068e-16
3.46945e-15
3.56847e-16
3.52598e-15
4.21066e-16
3.47773e-15
6.90367e-16
3.31431e-15
7.61325e-16
3.1737e-15
3.22463e-16
3.27557e-15
1.6271e-16
3.27446e-15
6.24285e-16
3.2921e-15
6.36858e-16
3.3135e-15
6.70766e-16
3.50977e-15
5.84641e-16
3.83301e-15
3.34609e-16
4.16917e-15
1.13892e-16
4.71941e-15
1.40243e-16
5.33943e-15
1.09655e-16
4.9619e-15
6.43426e-16
4.09542e-15
1.00867e-15
3.948e-15
8.04544e-16
4.29269e-15
2.50337e-16
4.9321e-15
-6.51416e-17
4.88875e-15
4.39025e-16
4.2304e-15
6.36791e-16
3.98345e-15
6.97473e-17
4.13875e-15
3.42439e-18
4.67828e-15
2.05634e-16
5.50999e-15
1.30765e-16
6.49904e-15
-1.02695e-16
7.44409e-15
4.3889e-16
7.92477e-15
7.77546e-16
7.06366e-15
1.1199e-15
5.52889e-15
1.10531e-15
5.21274e-15
7.12744e-16
5.68584e-15
6.62473e-16
5.83484e-15
5.68549e-16
5.49469e-15
4.57741e-16
5.36068e-15
2.61829e-16
4.90458e-15
3.16902e-16
4.34492e-15
1.82458e-16
4.35981e-15
-1.87357e-17
4.74579e-15
-9.7191e-17
4.96329e-15
-4.63873e-16
5.84951e-15
-2.35762e-16
6.37073e-15
9.17401e-16
5.69865e-15
1.47799e-15
5.0839e-15
1.13112e-15
5.41585e-15
-1.02425e-17
6.45822e-15
-8.71027e-16
7.49942e-15
-5.97412e-16
8.44285e-15
-7.83895e-16
8.1652e-15
-3.08066e-16
7.67871e-15
3.06169e-16
8.0903e-15
-3.5676e-17
8.51111e-15
1.45754e-16
8.18391e-15
8.5679e-16
7.42016e-15
1.12753e-15
7.24572e-15
1.56468e-15
7.92581e-15
1.26131e-15
8.43264e-15
1.0532e-15
7.68872e-15
7.15222e-16
6.73167e-15
2.23565e-16
6.88134e-15
-7.30675e-16
6.62229e-15
-4.14982e-16
5.70095e-15
2.05702e-16
5.70593e-15
2.08304e-16
5.93748e-15
1.06644e-15
5.70232e-15
1.27524e-15
6.02365e-15
7.75065e-16
7.03865e-15
-3.4518e-17
7.62005e-15
7.06156e-16
7.31825e-15
1.5744e-15
6.99889e-15
6.10376e-16
7.87394e-15
-7.44579e-16
8.41578e-15
-4.92026e-16
8.23647e-15
-3.04435e-16
9.01909e-15
-3.52662e-17
9.17678e-15
8.63638e-16
8.43344e-15
5.38639e-16
7.97802e-15
-2.6522e-16
7.9662e-15
-1.2854e-16
8.51953e-15
-1.98463e-17
8.69587e-15
4.62266e-16
8.46543e-15
1.25162e-15
7.68516e-15
1.52293e-15
7.25982e-15
5.42843e-16
7.93004e-15
-2.69079e-16
8.66924e-15
-4.04265e-16
8.821e-15
1.85189e-16
8.62558e-15
5.666e-16
8.22283e-15
9.95122e-17
7.91999e-15
-4.33824e-16
7.75774e-15
1.08194e-16
7.94392e-15
6.80105e-16
8.0833e-15
4.44893e-16
7.62848e-15
1.53208e-16
7.06018e-15
1.45337e-16
6.92678e-15
-3.46389e-16
7.35275e-15
-4.87551e-16
8.24545e-15
-1.49951e-16
8.78558e-15
1.8165e-17
8.88674e-15
5.03956e-16
9.56837e-15
3.10009e-16
1.05522e-14
-1.65748e-16
1.02851e-14
-1.0287e-15
9.60391e-15
-9.0416e-16
9.94247e-15
5.49784e-17
1.05198e-14
4.38777e-16
1.05611e-14
3.0701e-16
1.13908e-14
1.34325e-15
1.16809e-14
1.96025e-15
1.16512e-14
7.37279e-16
1.24717e-14
-8.35e-16
1.44703e-14
-1.55824e-15
1.48427e-14
6.47992e-16
1.31312e-14
1.7589e-15
1.21304e-14
9.83303e-16
1.09441e-14
1.58143e-15
1.01965e-14
7.31085e-16
1.04433e-14
-2.66064e-16
1.06186e-14
5.88291e-16
1.05169e-14
1.17294e-15
1.05984e-14
1.54095e-16
1.11882e-14
4.76653e-17
1.20795e-14
1.25795e-16
1.41925e-14
-1.45559e-15
1.48365e-14
-4.83342e-16
1.28162e-14
1.01692e-15
1.11111e-14
7.09349e-16
1.04309e-14
-1.99886e-16
9.81199e-15
-3.60792e-16
9.1723e-15
3.63971e-16
8.95118e-15
6.19552e-16
9.56556e-15
1.7254e-16
1.01116e-14
6.61868e-16
1.02652e-14
5.91479e-16
1.07596e-14
-5.78737e-17
1.09081e-14
-1.46293e-16
1.07783e-14
6.13398e-17
1.15827e-14
2.74138e-16
1.27654e-14
1.53399e-16
1.36872e-14
-3.28781e-17
1.40214e-14
-7.78874e-16
1.35746e-14
-7.74259e-16
1.20605e-14
3.79297e-16
9.6685e-15
3.1672e-16
8.8695e-15
1.4002e-16
1.07115e-14
-2.06931e-16
1.25558e-14
-4.04576e-17
1.23322e-14
6.19482e-16
1.08168e-14
7.12226e-16
9.79773e-15
9.82436e-16
9.47778e-15
1.29102e-15
9.23124e-15
3.77515e-16
1.05964e-14
-5.04637e-17
1.23049e-14
1.03781e-15
1.21684e-14
1.55321e-15
1.19414e-14
1.31202e-15
1.19864e-14
1.1366e-15
1.24651e-14
6.14111e-16
1.27146e-14
5.78332e-16
1.28666e-14
-5.74806e-17
1.32504e-14
-5.85505e-16
1.33282e-14
-1.48303e-16
1.39766e-14
-1.33092e-15
1.47525e-14
-2.33618e-15
1.5531e-14
-1.39131e-15
1.67862e-14
-4.48746e-16
1.71681e-14
-8.15374e-16
1.67338e-14
-1.80259e-15
1.64872e-14
-2.36923e-15
1.63239e-14
-1.72695e-15
1.64321e-14
-1.05115e-15
1.67399e-14
-6.03568e-16
1.71144e-14
-5.50806e-16
1.71297e-14
-8.42125e-16
1.69802e-14
-7.83243e-16
1.74804e-14
3.09877e-16
1.81499e-14
1.16064e-15
1.84584e-14
6.98375e-16
1.73322e-14
6.84914e-16
1.60743e-14
6.02981e-16
1.59341e-14
7.6413e-16
1.63111e-14
1.80103e-16
1.63855e-14
-1.44077e-16
1.62092e-14
4.21731e-16
1.64273e-14
3.84497e-16
1.64612e-14
2.74098e-16
1.62674e-14
3.5494e-16
1.57887e-14
8.99557e-17
1.53205e-14
2.10579e-16
1.561e-14
6.97784e-16
1.59222e-14
1.04442e-15
1.58133e-14
1.57861e-15
1.56738e-14
1.42859e-15
1.63535e-14
7.39319e-16
1.67633e-14
5.69912e-16
1.67734e-14
1.17799e-15
1.62388e-14
1.7772e-15
1.65876e-14
1.22602e-15
1.66037e-14
1.24509e-15
1.50302e-14
1.87383e-15
1.37037e-14
1.64712e-15
1.37704e-14
-5.08929e-16
1.42234e-14
-1.6491e-15
1.48421e-14
-6.91683e-16
1.65149e-14
-5.72993e-16
1.67996e-14
-1.72645e-16
1.47678e-14
1.04097e-15
1.36563e-14
4.86332e-16
1.44217e-14
-4.67617e-16
1.63579e-14
-1.02504e-15
1.80728e-14
-9.53156e-16
1.86516e-14
-4.19873e-16
1.8606e-14
-2.30301e-16
1.80812e-14
6.4699e-16
1.71799e-14
6.78644e-16
1.61112e-14
-1.63135e-16
1.63334e-14
-1.17702e-15
1.71992e-14
-1.55698e-15
1.66695e-14
-4.8057e-16
1.66738e-14
-3.08063e-16
1.72371e-14
-5.38882e-16
1.75149e-14
1.54079e-16
1.76787e-14
9.471e-16
1.79026e-14
1.86715e-15
1.81264e-14
8.78637e-16
1.78998e-14
-8.64797e-16
1.74194e-14
-9.79336e-17
1.7376e-14
-5.98377e-16
1.71712e-14
-1.80296e-15
1.66799e-14
-1.19364e-15
1.67483e-14
-2.10788e-16
1.73318e-14
4.76243e-16
1.77601e-14
9.49686e-16
1.85699e-14
4.54029e-16
1.9186e-14
1.64793e-16
1.93095e-14
7.58731e-16
1.84827e-14
1.4273e-15
1.72462e-14
-7.26674e-17
1.61135e-14
-1.43558e-15
1.5101e-14
5.91335e-16
1.61283e-14
8.02629e-16
1.82037e-14
-1.31518e-15
1.92833e-14
-6.72339e-16
1.97511e-14
7.95614e-16
2.04323e-14
-4.0748e-16
2.05425e-14
-7.55158e-16
2.08412e-14
-8.60602e-16
2.05424e-14
6.54804e-16
1.98649e-14
2.04612e-15
2.09599e-14
1.71874e-16
2.15137e-14
-4.76989e-16
2.17565e-14
-1.9734e-16
2.07893e-14
6.45063e-17
1.84699e-14
9.02274e-16
1.78553e-14
3.93175e-16
1.86128e-14
-2.22651e-16
1.82201e-14
-2.18419e-16
1.7412e-14
-3.37672e-16
1.70392e-14
-5.97655e-16
1.81073e-14
-1.64226e-15
2.11525e-14
-1.37594e-15
2.19436e-14
2.0046e-15
2.01231e-14
2.25952e-15
1.98225e-14
1.32716e-16
2.01941e-14
2.28395e-16
2.03478e-14
-7.83323e-17
1.99771e-14
4.38118e-16
2.00773e-14
1.26901e-15
2.17366e-14
-9.46142e-16
2.24706e-14
-2.71131e-15
2.17498e-14
-1.68425e-15
2.16158e-14
-2.84249e-15
2.11456e-14
-2.75479e-15
2.24e-14
-3.4948e-15
2.33521e-14
-2.0057e-15
2.34763e-14
1.63247e-16
2.26761e-14
1.26576e-15
2.15391e-14
1.57265e-15
2.15124e-14
1.19102e-15
2.14926e-14
3.82217e-16
2.09637e-14
5.25337e-16
2.08071e-14
8.10783e-16
2.10741e-14
-5.41136e-16
2.07952e-14
-1.05646e-15
2.0367e-14
2.87448e-16
2.08011e-14
6.86796e-16
2.1706e-14
-1.15942e-16
2.17544e-14
-6.77451e-17
2.09849e-14
8.48857e-16
2.15117e-14
-6.35691e-17
2.38817e-14
-1.3218e-15
2.58931e-14
-1.49356e-15
2.59889e-14
-2.03141e-15
2.44674e-14
-1.90667e-15
2.29995e-14
-1.25998e-16
2.29882e-14
5.15192e-16
2.21613e-14
-6.69589e-16
2.13131e-14
1.71659e-16
2.23495e-14
1.16508e-15
2.39888e-14
5.25237e-16
2.5234e-14
1.11204e-15
2.42205e-14
3.28369e-15
2.22525e-14
1.95848e-15
2.1644e-14
-8.80714e-16
2.09409e-14
-1.52403e-15
2.08338e-14
-1.58486e-15
2.1053e-14
-1.99597e-15
2.11725e-14
-2.30509e-15
2.11941e-14
-1.21648e-15
2.21566e-14
8.85938e-16
2.31107e-14
2.36524e-15
2.32995e-14
1.2755e-15
2.5275e-14
3.96911e-16
2.56683e-14
2.65392e-15
2.4453e-14
2.05733e-15
2.61818e-14
-7.12929e-16
2.72935e-14
-1.11313e-16
2.43223e-14
6.44557e-16
2.0933e-14
-2.88662e-16
2.03638e-14
-1.24484e-15
2.17331e-14
-1.53712e-15
2.37398e-14
-2.00786e-15
2.58396e-14
-1.8593e-15
2.6101e-14
2.41192e-16
2.43833e-14
2.24935e-15
2.44119e-14
1.37349e-15
2.53113e-14
5.73019e-16
2.48386e-14
1.51837e-15
2.18048e-14
3.10663e-15
1.9615e-14
1.03237e-15
2.07641e-14
-2.04706e-15
2.33095e-14
-2.81232e-15
2.53238e-14
-2.01757e-15
2.47184e-14
-7.10448e-16
2.18806e-14
-1.122e-15
1.96126e-14
-3.77388e-15
1.96617e-14
-3.16718e-15
2.08516e-14
-4.50643e-15
2.21026e-14
-1.16023e-15
2.55387e-14
9.82523e-16
2.97763e-14
9.44752e-18
3.23099e-14
-1.6734e-15
3.23855e-14
-1.91334e-15
3.13683e-14
-2.53109e-15
3.08512e-14
-1.07414e-15
2.88574e-14
2.34866e-15
2.63349e-14
2.70705e-15
2.60795e-14
1.50275e-15
2.67967e-14
3.47829e-15
2.64552e-14
4.26776e-15
2.53182e-14
8.06356e-16
2.48896e-14
-1.20218e-15
2.49855e-14
-7.48429e-16
2.56258e-14
-3.04938e-15
2.6021e-14
-3.83025e-15
2.49712e-14
-3.56884e-15
2.5561e-14
-1.63352e-15
2.72666e-14
7.6144e-16
2.85896e-14
-3.5057e-16
2.85715e-14
-1.19557e-15
2.81899e-14
-1.54921e-15
3.11012e-14
-4.08212e-15
3.35262e-14
-4.82085e-15
3.40319e-14
-1.72583e-15
3.53369e-14
-7.59371e-16
3.26669e-14
-5.10658e-16
2.89612e-14
1.45927e-15
3.00758e-14
1.10404e-15
2.99651e-14
-3.2306e-17
2.64289e-14
1.04298e-15
9.00273e-16
2.58382e-16
4.04402e-16
4.37149e-16
4.20583e-16
5.60389e-16
5.45909e-16
7.11833e-16
4.54939e-16
9.03601e-16
4.90082e-16
1.00558e-15
4.83637e-16
1.17515e-15
3.599e-16
1.33786e-15
4.46708e-16
1.42321e-15
3.50859e-16
1.41156e-15
4.46186e-16
1.43315e-15
5.43217e-16
1.55498e-15
6.33794e-16
1.58448e-15
7.4357e-16