/*--------------------------------*- C++ -*----------------------------------*\
  =========                 |
  \\      /  F ield         | OpenFOAM: The Open Source CFD Toolbox
   \\    /   O peration     | Website:  https://openfoam.org
    \\  /    A nd           | Version:  7
     \\/     M anipulation  |
\*---------------------------------------------------------------------------*/
FoamFile
{
    version     2.0;
    format      ascii;
    class       volScalarField;
    location    "1500";
    object      rho;
}
// * * * * * * * * * * * * * * * * * * * * * * * * * * * * * * * * * * * * * //

dimensions      [1 -3 0 0 0 0 0];

internalField   nonuniform List<scalar> 
160000
(
24.1275
24.1308
15.2323
17.9791
15.7918
15.2748
20.8213
31.2069
20.3055
20.4885
19.3037
17.7814
16.8827
21.4049
20.7465
18.3517
18.3542
21.517
29.9821
26.2262
16.9502
16.9524
22.3979
20.3096
14.7075
14.7094
24.2479
24.2521
24.2535
24.2577
23.6505
16.3805
16.3822
16.3849
16.3865
16.743
27.0638
27.0667
27.0695
27.0723
14.2071
14.2088
17.4901
25.9719
25.9745
25.9773
25.9799
16.4924
16.4941
16.4958
17.4036
25.9454
25.9476
25.9533
25.9517
20.9157
17.8813
17.8831
18.7881
21.8488
21.8519
21.8527
21.8565
21.8563
21.859
18.2955
17.5324
17.5339
17.5354
21.7696
21.7736
21.773
21.778
21.7763
21.7813
21.7794
21.7857
21.7825
21.7887
21.7856
21.7922
21.7886
21.7939
19.9157
19.9176
20.1987
19.8918
19.8925
19.9593
18.6007
18.6031
21.8243
21.8301
21.8271
19.4303
19.4304
22.6026
22.6037
22.6053
22.6064
22.6082
20.2445
20.8289
20.83
21.6676
19.6048
19.606
23.1519
23.1561
23.1544
23.1599
23.1569
22.2572
21.2121
21.2134
19.9976
19.9986
24.0842
24.0845
24.088
23.0186
23.6281
25.1019
25.103
25.1042
22.3844
19.7704
19.7717
19.9232
18.4429
18.4438
18.6642
25.0332
22.4269
19.077
19.0762
19.0787
19.0784
19.0803
19.0807
19.8325
19.1382
19.1391
23.724
23.7215
23.7258
23.7232
22.0487
19.5259
19.5265
20.9969
20.998
20.999
19.6851
19.686
22.8947
22.8969
22.8963
21.5328
19.5013
19.5019
19.5027
19.5032
19.2198
18.839
22.3036
22.306
22.305
22.3093
22.3063
22.3105
19.466
19.4734
19.9718
19.9721
20.3434
22.6059
22.6056
21.828
21.6542
21.6548
24.3338
21.8242
21.8251
22.8877
23.79
23.2421
19.8529
19.8533
22.5676
17.8791
17.118
17.1158
17.1189
17.1171
17.1199
23.2659
23.2669
21.2393
17.9298
17.9342
17.9319
18.0203
20.6205
23.1501
23.1512
23.1522
23.5576
24.1854
24.186
23.4541
20.7551
20.7568
22.8493
22.3133
22.1786
22.1786
22.5981
22.595
22.5989
22.5958
22.4224
22.4218
25.2141
25.2145
25.2205
23.872
19.4193
19.4229
19.4209
19.4235
22.6082
22.5112
22.5287
22.5311
22.5295
22.5325
22.5302
22.5045
22.5998
22.6021
23.401
22.6779
22.6776
23.0059
20.6306
20.5018
20.2431
17.4604
17.3175
17.8421
17.8436
17.3104
17.853
21.0096
21.0097
21.0098
18.7672
20.2569
20.2569
19.0454
19.047
20.1102
21.295
22.8218
22.822
22.8223
22.2077
21.0953
18.8631
18.8635
21.8152
21.8151
21.8149
21.5699
23.7297
23.7283
23.7276
20.6553
20.2068
20.3244
23.1468
23.1469
23.1472
21.029
20.3855
18.9959
18.455
22.4364
22.7041
19.4018
19.4018
23.9703
23.9704
23.9714
23.9713
21.5291
21.5295
22.1356
22.1342
22.6368
20.863
17.9382
16.9219
16.923
16.9237
17.3746
17.3754
18.3957
22.3688
22.3676
22.3691
22.426
22.4288
19.5986
18.0629
18.0556
18.0633
21.885
20.7072
20.7067
21.0165
21.6123
20.8474
20.851
21.042
21.6946
21.5221
20.9831
20.8136
19.5157
18.3962
18.3933
18.3964
18.3938
18.3965
18.4734
16.7453
13.2023
13.1981
13.2023
13.1994
13.201
13.2622
33.3722
34.4876
34.504
34.4875
34.507
34.4797
27.4056
24.7799
22.3453
22.345
23.565
23.5637
23.5651
20.9751
20.4611
20.4587
21.9471
23.5648
21.3533
20.5156
20.5192
20.5131
21.9556
21.9542
21.9682
21.9548
22.915
22.9156
22.915
22.1386
22.1393
22.1623
22.1627
22.9352
22.9333
22.9363
22.9333
22.4593
21.4884
21.488
21.4871
21.4863
20.699
20.6999
20.7004
20.802
20.2934
19.0969
18.7219
18.5943
18.5927
14.7061
8.62197
8.6279
8.62877
8.62944
18.3543
17.1628
29.6812
15.1542
15.1565
16.3337
18.4094
18.4118
19.8389
19.4997
19.4285
21.0625
22.9134
22.9173
22.9194
20.8631
18.3541
21.2968
18.5527
16.9483
16.9505
22.1853
22.3979
22.4006
17.1638
24.2448
24.2493
24.2507
24.255
21.8948
17.3212
17.021
17.4769
16.3846
16.3868
25.3216
25.3249
21.3501
27.0695
17.9395
14.2071
14.2088
14.9405
24.9854
25.9743
25.977
24.2352
18.6067
16.4951
16.4958
16.4976
25.2235
24.3796
22.739
22.7446
25.2668
24.9567
19.7747
21.252
21.2542
21.8508
21.8536
18.7034
21.2203
21.4906
17.9903
21.5
21.7657
21.7673
21.7694
19.1604
18.1634
18.1642
20.8515
19.4478
19.4499
19.4501
19.453
21.784
21.7874
21.2474
20.4374
21.6896
21.803
21.8046
20.1994
19.8908
21.8191
21.82
21.8249
21.8229
21.8279
21.8257
21.7864
19.2631
20.8024
20.076
19.5029
18.5496
18.5512
18.5505
18.5535
23.2162
25.2689
22.3448
22.8354
22.8368
20.2435
20.2426
20.2463
20.2449
20.2485
23.3825
23.385
24.0743
24.076
24.0778
24.0828
24.0861
24.0857
20.64
20.6415
20.6416
20.6435
20.6443
21.988
20.4328
21.5184
22.3353
19.0301
18.4438
19.9996
25.0367
25.0374
25.0377
25.4732
25.8929
19.2871
20.1035
23.579
23.7176
23.7177
23.7223
23.7197
21.3273
19.2855
23.0938
20.5495
19.5258
19.8353
18.9888
18.9896
22.1816
22.8933
22.8939
22.8959
22.8962
22.1125
18.8483
19.8368
19.8376
19.023
17.5826
17.5834
18.8391
22.3052
22.3043
21.8563
18.5963
18.1466
18.1511
18.1497
20.2958
24.0433
24.048
25.4277
22.6055
22.6054
24.5474
22.8284
24.7027
24.7024
21.8246
23.9668
25.4669
25.4698
19.8725
19.8528
25.469
25.4705
25.4688
20.8099
20.7154
21.2317
21.2321
23.2654
23.2666
22.552
17.9292
17.9338
17.9309
17.9346
19.5416
23.1485
23.1495
23.1506
18.6955
18.6979
18.9861
18.9865
18.987
20.3662
22.8488
22.8493
22.8497
23.2156
22.8258
18.745
18.7464
18.7452
19.193
21.138
25.2135
25.2141
25.2224
25.2158
25.227
25.2174
25.2281
25.2182
25.2247
22.6904
17.8984
17.8989
17.899
22.5297
20.2858
20.2869
20.2872
20.2877
20.2879
25.1689
25.1783
25.1798
25.1798
25.1901
25.1804
24.4751
17.3123
17.3215
17.3196
17.8423
17.3128
17.3095
20.7404
20.3203
18.202
18.2016
18.2024
18.2028
18.2034
21.8375
22.6718
22.6727
21.0925
18.4325
18.433
23.4348
23.4352
23.4353
19.0897
17.3254
17.3256
17.3257
21.3598
23.9172
21.2931
18.4479
18.4524
19.6697
21.4879
21.7903
21.2961
18.4474
18.4542
18.4486
18.4546
18.454
21.2541
22.7042
23.8983
24.3277
20.0508
17.6567
17.6564
25.1939
25.191
25.1948
25.1903
25.2058
22.9477
16.918
16.9205
16.9211
16.9459
17.7248
19.7069
19.707
19.7072
22.3696
22.3729
22.3728
21.1212
18.0555
18.0628
18.0547
18.063
22.8225
23.9778
23.9822
23.9783
23.985
23.9787
23.9924
23.9786
22.3291
22.3013
18.2584
18.2613
21.4343
23.6096
20.74
18.8112
19.4238
18.3964
18.3947
22.9703
23.018
18.5724
18.6559
19.7305
13.9947
13.2009
19.5843
34.4875
34.4967
27.3845
19.2063
19.0215
19.0273
19.0241
21.2686
24.235
24.2335
22.0953
22.4445
23.5642
23.5684
23.5645
23.5708
23.5648
23.5711
23.5649
23.5761
23.565
21.4023
19.9896
19.9983
19.991
19.9982
19.9917
19.9983
20.5692
21.7474
22.723
22.7262
22.9369
22.9333
22.9373
22.9333
22.95
22.0985
20.6501
20.6564
21.302
20.2564
20.2565
20.8696
23.0314
23.0296
21.3514
22.7689
18.5973
18.5958
21.3537
17.2278
8.62547
8.62549
8.62931
8.62878
18.3542
20.5557
29.6812
29.6852
26.0136
18.0969
22.7455
22.3426
19.8968
21.4954
21.4986
21.5017
21.536
22.9163
22.9204
22.9222
20.6085
16.3818
17.976
20.6562
20.6588
20.5736
19.4701
20.7378
24.2417
24.2451
24.2476
24.2524
24.2531
21.2506
20.5378
20.7737
18.2305
16.3852
16.3869
23.2676
24.017
21.3495
21.1046
20.7486
22.0094
21.6146
20.1692
20.8911
17.0967
17.0989
19.0767
20.8132
20.8153
20.8173
18.7438
18.7454
21.3167
25.2625
25.2647
25.268
25.269
21.7443
17.9289
17.9305
19.4688
21.8526
17.2876
17.1421
17.9883
17.9904
17.9914
17.9935
18.5818
21.769
21.7706
20.5266
18.1649
18.1658
21.7772
21.7784
21.783
21.7819
21.7864
21.359
22.4941
18.4656
18.3576
18.359
21.8051
21.2403
22.0328
18.7509
18.7511
20.1619
20.0739
19.9253
20.8533
19.1999
19.2012
20.8027
20.8042
20.8055
20.8069
20.8084
23.0792
23.08
23.0836
25.2696
25.2718
19.3657
19.3669
19.368
22.9472
22.9478
22.9497
22.9502
22.4379
22.2393
22.281
22.2821
23.6012
21.2142
18.4272
18.4288
18.4294
21.7069
21.7248
21.7249
20.7034
20.7046
22.1443
22.3343
22.3353
22.0072
22.3628
22.3655
22.3654
22.3675
23.5527
23.5534
25.8939
24.3263
19.4438
19.7909
23.7166
18.4289
18.4263
22.2438
21.251
19.2853
22.1376
22.436
20.9962
22.3034
22.3043
21.6761
22.1809
18.7463
18.5771
18.5776
23.4137
19.4106
18.0375
18.0383
19.8382
24.3347
24.2396
23.7003
21.4731
19.9752
19.9764
19.9805
20.1846
18.1505
18.1446
18.1516
18.1458
18.1528
18.6184
25.43
25.4311
25.4322
25.4332
24.7802
20.5324
19.3535
23.617
25.4169
25.4179
25.4675
25.4749
25.4685
25.4758
19.4573
18.1336
18.3295
21.4202
21.0241
21.2324
20.667
20.6659
21.2031
19.9573
17.9324
19.0015
21.1557
20.5461
18.665
18.6668
18.6662
18.6676
20.2032
20.2037
20.2041
20.9394
23.0971
20.7413
20.7389
22.7633
23.2153
23.216
19.6972
18.7451
21.29
25.2111
25.2143
25.2129
25.2186
25.2146
25.2212
25.2162
25.2248
25.2178
24.7928
22.514
22.5158
20.3378
18.0918
19.4408
18.108
18.1085
20.4206
25.1713
25.172
25.1731
25.1734
25.1742
25.1786
23.0252
19.4971
17.3191
17.312
17.3194
17.4251
18.3161
17.4934
17.2561
17.5373
20.3648
20.0212
19.4173
21.9377
21.3905
18.4498
21.2335
22.308
22.3073
22.6735
22.3135
22.314
20.959
18.4182
18.418
18.4182
22.8042
25.3465
25.3446
25.3481
25.3458
23.9215
25.8643
18.6275
18.4463
18.4525
18.4468
18.4528
18.4472
18.4532
19.8788
24.241
24.2411
24.2421
24.242
24.3268
24.3271
24.3279
24.2265
25.1909
25.2047
25.1912
25.206
25.1911
25.2054
24.7946
16.9138
16.917
20.5232
27.3468
25.3616
17.8105
17.8025
17.8026
20.631
22.2452
18.063
18.0629
18.059
18.0629
18.0605
21.9364
23.9789
23.9775
23.9796
23.9779
23.9858
23.9784
23.9923
19.0629
17.9506
17.9512
17.9512
17.9513
19.9394
23.0436
23.6099
20.2612
18.8118
20.1175
19.0022
22.3503
29.725
31.4899
30.7204
25.4359
19.9344
20.5273
23.0775
21.9931
19.0273
19.0196
19.0269
19.0127
19.027
24.0095
24.2347
24.2349
24.2348
22.7337
22.0944
24.2423
20.1098
18.3053
18.3079
18.4461
23.5427
23.5648
23.576
23.5649
22.1156
18.7117
29.5421
29.888
27.879
34.2786
34.0163
22.6326
17.6622
17.6528
17.6622
17.6544
17.6623
17.6617
20.3468
19.3088
19.3052
22.5426
22.5499
21.9175
21.3015
22.9552
23.033
23.0324
23.0319
19.2309
21.1856
22.8382
22.8383
22.8383
22.8384
13.68
8.62345
8.62911
8.62593
8.62911
19.8005
20.3655
21.9908
22.3738
22.1045
22.7425
22.7456
21.3724
18.9936
18.4504
18.453
18.7554
18.7789
20.9369
22.5517
17.7835
17.0995
16.3819
18.6539
19.4333
20.6588
20.6613
19.4704
20.7376
20.4195
20.4219
23.7268
21.3294
15.5968
16.2819
21.5299
22.1574
22.8043
23.089
23.0918
23.0946
20.3455
20.3478
22.3628
22.3653
22.3683
22.3709
19.2091
19.2909
17.863
17.0984
17.1006
17.102
17.9862
20.8173
20.8191
20.388
18.3087
18.8142
17.1131
17.1146
17.5029
18.7908
20.4764
20.5741
20.5757
20.5784
15.5155
17.1419
19.8279
21.4254
22.1151
27.2506
27.2543
18.8826
18.8847
19.4256
21.8109
21.812
20.7023
16.5031
16.5028
16.5057
16.5053
19.9601
23.4092
23.4137
19.9002
21.858
22.0962
22.0951
22.0999
22.0981
18.7631
17.444
17.4451
19.9246
19.9273
19.1999
20.8474
20.089
13.6072
17.8223
20.8069
20.8082
18.7594
25.2741
25.2743
25.269
26.283
22.4161
19.3737
19.4801
21.8974
21.0388
21.8004
22.9516
19.1657
18.2387
22.6968
23.2552
23.2575
20.2134
18.4278
18.4281
18.8996
17.6938
16.9782
16.9803
20.7037
20.7047
19.4652
19.4659
20.8876
21.2947
19.7669
20.821
20.678
28.0767
29.2062
29.2058
27.1292
18.2645
18.2685
18.2643
18.27
18.2675
23.1946
23.194
23.2011
23.1958
23.2028
22.4928
22.5327
21.0863
18.266
18.2669
18.2674
20.6041
24.1535
24.3321
24.3307
24.335
24.3324
24.3374
24.3339
24.3389
23.8812
19.0256
16.5363
20.9658
26.9319
29.7918
29.7904
29.7943
23.0743
18.1517
22.1045
22.1057
19.8787
19.8803
19.8809
19.8821
23.2025
23.9093
17.0248
17.0259
21.4928
25.4678
25.4669
25.4741
25.4681
25.0934
16.6061
16.6104
18.1324
21.4197
21.4198
17.9071
17.9061
17.9068
21.3242
21.3244
20.2253
17.9569
16.1594
24.1332
26.4123
26.4092
26.4132
18.9488
18.6651
18.6678
18.6674
18.6686
23.0494
23.0994
23.0976
23.1003
23.0984
23.0163
22.0881
21.9708
21.174
24.9706
25.2092
24.6084
21.1791
19.021
19.0223
20.0784
20.7468
22.7015
23.9513
24.0687
22.9629
17.29
15.9231
21.9693
30.4682
30.4724
30.4699
23.6647
17.8081
17.8087
17.8087
19.53
25.1775
25.1794
25.1781
25.1809
24.9676
17.3194
17.3143
18.0215
18.3141
17.2559
17.2562
21.4704
21.9385
21.9361
21.9416
21.9375
21.9422
21.9383
22.2638
23.0487
23.0487
22.8217
18.3731
18.1452
23.5576
28.7196
28.7256
27.155
19.9302
19.9302
19.9306
20.7225
25.3482
27.2261
26.4776
24.7542
20.8435
18.4484
18.4527
19.3518
19.8798
19.8798
18.5963
18.5967
20.7566
24.2416
24.2422
22.7248
22.7268
25.1892
25.1897
25.1955
21.3454
19.3223
19.3207
22.9759
20.4054
16.3441
16.859
28.2415
30.5214
30.533
30.5218
30.5286
26.2145
17.9463
17.8788
17.8789
17.879
21.7186
22.3334
18.0603
18.063
18.0607
18.0634
18.7645
23.9686
23.9792
21.591
20.2778
20.698
19.2144
19.0801
21.7185
22.0574
22.7395
22.7393
20.1588
22.3884
25.8413
27.961
31.491
31.4896
31.5066
31.4914
31.5184
29.1039
19.7569
18.8328
18.8342
23.0792
24.8076
24.8053
23.5321
19.1701
19.0269
19.024
19.0272
19.1076
19.5194
24.2371
24.2424
24.2423
24.2425
23.6215
23.7809
23.7802
22.5778
17.6229
18.0952
17.8915
21.4363
18.9245
14.7161
24.3181
35.6495
35.6449
35.6604
35.6451
29.1772
20.331
17.6622
17.6551
17.6622
17.6568
19.5125
22.5423
20.9856
19.3087
19.3082
22.546
22.5575
22.546
22.5503
23.0337
18.083
17.8359
17.8414
17.8392
17.8414
21.3104
22.8384
22.8384
20.2442
16.548
10.1341
8.62967
8.62909
20.7367
27.4509
23.6744
21.4189
21.4137
20.3916
19.5199
19.6229
17.7182
17.7207
18.8786
18.7553
20.8725
17.3425
17.3453
20.4003
20.4032
20.4064
20.4092
19.4231
18.8994
18.9019
19.3733
19.5103
19.5125
20.9542
23.7262
18.9085
15.1026
15.1041
15.1055
15.1077
20.1075
15.1117
21.7716
25.0397
25.041
25.0459
21.7886
21.7936
22.2061
21.2756
18.5871
18.5893
21.752
21.7734
19.8315
19.8336
18.6057
18.6074
20.5184
18.3068
18.3087
18.4317
21.6448
21.6468
19.5672
19.5671
19.5056
19.5073
20.5654
17.663
15.5143
15.5162
15.5171
15.5195
15.5212
26.2633
27.3976
27.4029
27.4005
27.4055
26.4461
20.1375
20.8495
17.0676
16.5044
16.8343
16.507
16.5073
16.5097
23.6427
23.6439
23.6457
22.0405
20.8295
20.8294
21.8345
21.4891
20.5251
17.9493
19.0478
21.6395
21.64
21.3753
18.6329
13.2495
13.2509
13.2517
14.2005
13.2542
20.6138
29.2913
29.2903
29.2987
29.2915
29.3001
21.3633
21.1315
19.4456
18.3492
20.5264
18.1908
18.195
18.1922
18.197
23.2563
22.363
18.4275
20.3954
19.8842
17.7521
19.4944
20.2801
18.9769
18.9778
18.9787
21.2207
21.2213
20.9914
14.6892
13.8493
13.8483
13.8502
26.9803
29.211
29.2073
29.2106
29.2077
21.6027
18.2679
18.2708
18.269
18.2726
21.2285
21.1143
21.1126
22.5319
22.5328
22.3008
21.2941
21.5773
21.5526
18.2006
18.2045
18.2006
18.2058
18.2046
21.8706
24.3339
22.5654
13.0046
12.9058
12.9086
12.9072
13.029
12.9091
26.4222
29.7935
29.7922
29.7938
22.5412
22.1025
22.106
22.4031
22.4038
22.4045
21.5428
21.5432
22.6517
20.0691
17.0246
17.0256
17.0256
20.6996
25.4673
25.4748
16.6208
16.6087
16.6084
16.6109
17.8959
17.9044
17.9051
17.9058
20.8625
21.3239
21.3246
17.9314
13.6303
13.6306
21.3398
26.4087
26.4139
26.4097
22.0822
18.9745
21.8157
23.0903
23.0908
23.0912
20.9374
19.3901
19.3896
19.3907
22.9985
23.8221
23.8233
23.8243
23.8254
20.4569
20.4147
20.4149
19.0217
19.0209
20.6752
23.55
23.9493
23.9499
23.2411
22.9267
13.7432
13.2384
13.2387
25.1637
30.4695
30.4734
30.4704
30.4786
30.4705
30.1338
19.8064
19.5428
19.5429
18.3603
17.3137
17.3194
17.3143
17.3197
19.4982
19.7183
20.0117
21.7607
21.4684
21.9355
21.9379
21.6242
19.9267
17.2726
17.2729
17.273
18.8809
20.3509
13.7315
13.3117
13.3125
13.3133
24.7135
28.7221
28.7291
28.7225
26.2491
28.7231
28.7297
28.7236
28.18
22.1794
18.4532
18.4518
18.4535
20.1395
20.4617
19.3236
19.324
19.5448
19.5448
19.1075
18.3976
18.3978
19.8211
23.8445
25.1874
25.1941
25.1899
24.3186
19.6343
12.9763
12.976
12.9765
12.9771
12.9773
25.9868
30.5327
30.5216
29.8838
23.6742
23.6751
24.4055
24.404
24.1384
24.037
24.0361
24.0356
24.0348
23.6929
23.6924
23.0486
18.4971
18.5027
18.4938
18.5029
18.494
18.5031
18.4997
20.3533
22.7394
22.7394
22.7396
17.5573
12.8966
12.8957
12.8954
12.896
12.8967
22.7975
31.4913
31.5122
31.4915
31.5018
31.49
31.492
19.804
18.1703
18.1677
18.1704
21.0761
21.9913
21.9916
21.5522
21.993
22.0048
22.0052
22.0056
21.875
21.877
24.2423
24.2411
23.5457
22.6286
20.5975
17.6213
17.3828
16.1119
11.0475
10.4867
10.4888
10.488
27.7959
35.6567
35.6477
35.6611
35.6456
19.0355
17.6565
17.6622
23.4929
22.921
19.6645
22.5476
22.5443
22.5514
22.5445
22.5587
22.546
21.9922
24.4819
24.4873
24.482
24.4874
22.3371
17.9471
17.8392
17.8417
17.8397
18.8783
21.6718
18.889
10.2027
8.62968
8.62969
18.0516
26.9476
20.8381
18.3064
18.5894
20.9939
19.4084
19.4111
21.7556
22.1917
22.1945
20.7916
22.0437
22.0463
22.0498
19.3037
19.3071
20.0864
20.4094
20.3331
22.6678
17.4568
16.1761
16.1781
20.3727
18.5464
18.5487
18.7442
19.7195
19.3294
15.1052
15.1073
15.1096
15.1114
24.7305
25.039
25.0439
25.0435
25.0494
25.048
25.0525
24.9837
20.07
21.7691
21.7712
21.7733
18.8368
18.8388
20.3906
19.1341
17.817
17.8188
19.8837
19.8857
19.8877
21.647
21.6489
20.8175
20.6516
20.6534
19.1314
19.3238
17.0371
15.5157
15.518
15.5193
15.5211
20.0489
27.4009
27.399
27.4043
25.7425
19.1691
19.1682
20.8494
20.8519
20.8526
19.6253
17.0295
19.4161
20.2614
20.2616
20.2654
21.9121
23.2176
23.2195
23.2213
23.2231
17.586
16.9646
16.9658
21.6391
21.639
17.5838
16.1266
13.2486
13.25
13.2501
13.2519
13.2527
13.2542
28.4045
29.2894
29.2972
29.096
22.8649
20.8926
22.0242
22.0254
22.0266
17.9817
17.9837
19.9129
23.1169
19.7525
18.1953
18.1982
21.5169
25.2951
25.2966
25.2982
25.2996
21.8485
21.0812
18.9879
20.0121
20.6973
20.6989
19.2685
14.0596
13.8483
13.8465
13.849
13.8491
29.205
29.2081
29.2164
29.2084
29.2121
26.7021
20.495
20.4142
22.5387
18.4129
18.4164
21.3735
21.9341
21.9356
18.9717
18.9734
20.5552
21.579
21.5786
21.5822
21.5801
20.7116
21.9442
24.3327
24.3331
24.3403
24.3347
17.0768
12.9081
12.9057
12.909
12.9078
12.9091
20.5291
29.7922
29.7951
29.1441
27.566
27.566
20.6751
20.4368
20.4374
24.0167
22.9921
22.9929
22.9933
20.6569
17.0259
17.9239
20.8475
20.2348
16.6052
16.5988
16.6071
16.6049
20.6587
20.3379
17.9145
17.9714
17.9059
17.9061
18.521
17.9686
13.6279
13.6298
13.63
13.6306
20.456
26.4116
26.4094
23.4583
22.0797
22.5492
19.95
19.9508
21.1067
23.0913
21.3485
19.622
19.4129
19.3899
20.0406
18.1654
17.2164
17.2168
17.2171
17.5991
20.9233
23.2542
23.255
23.2557
22.7651
23.3244
23.9484
23.9497
17.6894
13.237
13.238
13.2384
13.2387
19.2467
29.9975
30.4704
30.476
25.9896
19.9388
19.9359
21.3554
21.8753
21.8754
19.6358
18.115
18.1745
18.1773
17.3216
18.8384
23.4938
23.6385
23.6394
19.6491
19.2745
19.2733
19.275
19.2746
19.3879
23.7795
23.7762
21.9238
16.7737
13.3097
13.311
13.3119
13.3126
21.3018
28.7244
28.7223
28.7295
28.7229
28.7293
28.7234
23.5781
19.0546
19.054
19.0534
23.4589
25.6034
25.6033
25.6054
25.6037
20.204
17.8847
17.8849
20.5249
23.1298
23.1302
18.0704
18.0709
18.6099
15.9332
15.0014
14.9992
14.6161
12.9759
12.9764
12.9763
12.977
12.9782
24.1913
30.5214
30.533
30.5218
30.5298
23.7134
24.9117
21.3763
17.9521
17.942
17.9524
17.9456
17.9527
17.9502
20.4091
24.1904
24.1911
24.1914
20.8424
18.5011
18.503
19.34
21.2597
21.2593
20.0969
20.0961
20.7582
20.7586
18.4269
12.8933
12.8949
12.8955
12.8961
23.381
31.4986
31.4914
31.5018
31.3989
31.3427
19.6865
19.6924
21.5107
21.511
21.5113
21.5114
21.6863
21.9921
21.9923
21.9926
21.9849
22.0049
20.465
19.9173
19.9171
19.8455
19.7506
19.7424
19.7424
20.4379
23.7142
21.1018
11.705
10.4846
10.4886
10.4867
10.488
23.4934
35.6477
35.6669
35.6482
35.6759
35.6456
35.6783
35.645
23.53
19.2543
19.2554
22.3129
22.0799
19.238
19.2376
19.238
20.614
20.6133
20.6134
24.4819
24.4872
24.4817
24.486
24.4807
24.4846
24.4797
20.7544
21.6718
21.6712
18.9919
8.63086
8.6303
8.62968
22.0577
18.973
18.2475
18.2505
21.3571
20.994
19.4084
21.8878
22.1888
22.1917
21.2515
21.0556
17.7232
17.7259
19.5496
19.5585
21.0331
21.12
21.9397
22.6649
22.6679
18.1399
19.9743
21.8895
21.8922
21.895
19.4321
19.7173
19.7195
19.8249
15.105
15.1077
15.1093
15.1117
25.0378
25.0409
25.0414
23.3975
23.3959
25.0488
25.05
25.054
20.0701
20.4902
18.9341
18.9361
19.7008
20.3884
20.3901
20.3928
20.3941
18.3959
19.8835
19.8856
19.7641
21.647
21.6489
18.6414
18.5382
18.5399
18.5862
19.324
16.8583
15.5166
15.5178
23.6572
16.3767
27.3962
27.3981
27.4036
27.4012
27.4082
27.4043
23.4537
16.7845
16.7863
19.1518
17.2044
16.8944
16.8966
16.8974
16.8993
21.2956
22.6692
22.6735
21.0217
19.3793
19.1393
19.1406
19.1417
17.7317
21.6394
18.8213
16.1264
16.1269
16.9689
19.6156
17.2269
13.2517
17.9917
13.8361
29.2861
29.2945
29.2892
29.2963
26.6252
20.7849
20.7857
22.0254
20.9231
17.8819
23.1122
23.1157
23.1168
22.6824
18.1973
24.089
25.2923
25.2937
22.4763
19.061
19.062
19.0629
21.0793
20.8926
20.3354
20.6986
20.6982
19.4891
18.151
14.814
13.8493
13.8488
13.8501
28.2576
29.2153
29.2082
29.2167
27.9963
20.4941
20.4956
22.5379
22.5381
22.5407
22.5398
18.4358
17.698
17.6991
18.9718
22.1096
19.4696
19.4655
21.5754
20.6618
19.7848
19.785
21.6971
24.3323
24.3375
24.3339
24.3411
21.4221
14.4707
17.5754
13.4083
12.9095
12.9091
24.8083
29.799
29.793
28.12
26.2981
26.2996
26.2993
26.2987
25.6173
25.1691
24.5346
22.6186
18.5996
17.0265
17.0267
21.6939
20.8412
16.6047
16.5973
16.6057
18.6437
18.9998
20.6584
22.688
25.4597
25.8005
25.8033
25.2047
21.3305
16.1912
13.6286
13.6294
13.6302
13.6304
19.3678
26.4089
26.4141
26.4101
26.419
23.8862
19.3684
21.106
21.1063
19.8661
19.8677
21.0814
19.3895
19.3906
20.3039
23.1201
23.1264
22.1109
18.6518
20.1196
20.1859
20.1867
22.9533
23.2922
23.2922
22.9817
22.8345
22.8346
17.3895
13.2365
13.2381
13.2384
13.2387
23.4539
30.47
30.489
30.4708
30.4902
30.4711
28.9833
23.5827
18.0627
17.6367
17.6431
17.6375
17.6436
18.0321
19.5428
21.8091
21.9898
21.2361
21.2362
21.8596
24.3233
24.3243
24.3247
24.3255
24.3252
23.7804
19.9866
15.9609
13.8599
13.3091
13.3103
13.3112
13.3121
20.4919
28.7221
28.7291
28.7225
28.7285
28.7231
28.7336
28.7236
25.9978
19.4748
19.0601
19.0611
19.0618
19.8171
22.4429
21.1934
17.8842
17.8846
17.8848
17.885
20.8277
23.1318
23.1325
23.2158
23.2158
23.2162
17.6304
17.413
19.8911
20.0249
13.2878
12.9765
12.9781
12.9786
20.0383
30.5224
30.5216
30.5314
30.5219
30.018
26.4454
17.952
17.9437
17.9523
18.9299
21.2293
22.5057
22.5065
22.507
22.5077
23.5173
24.9837
24.9861
24.9839
20.2321
19.3406
19.3423
21.1563
24.5796
24.5791
24.58
20.2754
12.8934
12.8932
12.8939
12.8949
12.8956
23.7868
31.4897
31.5054
31.4454
31.3908
31.3907
31.391
25.0897
20.5562
21.4219
19.7354
19.7366
19.7369
21.6286
21.9921
21.9923
20.6331
20.6328
21.3411
20.3326
23.3968
25.0549
24.3715
23.148
25.5461
25.5463
25.5464
25.5465
19.0763
13.4787
10.4866
10.4888
10.488
22.079
35.6502
35.6501
35.6562
35.6471
35.6605
35.6457
23.1491
17.8638
22.3108
22.3108
22.3109
20.351
19.2394
20.1247
23.0233
20.6133
20.6134
24.4797
24.486
20.2762
19.1081
19.1224
19.1083
19.1224
19.1084
19.1224
19.1189
20.1992
12.8689
8.63305
8.63028
8.6303
19.1589
20.9225
19.3682
22.9655
22.9688
19.4734
19.4765
20.6478
20.2291
20.1188
20.3753
19.2183
20.9684
20.9713
20.9741
20.9989
21.0329
19.1241
19.1265
19.4068
22.6681
22.099
22.4334
18.7585
18.7608
22.2714
22.2751
19.3719
19.9144
19.9163
16.5495
16.411
21.385
22.5282
25.0388
23.3769
20.9856
20.987
24.4364
22.8125
25.0504
25.052
25.056
25.0563
25.0593
22.117
22.0233
20.1355
18.7465
18.748
18.9182
17.8148
17.8166
18.0979
19.4644
19.466
21.6489
21.3786
21.3803
21.382
19.3558
19.1769
18.76
17.2665
19.7806
25.5254
27.394
27.3953
27.4013
27.3993
27.4077
21.1703
18.8149
18.8161
22.3077
23.0743
23.0759
21.8701
22.2355
21.2802
19.5314
18.3901
17.9746
17.9772
18.6413
18.6426
22.5322
18.547
18.3301
18.3315
21.4292
21.6398
21.6408
21.6428
21.6432
21.6467
19.6146
21.3539
21.355
21.1215
15.0215
24.5874
24.1092
24.1108
27.653
27.2567
21.089
20.0442
17.4758
17.477
17.478
17.479
18.6152
21.6271
23.3298
23.6206
23.6224
17.5857
17.5877
22.7203
23.6124
20.9289
19.8639
18.8155
18.8165
18.8174
20.6672
20.6997
20.6991
18.7344
14.8166
18.6188
29.2019
29.2041
29.2142
29.2082
29.2182
25.9534
21.9702
22.5074
21.6529
21.6517
22.151
20.5859
17.6966
17.6973
17.698
22.109
22.1088
22.111
19.4684
19.6248
21.8509
20.5142
19.7844
19.7855
21.9522
22.6621
23.9999
24.3365
20.387
20.2498
20.7023
23.9354
23.9369
23.9392
24.9395
29.8012
29.7945
26.8931
26.8893
29.8027
22.2437
20.6105
20.6113
22.5604
25.17
19.7117
18.1237
18.1246
22.3815
22.7294
22.7458
21.7293
16.5969
16.6041
16.7116
22.551
22.3746
19.583
19.5825
19.5839
25.507
25.801
25.8038
23.7409
20.0932
20.0171
19.7871
18.0637
18.4148
25.9538
26.4111
26.4096
26.4173
26.4108
22.7235
17.6161
17.6185
17.6177
17.6191
20.7832
23.1188
23.1187
23.1212
23.1196
23.1243
23.1205
23.1279
20.3355
20.1194
21.5272
23.0529
23.0529
21.1355
21.1363
22.9811
22.9799
22.9796
20.8896
16.669
17.7068
18.2651
18.266
25.0261
26.3145
24.0433
23.9341
23.9343
26.5075
27.1218
19.547
18.0624
18.102
18.878
19.2124
18.5217
19.474
19.4739
19.4743
19.9417
23.4989
24.3206
24.321
24.322
23.2296
22.742
24.8726
22.902
20.4034
18.7731
17.1548
18.3933
18.4938
18.4898
13.8673
13.3825
24.7023
28.719
25.1081
22.5135
22.5108
23.8722
26.7813
25.3756
23.0169
22.4499
21.6237
22.089
22.0892
22.0894
21.7383
18.7694
17.8856
19.5675
21.239
21.2387
20.0089
18.7095
18.7114
23.2133
23.216
17.5293
17.1952
17.1992
17.7123
22.276
23.266
23.2668
23.2663
18.6628
20.2714
23.0885
30.0214
30.5218
30.53
30.5221
25.8151
23.0036
21.0821
19.2432
20.8175
21.2317
20.6841
20.6841
20.6843
23.2796
24.9835
24.9924
24.9838
24.9928
24.9839
24.8672
22.8625
22.8629
18.1804
16.4209
16.4209
16.4211
17.7868
23.6175
23.618
23.6188
26.6481
31.488
31.5036
31.4898
31.5036
31.4885
29.2277
19.5564
19.3049
19.305
19.5249
19.5247
20.2073
22.1261
21.1774
19.5164
19.5187
23.2128
23.4079
21.605
25.0552
25.0548
25.0553
21.3447
21.2591
21.2595
21.5799
25.5464
24.8046
20.0647
16.5527
16.7479
20.8257
32.9861
35.6614
35.6506
35.6581
35.6507
35.6719
35.6483
20.624
17.7543
17.7547
18.9655
18.9652
18.9653
18.9654
23.4191
24.4788
24.4783
24.4794
24.4791
24.4948
24.4799
21.2776
19.1236
22.9044
22.9066
22.9014
22.307
22.9025
22.9103
16.6517
8.63107
8.63231
8.63344
8.63028
17.8183
20.9225
18.3018
18.9118
23.2548
23.2581
19.7245
19.8137
19.9014
20.1187
19.8414
18.0779
20.0854
17.2124
17.2147
20.768
20.0819
19.124
22.0266
23.8607
23.8636
23.8687
23.8716
22.7549
20.3528
22.2722
22.2738
19.3723
19.4674
16.4676
16.4094
16.4112
17.5923
17.5942
25.0397
25.0445
25.0447
25.049
25.0487
22.8141
18.2442
18.247
20.2065
20.9148
18.7234
18.7257
18.7276
18.9269
22.1816
22.1853
20.2137
20.6581
20.9723
17.712
17.7138
21.1508
21.1529
20.4194
21.1127
17.6534
17.332
17.3335
14.2871
12.9217
12.9236
12.9252
12.9267
27.3949
27.3974
27.4035
27.4004
27.4059
24.3096
24.0264
24.0279
19.5344
19.3462
19.3476
23.6431
24.9445
19.0661
18.0086
18.0097
21.0142
22.1187
22.6309
23.9876
21.7577
19.586
18.3314
18.333
21.6378
21.6411
21.5577
19.838
16.1041
14.9129
14.893
14.8944
14.8957
14.897
26.8727
27.6587
27.6561
27.661
26.8821
24.7149
21.7669
17.4761
17.477
21.6517
21.651
21.6559
21.6533
21.2933
17.6593
17.5847
17.5857
23.6101
23.6113
23.6124
22.5413
22.3251
20.6064
20.4885
18.8174
18.8187
18.9072
18.9092
19.4949
14.8867
14.889
14.8901
14.8912
28.6492
29.2157
29.2093
25.7298
21.9695
22.511
22.5086
22.5174
20.4233
18.8118
18.8119
23.5013
23.7779
21.2532
21.2517
23.7812
23.7801
21.4277
21.8511
20.6392
20.6396
20.5099
18.3828
18.3846
18.3858
22.6165
23.8386
20.2471
13.6074
13.6053
13.6083
13.6072
13.6086
26.3411
29.8077
29.7988
29.8102
29.7995
29.8087
22.6255
21.4213
22.5605
21.3322
18.1232
18.1237
22.7288
22.7281
22.7445
22.73
17.5351
16.6046
16.6004
18.0341
22.846
24.3334
24.3332
24.3339
19.9357
19.162
19.1619
21.2888
20.6544
15.5666
14.5231
14.5244
14.5251
14.5258
20.95
26.4091
26.4148
26.4103
26.4198
26.4116
26.421
20.1135
17.6187
17.6173
17.6195
17.619
17.6202
18.5858
22.8938
23.12
23.1276
23.1209
23.1272
23.1216
23.1269
19.3616
19.2524
19.2527
21.885
22.9796
22.1895
15.7261
13.3893
13.3341
13.3339
13.336
13.3358
23.9379
29.5787
29.596
29.5796
29.5967
29.5803
24.9571
20.9082
21.4672
24.1596
24.1599
24.1602
22.3032
19.4736
19.474
19.6566
21.0876
21.423
19.6514
19.6521
20.4276
20.4276
21.0596
24.8741
22.0472
14.2974
13.9769
13.974
13.9773
13.975
13.9776
15.8472
14.0564
26.1672
28.7148
24.7395
26.8747
27.934
27.9302
21.2537
19.7977
19.798
19.7981
21.8178
22.0887
20.5429
18.1071
19.0343
21.2616
21.2616
21.2619
17.8564
17.1891
17.1893
18.7093
23.0719
23.2157
23.2158
23.2161
19.8261
17.1935
17.1981
17.1943
17.1981
17.1949
18.2931
17.5954
28.0102
34.2207
29.5625
27.9426
30.5219
30.5291
30.5222
30.0584
18.7818
18.7821
19.5494
22.8343
25.9185
25.9192
25.9198
25.9206
21.3653
18.9444
18.9467
19.1123
19.1124
19.1125
19.1126
21.4822
23.5639
23.564
24.1407
23.3334
14.1099
12.5163
12.5177
12.5183
12.5188
23.9367
31.4882
29.3917
25.9517
25.344
21.271
19.5598
21.4175
24.5098
25.4578
25.4523
25.4613
23.6495
23.9794
23.9859
23.9798
23.9931
23.9799
20.19
18.7272
20.1505
20.4136
20.4134
21.2588
21.2591
21.2595
24.2944
24.8037
24.3291
15.8337
15.8374
15.8374
15.8374
28.806
35.6689
35.6508
35.6885
35.6506
29.6127
18.8212
18.0711
21.9994
21.2805
23.7916
23.8211
23.821
23.8211
21.5307
18.9314
18.9327
19.2978
21.216
21.2119
22.0662
22.905
22.9139
20.5925
20.1324
20.1331
20.1337
22.9046
21.9845
13.9039
14.2457
8.63232
8.63344
25.9263
19.7388
18.3017
20.5712
23.2548
21.0051
20.7705
19.6723
19.5414
18.8317
17.8298
17.8325
19.5327
19.5351
17.2835
17.2856
20.3315
19.4557
18.4508
21.5831
23.8635
21.9493
18.04
20.3558
18.0699
18.072
18.0743
21.2317
21.234
17.4176
22.2708
22.2735
22.2764
23.4743
25.0409
25.0421
25.0137
25.0137
25.0507
22.8944
18.245
18.4327
18.6026
18.6046
18.6065
22.175
22.178
22.1795
22.1832
22.1837
21.3995
20.9714
20.9729
17.7122
20.7825
21.1499
18.2766
18.2787
20.7144
20.3776
19.4532
19.374
18.4257
19.0597
19.282
19.2831
17.0613
24.3902
23.4189
23.4194
26.5083
25.654
19.4994
19.4719
19.4735
19.6082
19.6093
24.5113
24.9428
24.9444
23.5802
21.2646
21.577
21.58
21.5802
21.5829
23.988
23.9892
23.9907
20.8572
20.8593
20.2048
17.6817
17.6831
17.6841
20.7519
21.4485
21.5729
21.5746
21.5764
25.607
27.6572
27.6553
26.6031
22.7048
19.0795
19.0807
19.0817
19.7481
21.649
21.6498
21.6553
21.6521
21.6576
21.1567
17.3304
18.7273