/*--------------------------------*- C++ -*----------------------------------*\
  =========                 |
  \\      /  F ield         | OpenFOAM: The Open Source CFD Toolbox
   \\    /   O peration     | Website:  https://openfoam.org
    \\  /    A nd           | Version:  7
     \\/     M anipulation  |
\*---------------------------------------------------------------------------*/
FoamFile
{
    version     2.0;
    format      ascii;
    class       volScalarField;
    location    "1500";
    object      rho1;
}
// * * * * * * * * * * * * * * * * * * * * * * * * * * * * * * * * * * * * * //

dimensions      [1 -3 0 0 0 0 0];

internalField   nonuniform List<scalar> 
160000
(
985.036
985.151
985.265
985.379
985.495
985.609
985.721
985.83
985.936
986.045
986.156
986.262
986.368
986.476
986.579
986.68
986.781
986.88
986.981
987.081
987.179
987.275
987.368
987.461
987.554
987.647
987.74
987.83
987.918
988.006
988.09
988.175
988.264
988.353
988.436
988.519
988.601
988.681
988.758
988.835
988.915
988.995
989.075
989.151
989.225
989.3
989.374
989.446
989.519
989.593
989.665
989.737
989.807
989.875
989.943
990.01
990.077
990.145
990.208
990.271
990.337
990.403
990.465
990.526
990.585
990.647
990.709
990.771
990.83
990.884
990.941
990.999
991.054
991.11
991.164
991.219
991.274
991.327
991.38
991.433
991.486
991.539
991.591
991.641
991.691
991.741
991.79
991.838
991.884
991.932
991.979
992.025
992.073
992.12
992.165
992.208
992.251
992.295
992.338
992.379
992.421
992.462
992.503
992.544
992.584
992.623
992.662
992.701
992.74
992.779
992.818
992.855
992.891
992.928
992.963
992.999
993.034
993.068
993.104
993.139
993.174
993.208
993.24
993.273
993.306
993.339
993.373
993.405
993.435
993.466
993.497
993.527
993.556
993.587
993.618
993.647
993.675
993.703
993.731
993.757
993.784
993.813
993.84
993.866
993.893
993.92
993.946
993.971
993.997
994.021
994.045
994.069
994.093
994.117
994.141
994.164
994.187
994.21
994.233
994.256
994.278
994.3
994.322
994.344
994.365
994.386
994.407
994.428
994.448
994.468
994.487
994.508
994.528
994.547
994.567
994.585
994.603
994.621
994.639
994.658
994.675
994.693
994.71
994.726
994.743
994.759
994.775
994.792
994.808
994.824
994.841
994.857
994.873
994.889
994.905
994.92
994.934
994.949
994.965
994.98
994.995
995.01
995.024
995.037
995.05
995.064
995.077
995.09
995.103
995.116
995.129
995.141
995.154
995.166
995.178
995.19
995.201
995.213
995.225
995.236
995.248
995.259
995.27
995.28
995.291
995.301
995.312
995.322
995.333
995.343
995.353
995.362
995.372
995.382
995.392
995.402
995.411
995.42
995.429
995.438
995.447
995.455
995.464
995.472
995.481
995.489
995.498
995.506
995.515
995.524
995.532
995.54
995.548
995.555
995.563
995.57
995.577
995.584
995.591
995.599
995.607
995.614
995.62
995.627
995.633
995.64
995.647
995.653
995.66
995.666
995.673
995.679
995.685
995.691
995.696
995.702
995.708
995.713
995.719
995.725
995.73
995.735
995.741
995.746
995.751
995.757
995.762
995.767
995.771
995.776
995.781
995.786
995.79
995.795
995.8
995.804
995.809
995.813
995.817
995.822
995.826
995.83
995.834
995.839
995.843
995.846
995.85
995.854
995.857
995.861
995.865
995.868
995.872
995.875
995.879
995.882
995.885
995.888
995.891
995.895
995.898
995.901
995.904
995.907
995.91
995.912
995.915
995.918
995.921
995.923
995.926
995.929
995.931
995.934
995.936
995.938
995.941
995.943
995.945
995.948
995.95
995.952
995.954
995.956
995.958
995.96
995.962
995.964
995.965
995.967
995.969
995.971
995.972
995.974
995.976
995.977
995.979
995.98
995.982
995.983
995.984
995.986
995.987
995.988
995.99
995.991
995.992
995.993
995.994
995.995
995.996
995.997
995.998
995.999
996
996.001
996.002
996.002
996.003
996.004
996.004
996.005
996.006
996.006
996.007
996.007
996.008
996.008
996.008
996.009
996.009
996.009
996.01
996.01
996.01
996.01
996.01
996.01
996.01
996.01
985.038
985.154
985.266
985.38
985.494
985.607
985.719
985.83
985.938
986.046
986.157
986.264
986.368
986.472
986.578
986.68
986.779
986.88
986.983
987.083
987.181
987.275
987.369
987.463
987.555
987.645
987.736
987.829
987.918
988.005
988.092
988.178
988.265
988.352
988.436
988.518
988.602
988.68
988.755
988.835
988.917
988.995
989.074
989.15
989.224
989.301
989.375
989.446
989.518
989.593
989.667
989.738
989.806
989.875
989.944
990.009
990.077
990.143
990.208
990.273
990.337
990.402
990.465
990.526
990.586
990.648
990.709
990.769
990.828
990.885
990.942
991
991.055
991.11
991.164
991.219
991.274
991.328
991.38
991.433
991.486
991.539
991.59
991.64
991.69
991.742
991.791
991.838
991.885
991.932
991.98
992.026
992.073
992.12
992.164
992.207
992.251
992.294
992.337
992.379
992.421
992.463
992.503
992.543
992.584
992.623
992.662
992.701
992.741
992.779
992.818
992.855
992.891
992.927
992.963
992.998
993.033
993.068
993.104
993.139
993.174
993.208
993.241
993.274
993.307
993.34
993.372
993.404
993.435
993.466
993.497
993.526
993.556
993.588
993.618
993.647
993.675
993.704
993.731
993.757
993.784
993.812
993.84
993.866
993.894
993.92
993.946
993.971
993.996
994.021
994.045
994.07
994.093
994.117
994.14
994.164
994.187
994.21
994.233
994.256
994.278
994.3
994.322
994.344
994.365
994.386
994.407
994.428
994.448
994.468
994.488
994.508
994.528
994.547
994.566
994.585
994.603
994.621
994.64
994.658
994.675
994.692
994.71
994.726
994.742
994.759
994.776
994.792
994.808
994.824
994.841
994.857
994.873
994.889
994.904
994.919
994.934
994.95
994.965
994.98
994.995
995.01
995.023
995.037
995.05
995.064
995.077
995.09
995.103
995.116
995.129
995.141
995.154
995.166
995.178
995.19
995.201
995.213
995.225
995.236
995.248
995.259
995.269
995.28
995.291
995.301
995.312
995.322
995.333
995.343
995.353
995.362
995.372
995.383
995.392
995.402
995.411
995.42
995.429
995.438
995.447
995.455
995.464
995.472
995.481
995.489
995.498
995.507
995.515
995.524
995.532
995.54
995.548
995.555
995.563
995.57
995.577
995.584
995.592
995.599
995.606
995.613
995.62
995.627
995.633
995.64
995.647
995.653
995.66
995.666
995.673
995.679
995.685
995.691
995.696
995.702
995.708
995.714
995.719
995.725
995.73
995.735
995.741
995.746
995.751
995.757
995.762
995.767
995.771
995.776
995.781
995.786
995.79
995.795
995.8
995.804
995.809
995.813
995.817
995.822
995.826
995.83
995.834
995.839
995.842
995.846
995.85
995.854
995.857
995.861
995.865
995.868
995.872
995.875
995.879
995.882
995.885
995.888
995.891
995.895
995.898
995.901
995.904
995.907
995.91
995.912
995.915
995.918
995.921
995.923
995.926
995.929
995.931
995.934
995.936
995.938
995.941
995.943
995.945
995.948
995.95
995.952
995.954
995.956
995.958
995.96
995.962
995.964
995.965
995.967
995.969
995.971
995.972
995.974
995.976
995.977
995.979
995.98
995.982
995.983
995.984
995.986
995.987
995.988
995.99
995.991
995.992
995.993
995.994
995.995
995.996
995.997
995.998
995.999
996
996.001
996.002
996.002
996.003
996.004
996.004
996.005
996.006
996.006
996.007
996.007
996.008
996.008
996.008
996.009
996.009
996.009
996.01
996.01
996.01
996.01
996.01
996.01
996.01
996.01
985.037
985.152
985.266
985.38
985.495
985.608
985.718
985.83
985.939
986.046
986.156
986.264
986.367
986.47
986.576
986.678
986.779
986.884
986.984
987.083
987.181
987.277
987.372
987.464
987.555
987.645
987.735
987.826
987.917
988.006
988.092
988.178
988.265
988.353
988.437
988.518
988.6
988.679
988.756
988.836
988.916
988.995
989.073
989.148
989.225
989.302
989.375
989.446
989.518
989.593
989.667
989.738
989.806
989.874
989.942
990.009
990.076
990.142
990.209
990.274
990.337
990.4
990.465
990.527
990.587
990.649
990.711
990.77
990.828
990.885
990.942
990.998
991.055
991.11
991.164
991.219
991.274
991.327
991.382
991.434
991.486
991.538
991.591
991.64
991.69
991.74
991.789
991.838
991.886
991.933
991.98
992.027
992.073
992.119
992.164
992.207
992.25
992.293
992.337
992.379
992.421
992.463
992.504
992.543
992.584
992.623
992.663
992.702
992.74
992.779
992.817
992.855
992.891
992.927
992.963
992.998
993.033
993.069
993.104
993.14
993.174
993.208
993.241
993.274
993.307
993.34
993.372
993.404
993.435
993.466
993.496
993.527
993.558
993.588
993.618
993.647
993.675
993.703
993.73
993.757
993.784
993.812
993.84
993.866
993.893
993.92
993.946
993.971
993.996
994.021
994.045
994.069
994.093
994.117
994.141
994.165
994.187
994.211
994.233
994.256
994.278
994.3
994.322
994.344
994.365
994.386
994.407
994.428
994.448
994.468
994.489
994.508
994.528
994.547
994.566
994.584
994.603
994.621
994.64
994.657
994.675
994.692
994.709
994.726
994.742
994.759
994.775
994.792
994.808
994.825
994.842
994.858
994.873
994.889
994.904
994.92
994.935
994.95
994.965
994.98
994.995
995.009
995.023
995.037
995.051
995.064
995.077
995.09
995.103
995.116
995.129
995.141
995.154
995.166
995.178
995.19
995.201
995.213
995.225
995.236
995.247
995.258
995.269
995.28
995.291
995.302
995.312
995.322
995.333
995.343
995.353
995.363
995.373
995.383
995.392
995.402
995.411
995.42
995.429
995.438
995.447
995.455
995.464
995.472
995.481
995.489
995.498
995.507
995.516
995.524
995.532
995.54
995.548
995.555
995.563
995.57
995.577
995.584
995.592
995.599
995.606
995.613
995.62
995.627
995.634
995.64
995.647
995.654
995.66
995.666
995.673
995.679
995.685
995.69
995.696
995.702
995.708
995.713
995.719
995.725
995.73
995.736
995.741
995.746
995.751
995.757
995.762
995.767
995.771
995.776
995.781
995.786
995.79
995.795
995.8
995.804
995.809
995.813
995.817
995.822
995.826
995.83
995.834
995.838
995.842
995.846
995.85
995.854
995.857
995.861
995.865
995.868
995.872
995.875
995.879
995.882
995.885
995.888
995.891
995.895
995.898
995.901
995.904
995.907
995.91
995.912
995.915
995.918
995.921
995.923
995.926
995.929
995.931
995.934
995.936
995.938
995.941
995.943
995.945
995.947
995.95
995.952
995.954
995.956
995.958
995.96
995.962
995.964
995.965
995.967
995.969
995.971
995.972
995.974
995.976
995.977
995.979
995.98
995.982
995.983
995.984
995.986
995.987
995.988
995.99
995.991
995.992
995.993
995.994
995.995
995.996
995.997
995.998
995.999
996
996.001
996.002
996.002
996.003
996.004
996.004
996.005
996.006
996.006
996.007
996.007
996.008
996.008
996.008
996.009
996.009
996.009
996.01
996.01
996.01
996.01
996.01
996.01
996.01
996.01
985.036
985.152
985.267
985.382
985.496
985.61
985.72
985.831
985.941
986.05
986.157
986.261
986.366
986.47
986.575
986.678
986.78
986.883
986.984
987.084
987.181
987.277
987.372
987.462
987.556
987.647
987.735
987.826
987.918
988.006
988.092
988.178
988.264
988.351
988.437
988.519
988.6
988.679
988.755
988.836
988.917
988.996
989.073
989.148
989.225
989.3
989.374
989.446
989.519
989.593
989.666
989.739
989.807
989.874
989.943
990.01
990.076
990.142
990.208
990.273
990.336
990.4
990.465
990.526
990.587
990.649
990.711
990.77
990.828
990.886
990.943
990.998
991.053
991.108
991.164
991.221
991.275
991.328
991.383
991.435
991.486
991.539
991.59
991.639
991.689
991.74
991.789
991.838
991.886
991.934
991.981
992.027
992.073
992.118
992.162
992.206
992.251
992.293
992.336
992.379
992.422
992.463
992.504
992.544
992.583
992.623
992.663
992.702
992.74
992.779
992.817
992.854
992.891
992.927
992.963
992.998
993.033
993.069
993.105
993.14
993.174
993.207
993.241
993.274
993.307
993.34
993.372
993.404
993.435
993.466
993.496
993.527
993.558
993.589
993.618
993.647
993.674
993.702
993.73
993.757
993.785
993.813
993.839
993.866
993.893
993.92
993.946
993.971
993.996
994.02
994.045
994.069
994.093
994.117
994.141
994.164
994.188
994.211
994.233
994.255
994.278
994.3
994.322
994.344
994.366
994.386
994.407
994.428
994.448
994.469
994.489
994.508
994.528
994.547
994.566
994.584
994.603
994.621
994.639
994.657
994.675
994.692
994.709
994.725
994.742
994.759
994.776
994.792
994.809
994.826
994.842
994.858
994.874
994.889
994.905
994.92
994.935
994.95
994.965
994.98
994.995
995.009
995.023
995.037
995.05
995.064
995.077
995.09
995.103
995.116
995.128
995.141
995.154
995.166
995.178
995.19
995.201
995.213
995.225
995.236
995.247
995.258
995.269
995.28
995.291
995.302
995.312
995.322
995.333
995.343
995.353
995.363
995.373
995.383
995.392
995.402
995.411
995.42
995.429
995.438
995.447
995.455
995.464
995.472
995.481
995.49
995.499
995.507
995.516
995.524
995.532
995.54
995.548
995.555
995.562
995.57
995.577
995.584
995.592
995.599
995.606
995.613
995.62
995.627
995.634
995.64
995.647
995.654
995.66
995.666
995.673
995.679
995.685
995.69
995.696
995.702
995.708
995.713
995.719
995.725
995.73
995.736
995.741
995.746
995.751
995.757
995.762
995.766
995.771
995.776
995.781
995.786
995.79
995.795
995.8
995.804
995.809
995.813
995.818
995.822
995.826
995.83
995.834
995.838
995.842
995.846
995.85
995.854
995.857
995.861
995.865
995.868
995.872
995.875
995.879
995.882
995.885
995.888
995.891
995.895
995.898
995.901
995.904
995.907
995.91
995.912
995.915
995.918
995.921
995.923
995.926
995.929
995.931
995.934
995.936
995.938
995.941
995.943
995.945
995.947
995.95
995.952
995.954
995.956
995.958
995.96
995.962
995.964
995.965
995.967
995.969
995.971
995.972
995.974
995.976
995.977
995.979
995.98
995.982
995.983
995.984
995.986
995.987
995.988
995.99
995.991
995.992
995.993
995.994
995.995
995.996
995.997
995.998
995.999
996
996.001
996.002
996.002
996.003
996.004
996.004
996.005
996.006
996.006
996.007
996.007
996.008
996.008
996.008
996.009
996.009
996.009
996.01
996.01
996.01
996.01
996.01
996.01
996.01
996.01
985.036
985.15
985.266
985.383
985.497
985.611
985.721
985.832
985.943
986.05
986.157
986.259
986.361
986.472
986.579
986.679
986.78
986.881
986.982
987.084
987.183
987.278
987.372
987.463
987.556
987.646
987.734
987.825
987.916
988.005
988.094
988.18
988.265
988.352
988.439
988.519
988.598
988.677
988.757
988.838
988.917
988.996
989.074
989.149
989.224
989.299
989.372
989.444
989.52
989.594
989.666
989.738
989.807
989.875
989.943
990.01
990.076
990.142
990.208
990.273
990.336
990.399
990.463
990.526
990.586
990.649
990.712
990.772
990.829
990.887
990.943
990.997
991.053
991.109
991.164
991.221
991.276
991.329
991.382
991.435
991.488
991.539
991.589
991.639
991.689
991.739
991.789
991.838
991.886
991.934
991.981
992.027
992.072
992.118
992.162
992.206
992.25
992.294
992.336
992.379
992.423
992.465
992.504
992.544
992.584
992.623
992.663
992.702
992.74
992.779
992.817
992.853
992.89
992.927
992.964
992.999
993.033
993.068
993.105
993.139
993.174
993.207
993.241
993.274
993.307
993.341
993.373
993.404
993.435
993.465
993.496
993.527
993.559
993.589
993.619
993.647
993.675
993.702
993.73
993.757
993.785
993.812
993.839
993.867
993.893
993.92
993.946
993.971
993.996
994.021
994.045
994.069
994.093
994.117
994.141
994.165
994.188
994.211
994.233
994.255
994.277
994.3
994.323
994.345
994.366
994.386
994.408
994.429
994.449
994.469
994.489
994.508
994.527
994.546
994.565
994.584
994.603
994.621
994.639
994.656
994.674
994.692
994.709
994.726
994.742
994.759
994.776
994.793
994.81
994.827
994.843
994.858
994.874
994.89
994.905
994.919
994.934
994.95
994.965
994.98
994.995
995.009
995.023
995.037
995.05
995.064
995.077
995.09
995.103
995.116
995.128
995.141
995.154
995.166
995.178
995.19
995.201
995.213
995.225
995.236
995.247
995.258
995.269
995.28
995.291
995.302
995.312
995.322
995.333
995.343
995.353
995.363
995.373
995.383
995.393
995.402
995.411
995.42
995.429
995.438
995.446
995.455
995.464
995.473
995.481
995.49
995.499
995.508
995.516
995.524
995.532
995.54
995.547
995.555
995.562
995.57
995.577
995.584
995.592
995.599
995.606
995.613
995.62
995.627
995.634
995.64
995.647
995.654
995.66
995.667
995.673
995.679
995.684
995.69
995.696
995.702
995.708
995.714
995.719
995.725
995.73
995.735
995.741
995.746
995.751
995.756
995.762
995.767
995.771
995.776
995.781
995.786
995.79
995.795
995.8
995.804
995.809
995.813
995.818
995.822
995.826
995.831
995.835
995.838
995.842
995.846
995.85
995.853
995.857
995.861
995.864
995.868
995.872
995.875
995.879
995.882
995.885
995.888
995.891
995.895
995.898
995.901
995.904
995.907
995.91
995.912
995.915
995.918
995.921
995.923
995.926
995.929
995.931
995.934
995.936
995.939
995.941
995.943
995.945
995.947
995.95
995.952
995.954
995.956
995.958
995.96
995.962
995.964
995.965
995.967
995.969
995.971
995.972
995.974
995.976
995.977
995.979
995.98
995.982
995.983
995.984
995.986
995.987
995.988
995.99
995.991
995.992
995.993
995.994
995.995
995.996
995.997
995.998
995.999
996
996.001
996.002
996.002
996.003
996.004
996.004
996.005
996.006
996.006
996.007
996.007
996.008
996.008
996.008
996.009
996.009
996.009
996.01
996.01
996.01
996.01
996.01
996.01
996.01
996.01
985.035
985.148
985.263
985.382
985.497
985.612
985.724
985.835
985.942
986.048
986.155
986.259
986.364
986.472
986.577
986.681
986.783
986.881
986.98
987.08
987.18
987.278
987.373
987.464
987.555
987.647
987.736
987.825
987.914
988.003
988.094
988.181
988.267
988.353
988.438
988.519
988.598
988.677
988.757
988.838
988.917
988.996
989.073
989.148
989.223
989.299
989.372
989.445
989.518
989.593
989.667
989.737
989.806
989.876
989.943
990.01
990.076
990.143
990.208
990.272
990.336
990.398
990.462
990.526
990.587
990.65
990.713
990.773
990.83
990.887
990.942
990.998
991.055
991.11
991.165
991.221
991.276
991.33
991.383
991.435
991.487
991.539
991.589
991.639
991.689
991.739
991.788
991.837
991.886
991.934
991.98
992.026
992.072
992.118
992.162
992.206
992.25
992.293
992.337
992.38
992.423
992.464
992.504
992.545
992.584
992.623
992.662
992.701
992.74
992.779
992.817
992.854
992.89
992.927
992.963
992.999
993.033
993.068
993.104
993.139
993.173
993.207
993.241
993.274
993.308
993.34
993.372
993.404
993.435
993.465
993.496
993.528
993.559
993.589
993.618
993.647
993.675
993.703
993.73
993.757
993.785
993.812
993.839
993.866
993.893
993.919
993.945
993.971
993.996
994.021
994.045
994.069
994.093
994.118
994.141
994.165
994.188
994.21
994.232
994.255
994.277
994.3
994.322
994.344
994.366
994.387
994.409
994.43
994.45
994.469
994.489
994.508
994.527
994.546
994.565
994.584
994.602
994.62
994.638
994.656
994.674
994.692
994.709
994.725
994.742
994.76
994.778
994.795
994.811
994.827
994.843
994.858
994.874
994.889
994.905
994.919
994.934
994.95
994.965
994.98
994.995
995.009
995.023
995.037
995.05
995.063
995.077
995.09
995.103
995.116
995.128
995.141
995.153
995.166
995.178
995.189
995.201
995.213
995.225
995.236
995.247
995.258
995.269
995.28
995.291
995.302
995.312
995.322
995.332
995.343
995.353
995.363
995.373
995.383
995.393
995.402
995.411
995.42
995.429
995.438
995.447
995.455
995.464
995.473
995.482
995.49
995.499
995.508
995.516
995.524
995.532
995.539
995.547
995.555
995.562
995.57
995.577
995.584
995.592
995.599
995.606
995.613
995.62
995.627
995.633
995.64
995.647
995.654
995.661
995.667
995.673
995.679
995.684
995.69
995.696
995.702
995.708
995.714
995.719
995.725
995.73
995.735
995.741
995.746
995.751
995.756
995.761
995.766
995.771
995.776
995.781
995.786
995.79
995.795
995.8
995.804
995.809
995.813
995.818
995.822
995.826
995.831
995.835
995.838
995.842
995.846
995.85
995.853
995.857
995.861
995.864
995.868
995.872
995.875
995.879
995.882
995.885
995.888
995.891
995.895
995.898
995.901
995.904
995.907
995.91
995.912
995.915
995.918
995.921
995.923
995.926
995.929
995.931
995.934
995.936
995.939
995.941
995.943
995.945
995.947
995.95
995.952
995.954
995.956
995.958
995.96
995.962
995.964
995.965
995.967
995.969
995.971
995.972
995.974
995.976
995.977
995.979
995.98
995.982
995.983
995.984
995.986
995.987
995.988
995.99
995.991
995.992
995.993
995.994
995.995
995.996
995.997
995.998
995.999
996
996.001
996.001
996.002
996.003
996.004
996.004
996.005
996.006
996.006
996.007
996.007
996.008
996.008
996.008
996.009
996.009
996.009
996.01
996.01
996.01
996.01
996.01
996.01
996.01
996.01
985.035
985.149
985.263
985.379
985.494
985.61
985.725
985.836
985.944
986.05
986.155
986.259
986.366
986.475
986.579
986.681
986.782
986.882
986.98
987.078
987.179
987.278
987.371
987.462
987.554
987.647
987.737
987.827
987.915
988.004
988.094
988.183
988.268
988.353
988.437
988.517
988.598
988.679
988.758
988.837
988.916
988.996
989.073
989.148
989.224
989.3
989.373
989.446
989.519
989.592
989.666
989.737
989.806
989.875
989.944
990.009
990.076
990.142
990.207
990.272
990.335
990.397
990.461
990.527
990.59
990.65
990.712
990.773
990.831
990.887
990.942
990.998
991.055
991.111
991.166
991.222
991.276
991.33
991.383
991.434
991.487
991.539
991.589
991.639
991.69
991.739
991.788
991.837
991.886
991.934
991.98
992.025
992.071
992.118
992.162
992.205
992.249
992.293
992.338
992.38
992.423
992.465
992.505
992.545
992.584
992.623
992.662
992.7
992.739
992.779
992.817
992.853
992.89
992.926
992.963
992.998
993.033
993.068
993.104
993.139
993.174
993.208
993.241
993.274
993.308
993.34
993.372
993.403
993.435
993.466
993.497
993.528
993.559
993.589
993.618
993.647
993.675
993.703
993.73
993.758
993.785
993.812
993.839
993.866
993.893
993.919
993.945
993.971
993.996
994.02
994.045
994.069
994.093
994.118
994.142
994.165
994.187
994.21
994.232
994.255
994.278
994.301
994.323
994.344
994.366
994.388
994.409
994.43
994.45
994.469
994.488
994.508
994.527
994.546
994.565
994.584
994.602
994.62
994.638
994.656
994.674
994.691
994.708
994.725
994.743
994.761
994.778
994.795
994.811
994.827
994.843
994.858
994.874
994.889
994.904
994.919
994.934
994.95
994.965
994.981
994.995
995.009
995.023
995.036
995.05
995.063
995.077
995.09
995.102
995.115
995.128
995.141
995.153
995.165
995.178
995.189
995.201
995.213
995.225
995.236
995.247
995.258
995.269
995.28
995.291
995.302
995.312
995.322
995.332
995.343
995.353
995.363
995.373
995.383
995.393
995.402
995.411
995.42
995.429
995.438
995.447
995.455
995.464
995.473
995.482
995.491
995.499
995.508
995.516
995.524
995.532
995.539
995.547
995.555
995.562
995.57
995.577
995.584
995.592
995.599
995.606
995.613
995.62
995.627
995.634
995.641
995.648
995.654
995.66
995.667
995.673
995.679
995.684
995.69
995.696
995.702
995.708
995.713
995.719
995.725
995.73
995.735
995.741
995.746
995.751
995.756
995.761
995.766
995.771
995.776
995.781
995.786
995.791
995.795
995.8
995.804
995.809
995.813
995.818
995.822
995.826
995.831
995.835
995.838
995.842
995.846
995.85
995.853
995.857
995.861
995.865
995.868
995.872
995.875
995.878
995.882
995.885
995.888
995.891
995.895
995.898
995.901
995.904
995.907
995.91
995.912
995.915
995.918
995.921
995.923
995.926
995.929
995.931
995.934
995.936
995.939
995.941
995.943
995.945
995.947
995.95
995.952
995.954
995.956
995.958
995.96
995.962
995.964
995.965
995.967
995.969
995.971
995.972
995.974
995.976
995.977
995.979
995.98
995.982
995.983
995.984
995.986
995.987
995.988
995.99
995.991
995.992
995.993
995.994
995.995
995.996
995.997
995.998
995.999
996
996.001
996.001
996.002
996.003
996.004
996.004
996.005
996.006
996.006
996.007
996.007
996.008
996.008
996.008
996.009
996.009
996.009
996.01
996.01
996.01
996.01
996.01
996.01
996.01
996.01
985.035
985.15
985.264
985.379
985.495
985.609
985.722
985.834
985.945
986.052
986.158
986.261
986.367
986.475
986.579
986.68
986.78
986.884
986.983
987.079
987.177
987.274
987.369
987.462
987.554
987.645
987.738
987.829
987.916
988.005
988.095
988.182
988.267
988.353
988.437
988.518
988.599
988.678
988.757
988.837
988.916
988.994
989.072
989.148
989.224
989.299
989.373
989.446
989.52
989.594
989.665
989.736
989.806
989.875
989.943
990.009
990.075
990.141
990.205
990.27
990.335
990.398
990.462
990.527
990.59
990.651
990.713
990.773
990.831
990.887
990.942
990.999
991.057
991.112
991.166
991.221
991.276
991.329
991.381
991.434
991.486
991.538
991.589
991.64
991.69
991.739
991.787
991.837
991.887
991.934
991.98
992.025
992.071
992.116
992.161
992.206
992.249
992.293
992.337
992.381
992.424
992.465
992.505
992.546
992.584
992.623
992.662
992.7
992.739
992.779
992.816
992.854
992.89
992.926
992.962
992.998
993.033
993.069
993.105
993.139
993.174
993.208
993.24
993.274
993.308
993.341
993.371
993.403
993.435
993.467
993.497
993.528
993.558
993.589
993.619
993.647
993.676
993.704
993.731
993.757
993.785
993.812
993.839
993.866
993.893
993.919
993.945
993.97
993.995
994.02
994.045
994.069
994.093
994.118
994.142
994.165
994.188
994.21
994.233
994.255
994.278
994.301
994.323
994.344
994.366
994.388
994.409
994.429
994.449
994.469
994.488
994.507
994.527
994.546
994.565
994.583
994.602
994.62
994.638
994.656
994.673
994.691
994.708
994.726
994.745
994.762
994.779
994.795
994.811
994.827
994.843
994.858
994.873
994.889
994.904
994.92
994.935
994.95
994.965
994.98
994.995
995.009
995.023
995.036
995.05
995.063
995.076
995.09
995.103
995.116
995.128
995.141
995.153
995.165
995.177
995.189
995.201
995.213
995.224
995.236
995.247
995.258
995.269
995.28
995.291
995.302
995.312
995.322
995.332
995.343
995.353
995.363
995.373
995.383
995.393
995.402
995.411
995.42
995.429
995.438
995.447
995.455
995.464
995.473
995.482
995.491
995.499
995.507
995.516
995.524
995.532
995.539
995.547
995.555
995.562
995.57
995.577
995.584
995.592
995.599
995.606
995.613
995.62
995.627
995.634
995.641
995.648
995.654
995.66
995.667
995.673
995.678
995.684
995.69
995.696
995.702
995.708
995.713
995.719
995.725
995.73
995.735
995.741
995.746
995.751
995.756
995.761
995.766
995.771
995.776
995.781
995.786
995.791
995.796
995.8
995.805
995.809
995.813
995.818
995.822
995.826
995.831
995.835
995.838
995.842
995.846
995.85
995.853
995.857
995.861
995.865
995.868
995.872
995.875
995.879
995.882
995.885
995.888
995.891
995.895
995.898
995.901
995.904
995.907
995.909
995.912
995.915
995.918
995.921
995.923
995.926
995.929
995.931
995.934
995.936
995.939
995.941
995.943
995.945
995.947
995.95
995.952
995.954
995.956
995.958
995.96
995.962
995.964
995.965
995.967
995.969
995.971
995.972
995.974
995.976
995.977
995.979
995.98
995.982
995.983
995.984
995.986
995.987
995.988
995.99
995.991
995.992
995.993
995.994
995.995
995.996
995.997
995.998
995.999
996
996.001
996.001
996.002
996.003
996.004
996.004
996.005
996.006
996.006
996.007
996.007
996.008
996.008
996.008
996.009
996.009
996.009
996.01
996.01
996.01
996.01
996.01
996.01
996.01
996.01
985.036
985.151
985.264
985.381
985.494
985.609
985.723
985.834
985.943
986.049
986.157
986.264
986.37
986.477
986.58
986.679
986.782
986.884
986.982
987.078
987.176
987.273
987.368
987.463
987.555
987.646
987.739
987.829
987.917
988.006
988.095
988.181
988.267
988.353
988.438
988.518
988.598
988.676
988.755
988.837
988.917
988.995
989.071
989.148
989.224
989.299
989.374
989.448
989.52
989.594
989.666
989.734
989.804
989.875
989.942
990.009
990.075
990.14
990.205
990.27
990.335
990.398
990.462
990.526
990.59
990.653
990.714
990.774
990.832
990.888
990.943
991
991.056
991.112
991.167
991.222
991.277
991.329
991.381
991.433
991.486
991.538
991.589
991.64
991.69
991.739
991.787
991.837
991.886
991.934
991.98
992.025
992.071
992.116
992.16
992.205
992.249
992.293
992.337
992.381
992.424
992.465
992.506
992.545
992.584
992.623
992.662
992.7
992.739
992.777
992.815
992.853
992.89
992.926
992.962
992.998
993.034
993.07
993.105
993.139
993.174
993.208
993.241
993.274
993.308
993.34
993.372
993.403
993.435
993.465
993.496
993.527
993.558
993.59
993.619
993.648
993.676
993.703
993.73
993.757
993.785
993.813
993.84
993.866
993.892
993.918
993.944
993.97
993.995
994.02
994.045
994.069
994.093
994.118
994.141
994.165
994.188
994.211
994.233
994.255
994.278
994.3
994.323
994.345
994.367
994.388
994.409
994.429
994.449
994.469
994.488
994.508
994.527
994.546
994.565
994.583
994.602
994.62
994.638
994.655
994.673
994.691
994.709
994.728
994.745
994.763
994.779
994.795
994.811
994.827
994.843
994.858
994.874
994.889
994.904
994.92
994.935
994.95
994.965
994.98
994.995
995.009
995.022
995.036
995.049
995.063
995.076
995.089
995.103
995.116
995.128
995.141
995.153
995.165
995.177
995.189
995.201
995.213
995.224
995.236
995.247
995.258
995.269
995.28
995.291
995.301
995.312
995.322
995.332
995.343
995.353
995.363
995.373
995.383
995.393
995.402
995.411
995.42
995.429
995.438
995.447
995.456
995.464
995.473
995.482
995.491
995.499
995.507
995.516
995.524
995.531
995.539
995.547
995.555
995.562
995.57
995.577
995.584
995.591
995.599
995.606
995.613
995.62
995.627
995.634
995.641
995.647
995.654
995.66
995.667
995.672
995.678
995.684
995.69
995.696
995.702
995.708
995.713
995.719
995.725
995.73
995.735
995.741
995.746
995.751
995.756
995.762
995.767
995.771
995.776
995.781
995.786
995.791
995.795
995.8
995.804
995.809
995.813
995.818
995.822
995.826
995.831
995.835
995.838
995.842
995.846
995.85
995.853
995.857
995.861
995.865
995.868
995.872
995.875
995.878
995.882
995.885
995.888
995.891
995.895
995.898
995.901
995.904
995.907
995.91
995.912
995.915
995.918
995.921
995.923
995.926
995.929
995.931
995.934
995.936
995.939
995.941
995.943
995.945
995.947
995.95
995.952
995.954
995.956
995.958
995.96
995.962
995.964
995.965
995.967
995.969
995.971
995.972
995.974
995.976
995.977
995.979
995.98
995.982
995.983
995.984
995.986
995.987
995.988
995.99
995.991
995.992
995.993
995.994
995.995
995.996
995.997
995.998
995.999
996
996.001
996.001
996.002
996.003
996.004
996.004
996.005
996.006
996.006
996.007
996.007
996.008
996.008
996.008
996.009
996.009
996.009
996.01
996.01
996.01
996.01
996.01
996.01
996.01
996.01
985.037
985.154
985.266
985.379
985.494
985.609
985.721
985.833
985.942
986.049
986.156
986.264
986.37
986.475
986.579
986.682
986.782
986.883
986.981
987.077
987.174
987.273
987.371
987.463
987.556
987.649
987.739
987.828
987.918
988.007
988.093
988.181
988.269
988.353
988.436
988.517
988.598
988.677
988.754
988.835
988.917
988.995
989.071
989.148
989.225
989.299
989.374
989.448
989.522
989.595
989.666
989.734
989.804
989.874
989.942
990.008
990.075
990.14
990.205
990.27
990.335
990.398
990.462
990.526
990.59
990.654
990.715
990.774
990.832
990.888
990.943
990.999
991.055
991.112
991.167
991.223
991.277
991.329
991.381
991.433
991.486
991.537
991.588
991.64
991.69
991.739
991.787
991.836
991.886
991.933
991.979
992.026
992.071
992.116
992.16
992.204
992.249
992.293
992.338
992.382
992.424
992.465
992.506
992.545
992.584
992.623
992.662
992.701
992.739
992.777
992.814
992.852
992.889
992.926
992.963
992.998
993.034
993.07
993.105
993.14
993.174
993.208
993.241
993.275
993.308
993.34
993.372