/*--------------------------------*- C++ -*----------------------------------*\
  =========                 |
  \\      /  F ield         | OpenFOAM: The Open Source CFD Toolbox
   \\    /   O peration     | Website:  https://openfoam.org
    \\  /    A nd           | Version:  7
     \\/     M anipulation  |
\*---------------------------------------------------------------------------*/
FoamFile
{
    version     2.0;
    format      ascii;
    class       volScalarField;
    location    "1500";
    object      rho2;
}
// * * * * * * * * * * * * * * * * * * * * * * * * * * * * * * * * * * * * * //

dimensions      [1 -3 0 0 0 0 0];

internalField   nonuniform List<scalar> 
160000
(
1.07564
1.07633
1.07702
1.07772
1.07844
1.07915
1.07985
1.08053
1.0812
1.08189
1.0826
1.08329
1.08397
1.08467
1.08535
1.08601
1.08668
1.08735
1.08802
1.0887
1.08936
1.09002
1.09066
1.0913
1.09195
1.0926
1.09325
1.09389
1.09452
1.09514
1.09575
1.09636
1.09701
1.09766
1.09827
1.09888
1.09949
1.10009
1.10067
1.10125
1.10185
1.10247
1.10308
1.10366
1.10423
1.10482
1.1054
1.10596
1.10654
1.10713
1.1077
1.10828
1.10884
1.10939
1.10995
1.11049
1.11105
1.1116
1.11213
1.11265
1.1132
1.11376
1.11428
1.1148
1.1153
1.11582
1.11636
1.11689
1.1174
1.11788
1.11837
1.11888
1.11937
1.11986
1.12035
1.12084
1.12133
1.12181
1.12229
1.12277
1.12325
1.12374
1.12421
1.12468
1.12514
1.12561
1.12606
1.12651
1.12695
1.1274
1.12784
1.12828
1.12873
1.12918
1.12962
1.13004
1.13045
1.13088
1.1313
1.1317
1.13211
1.13252
1.13292
1.13333
1.13373
1.13412
1.13452
1.1349
1.1353
1.1357
1.13609
1.13647
1.13684
1.13722
1.13758
1.13795
1.13831
1.13867
1.13904
1.13941
1.13978
1.14013
1.14048
1.14083
1.14117
1.14153
1.14189
1.14223
1.14256
1.14289
1.14322
1.14354
1.14387
1.1442
1.14454
1.14486
1.14517
1.14548
1.14578
1.14608
1.14638
1.14669
1.147
1.14729
1.1476
1.1479
1.14819
1.14848
1.14876
1.14904
1.14932
1.14959
1.14986
1.15014
1.15041
1.15068
1.15094
1.15121
1.15148
1.15175
1.15201
1.15227
1.15252
1.15278
1.15303
1.15327
1.15353
1.15377
1.15401
1.15424
1.15448
1.15473
1.15496
1.15519
1.15543
1.15565
1.15586
1.15608
1.15631
1.15653
1.15674
1.15695
1.15716
1.15736
1.15756
1.15777
1.15797
1.15817
1.15837
1.15857
1.15878
1.15898
1.15917
1.15937
1.15957
1.15976
1.15994
1.16012
1.16032
1.16051
1.16071
1.16089
1.16106
1.16123
1.1614
1.16157
1.16175
1.16191
1.16207
1.16224
1.1624
1.16256
1.16272
1.16287
1.16303
1.16318
1.16333
1.16348
1.16363
1.16379
1.16393
1.16408
1.16422
1.16435
1.16449
1.16463
1.16477
1.1649
1.16504
1.16517
1.1653
1.16543
1.16556
1.16569
1.16582
1.16594
1.16607
1.16619
1.16631
1.16642
1.16654
1.16665
1.16677
1.16688
1.16699
1.16711
1.16722
1.16733
1.16745
1.16757
1.16768
1.16779
1.16789
1.16799
1.16809
1.16819
1.16829
1.16838
1.16848
1.16858
1.16868
1.16878
1.16887
1.16896
1.16905
1.16914
1.16923
1.16932
1.1694
1.16949
1.16958
1.16966
1.16974
1.16982
1.1699
1.16998
1.17005
1.17014
1.17022
1.17029
1.17037
1.17044
1.17051
1.17059
1.17066
1.17073
1.1708
1.17087
1.17093
1.171
1.17107
1.17113
1.17119
1.17126
1.17132
1.17139
1.17145
1.17151
1.17157
1.17163
1.17169
1.17174
1.1718
1.17186
1.17192
1.17197
1.17202
1.17208
1.17213
1.17218
1.17223
1.17227
1.17232
1.17237
1.17242
1.17247
1.17251
1.17256
1.1726
1.17264
1.17269
1.17273
1.17277
1.17281
1.17285
1.1729
1.17294
1.17298
1.17301
1.17305
1.17309
1.17312
1.17316
1.17319
1.17323
1.17326
1.17329
1.17332
1.17336
1.17339
1.17342
1.17345
1.17348
1.17351
1.17354
1.17356
1.17359
1.17362
1.17364
1.17367
1.17369
1.17372
1.17374
1.17376
1.17379
1.17381
1.17383
1.17385
1.17387
1.17389
1.17391
1.17393
1.17395
1.17397
1.17398
1.174
1.17402
1.17403
1.17405
1.17407
1.17408
1.17409
1.17411
1.17412
1.17413
1.17414
1.17415
1.17416
1.17417
1.17418
1.17419
1.1742
1.17421
1.17422
1.17423
1.17423
1.17424
1.17424
1.17425
1.17426
1.17426
1.17426
1.17427
1.17427
1.17427
1.17427
1.17428
1.17428
1.17428
1.17428
1.07565
1.07635
1.07703
1.07773
1.07843
1.07913
1.07983
1.08053
1.08121
1.0819
1.0826
1.08329
1.08397
1.08465
1.08534
1.08601
1.08667
1.08735
1.08804
1.08872
1.08938
1.09002
1.09067
1.09132
1.09196
1.09258
1.09323
1.09388
1.09451
1.09514
1.09576
1.09638
1.09702
1.09766
1.09827
1.09888
1.0995
1.10008
1.10065
1.10125
1.10187
1.10247
1.10307
1.10366
1.10423
1.10482
1.1054
1.10596
1.10653
1.10713
1.10772
1.10828
1.10883
1.1094
1.10995
1.11048
1.11104
1.11159
1.11213
1.11266
1.1132
1.11374
1.11428
1.1148
1.11531
1.11584
1.11636
1.11687
1.11739
1.11788
1.11839
1.11889
1.11938
1.11986
1.12035
1.12084
1.12133
1.12181
1.12229
1.12277
1.12325
1.12373
1.12421
1.12467
1.12513
1.12561
1.12607
1.12651
1.12695
1.1274
1.12785
1.12829
1.12873
1.12918
1.12961
1.13003
1.13045
1.13087
1.13129
1.1317
1.13211
1.13253
1.13292
1.13332
1.13373
1.13412
1.13451
1.13491
1.13531
1.1357
1.13609
1.13647
1.13684
1.13721
1.13758
1.13794
1.13831
1.13867
1.13904
1.13941
1.13978
1.14013
1.14048
1.14083
1.14118
1.14153
1.14188
1.14222
1.14256
1.14289
1.14322
1.14354
1.14387
1.14421
1.14454
1.14485
1.14517
1.14548
1.14578
1.14608
1.14638
1.14669
1.14699
1.14729
1.1476
1.1479
1.14819
1.14848
1.14876
1.14904
1.14932
1.1496
1.14986
1.15014
1.15041
1.15068
1.15095
1.15122
1.15148
1.15174
1.15201
1.15227
1.15252
1.15278
1.15303
1.15327
1.15352
1.15377
1.15401
1.15425
1.15449
1.15473
1.15496
1.15519
1.15542
1.15564
1.15587
1.15609
1.15631
1.15653
1.15674
1.15695
1.15716
1.15736
1.15756
1.15777
1.15797
1.15817
1.15837
1.15857
1.15878
1.15898
1.15918
1.15937
1.15957
1.15975
1.15994
1.16013
1.16033
1.16052
1.16071
1.16089
1.16106
1.16123
1.1614
1.16158
1.16175
1.16191
1.16207
1.16224
1.1624
1.16256
1.16272
1.16288
1.16303
1.16318
1.16333
1.16348
1.16364
1.16379
1.16393
1.16407
1.16421
1.16435
1.16449
1.16463
1.16477
1.1649
1.16504
1.16517
1.1653
1.16543
1.16556
1.16569
1.16582
1.16594
1.16607
1.16619
1.16631
1.16642
1.16654
1.16665
1.16677
1.16688
1.16699
1.16711
1.16722
1.16734
1.16745
1.16757
1.16768
1.16779
1.16789
1.16799
1.16809
1.16819
1.16829
1.16838
1.16848
1.16858
1.16868
1.16877
1.16886
1.16896
1.16905
1.16914
1.16923
1.16932
1.1694
1.16949
1.16958
1.16966
1.16974
1.16982
1.1699
1.16998
1.17006
1.17014
1.17022
1.17029
1.17036
1.17044
1.17051
1.17059
1.17066
1.17073
1.1708
1.17087
1.17093
1.171
1.17107
1.17113
1.17119
1.17126
1.17132
1.17139
1.17145
1.17151
1.17157
1.17163
1.17169
1.17175
1.17181
1.17186
1.17192
1.17197
1.17202
1.17207
1.17213
1.17218
1.17223
1.17227
1.17232
1.17237
1.17242
1.17247
1.17251
1.17256
1.1726
1.17264
1.17269
1.17273
1.17277
1.17281
1.17286
1.1729
1.17293
1.17297
1.17301
1.17305
1.17309
1.17312
1.17316
1.17319
1.17323
1.17326
1.17329
1.17333
1.17336
1.17339
1.17342
1.17345
1.17348
1.17351
1.17354
1.17356
1.17359
1.17362
1.17364
1.17367
1.17369
1.17372
1.17374
1.17376
1.17379
1.17381
1.17383
1.17385
1.17387
1.17389
1.17391
1.17393
1.17395
1.17397
1.17398
1.174
1.17402
1.17403
1.17405
1.17406
1.17408
1.17409
1.17411
1.17412
1.17413
1.17414
1.17415
1.17416
1.17417
1.17418
1.17419
1.1742
1.17421
1.17422
1.17423
1.17423
1.17424
1.17424
1.17425
1.17426
1.17426
1.17426
1.17427
1.17427
1.17427
1.17428
1.17428
1.17428
1.17428
1.17428
1.07564
1.07634
1.07704
1.07773
1.07844
1.07914
1.07983
1.08053
1.08122
1.0819
1.0826
1.0833
1.08396
1.08463
1.08533
1.086
1.08667
1.08737
1.08805
1.08872
1.08938
1.09003
1.09068
1.09132
1.09196
1.09259
1.09322
1.09386
1.09451
1.09515
1.09576
1.09638
1.09702
1.09766
1.09828
1.09888
1.09949
1.10008
1.10066
1.10125
1.10186
1.10247
1.10306
1.10364
1.10423
1.10483
1.1054
1.10596
1.10653
1.10713
1.10772
1.10829
1.10884
1.10939
1.10994
1.11048
1.11103
1.11158
1.11213
1.11268
1.1132
1.11373
1.11427
1.1148
1.11531
1.11585
1.11638
1.11689
1.11739
1.11789
1.11838
1.11887
1.11938
1.11986
1.12034
1.12084
1.12133
1.12181
1.1223
1.12278
1.12325
1.12373
1.12421
1.12467
1.12513
1.12559
1.12605
1.12651
1.12696
1.1274
1.12785
1.1283
1.12874
1.12918
1.12961
1.13002
1.13044
1.13087
1.13129
1.13171
1.13212
1.13253
1.13293
1.13332
1.13373
1.13413
1.13452
1.13491
1.1353
1.1357
1.13609
1.13646
1.13684
1.13721
1.13757
1.13794
1.1383
1.13867
1.13905
1.13942
1.13978
1.14013
1.14048
1.14083
1.14118
1.14153
1.14188
1.14222
1.14256
1.14289
1.14321
1.14354
1.14388
1.14422
1.14454
1.14485
1.14516
1.14547
1.14578
1.14608
1.14638
1.14669
1.147
1.1473
1.1476
1.1479
1.14819
1.14848
1.14876
1.14904
1.14932
1.14959
1.14986
1.15013
1.15042
1.15069
1.15095
1.15122
1.15148
1.15175
1.152
1.15226
1.15252
1.15278
1.15303
1.15328
1.15353
1.15377
1.15401
1.15425
1.15449
1.15473
1.15496
1.15519
1.15542
1.15564
1.15586
1.15609
1.15631
1.15652
1.15674
1.15695
1.15715
1.15736
1.15756
1.15776
1.15797
1.15817
1.15837
1.15858
1.15879
1.15899
1.15918
1.15937
1.15957
1.15975
1.15994
1.16013
1.16033
1.16052
1.1607
1.16088
1.16106
1.16123
1.1614
1.16157
1.16174
1.16191
1.16207
1.16224
1.1624
1.16256
1.16272
1.16288
1.16303
1.16318
1.16333
1.16348
1.16364
1.16378
1.16393
1.16407
1.16421
1.16435
1.16449
1.16463
1.16477
1.1649
1.16504
1.16517
1.1653
1.16543
1.16556
1.16569
1.16582
1.16595
1.16607
1.16619
1.1663
1.16642
1.16654
1.16665
1.16677
1.16688
1.16699
1.16711
1.16722
1.16735
1.16746
1.16757
1.16768
1.16778
1.16789
1.16799
1.16809
1.16819
1.16829
1.16838
1.16848
1.16858
1.16868
1.16877
1.16886
1.16896
1.16905
1.16914
1.16923
1.16932
1.16941
1.16949
1.16958
1.16966
1.16974
1.16982
1.1699
1.16998
1.17006
1.17014
1.17021
1.17029
1.17036
1.17044
1.17051
1.17059
1.17066
1.17073
1.1708
1.17087
1.17093
1.171
1.17107
1.17113
1.17119
1.17126
1.17132
1.17139
1.17145
1.17151
1.17157
1.17163
1.17169
1.17175
1.17181
1.17186
1.17192
1.17197
1.17202
1.17207
1.17212
1.17217
1.17223
1.17227
1.17232
1.17237
1.17242
1.17247
1.17251
1.17256
1.1726
1.17264
1.17269
1.17273
1.17277
1.17281
1.17286
1.1729
1.17294
1.17297
1.17301
1.17305
1.17309
1.17312
1.17316
1.17319
1.17323
1.17326
1.17329
1.17333
1.17336
1.17339
1.17342
1.17345
1.17348
1.17351
1.17354
1.17356
1.17359
1.17362
1.17364
1.17367
1.17369
1.17372
1.17374
1.17376
1.17379
1.17381
1.17383
1.17385
1.17387
1.17389
1.17391
1.17393
1.17395
1.17397
1.17398
1.174
1.17402
1.17404
1.17405
1.17406
1.17408
1.17409
1.17411
1.17412
1.17413
1.17414
1.17415
1.17416
1.17417
1.17418
1.17419
1.1742
1.17421
1.17422
1.17423
1.17423
1.17424
1.17424
1.17425
1.17426
1.17426
1.17426
1.17427
1.17427
1.17427
1.17428
1.17428
1.17428
1.17428
1.17428
1.07564
1.07634
1.07704
1.07774
1.07845
1.07915
1.07984
1.08053
1.08123
1.08192
1.08261
1.08328
1.08395
1.08463
1.08532
1.086
1.08668
1.08737
1.08804
1.08872
1.08938
1.09004
1.09069
1.09131
1.09197
1.0926
1.09322
1.09386
1.09452
1.09515
1.09576
1.09639
1.09701
1.09765
1.09828
1.09888
1.09949
1.10007
1.10065
1.10125
1.10187
1.10247
1.10306
1.10364
1.10423
1.10482
1.1054
1.10596
1.10654
1.10712
1.10771
1.10829
1.10884
1.10938
1.10994
1.11049
1.11103
1.11158
1.11212
1.11266
1.1132
1.11373
1.11427
1.1148
1.11532
1.11585
1.11638
1.11689
1.11739
1.1179
1.11839
1.11887
1.11936
1.11985
1.12035
1.12085
1.12134
1.12182
1.12231
1.12278
1.12325
1.12373
1.1242
1.12466
1.12512
1.12559
1.12605
1.12651
1.12696
1.12741
1.12786
1.1283
1.12874
1.12917
1.12959
1.13002
1.13045
1.13086
1.13128
1.1317
1.13213
1.13253
1.13293
1.13333
1.13372
1.13413
1.13452
1.13492
1.1353
1.1357
1.13608
1.13646
1.13684
1.13721
1.13758
1.13794
1.1383
1.13867
1.13905
1.13942
1.13977
1.14013
1.14048
1.14083
1.14118
1.14153
1.14188
1.14222
1.14255
1.14288
1.14321
1.14355
1.14389
1.14422
1.14454
1.14486
1.14516
1.14547
1.14577
1.14608
1.14639
1.14669
1.14699
1.14729
1.1476
1.1479
1.14819
1.14848
1.14875
1.14903
1.14932
1.14959
1.14987
1.15014
1.15041
1.15068
1.15095
1.15122
1.15148
1.15174
1.152
1.15226
1.15252
1.15278
1.15303
1.15328
1.15353
1.15377
1.15401
1.15426
1.15449
1.15473
1.15496
1.15519
1.15542
1.15564
1.15587
1.15609
1.1563
1.15652
1.15674
1.15695
1.15715
1.15735
1.15756
1.15776
1.15797
1.15817
1.15839
1.15859
1.15879
1.15899
1.15918
1.15938
1.15957
1.15976
1.15994
1.16013
1.16033
1.16052
1.1607
1.16088
1.16105
1.16123
1.1614
1.16157
1.16174
1.1619
1.16207
1.16224
1.16239
1.16256
1.16272
1.16288
1.16303
1.16318
1.16333
1.16348
1.16363
1.16378
1.16393
1.16407
1.16421
1.16435
1.16449
1.16463
1.16477
1.1649
1.16504
1.16517
1.1653
1.16543
1.16556
1.16569
1.16582
1.16594
1.16607
1.16619
1.1663
1.16642
1.16654
1.16665
1.16677
1.16688
1.167
1.16711
1.16723
1.16735
1.16746
1.16757
1.16768
1.16778
1.16789
1.16799
1.16809
1.16819
1.16828
1.16838
1.16848
1.16858
1.16867
1.16877
1.16886
1.16895
1.16905
1.16914
1.16923
1.16932
1.16941
1.16949
1.16958
1.16966
1.16974
1.16982
1.1699
1.16998
1.17006
1.17014
1.17021
1.17029
1.17037
1.17044
1.17051
1.17058
1.17066
1.17073
1.1708
1.17087
1.17093
1.171
1.17107
1.17113
1.17119
1.17126
1.17132
1.17139
1.17145
1.17151
1.17157
1.17163
1.17169
1.17175
1.17181
1.17186
1.17192
1.17197
1.17202
1.17207
1.17212
1.17217
1.17223
1.17227
1.17232
1.17237
1.17242
1.17247
1.17251
1.17256
1.1726
1.17264
1.17269
1.17273
1.17277
1.17281
1.17286
1.1729
1.17293
1.17297
1.17301
1.17305
1.17309
1.17312
1.17316
1.17319
1.17323
1.17326
1.17329
1.17333
1.17336
1.17339
1.17342
1.17345
1.17348
1.17351
1.17354
1.17356
1.17359
1.17362
1.17364
1.17367
1.17369
1.17372
1.17374
1.17376
1.17379
1.17381
1.17383
1.17385
1.17387
1.17389
1.17391
1.17393
1.17395
1.17397
1.17398
1.174
1.17402
1.17404
1.17405
1.17406
1.17408
1.17409
1.17411
1.17412
1.17413
1.17414
1.17415
1.17416
1.17417
1.17418
1.17419
1.1742
1.17421
1.17422
1.17423
1.17423
1.17424
1.17424
1.17425
1.17426
1.17426
1.17426
1.17427
1.17427
1.17427
1.17428
1.17428
1.17428
1.17428
1.17428
1.07564
1.07633
1.07703
1.07775
1.07845
1.07916
1.07985
1.08054
1.08124
1.08192
1.08261
1.08326
1.08393
1.08465
1.08535
1.08601
1.08668
1.08735
1.08803
1.08872
1.08939
1.09004
1.09069
1.09132
1.09196
1.09259
1.09321
1.09385
1.0945
1.09514
1.09578
1.0964
1.09701
1.09765
1.09829
1.09889
1.09947
1.10006
1.10066
1.10127
1.10187
1.10247
1.10307
1.10365
1.10423
1.10481
1.10538
1.10595
1.10654
1.10713
1.10771
1.10828
1.10884
1.10939
1.10994
1.11049
1.11104
1.11158
1.11213
1.11266
1.11319
1.11372
1.11426
1.11479
1.11531
1.11584
1.11639
1.1169
1.1174
1.1179
1.11839
1.11887
1.11936
1.11985
1.12035
1.12085
1.12134
1.12182
1.1223
1.12279
1.12327
1.12373
1.1242
1.12466
1.12511
1.12559
1.12605
1.12651
1.12696
1.12741
1.12786
1.12829
1.12873
1.12917
1.12959
1.13001
1.13044
1.13087
1.13128
1.1317
1.13213
1.13255
1.13294
1.13333
1.13373
1.13412
1.13452
1.13491
1.1353
1.13569
1.13608
1.13645
1.13682
1.13721
1.13759
1.13795
1.1383
1.13867
1.13905
1.13941
1.13977
1.14013
1.14048
1.14083
1.14118
1.14154
1.14188
1.14222
1.14255
1.14288
1.14321
1.14355
1.14389
1.14423
1.14455
1.14486
1.14517
1.14547
1.14577
1.14608
1.14638
1.14669
1.14699
1.1473
1.14759
1.14789
1.14819
1.14847
1.14875
1.14904
1.14931
1.14959
1.14986
1.15014
1.15042
1.15069
1.15096
1.15122
1.15148
1.15173
1.152
1.15226
1.15253
1.15279
1.15303
1.15328
1.15353
1.15379
1.15402
1.15426
1.15449
1.15472
1.15495
1.15518
1.15541
1.15564
1.15586
1.15608
1.1563
1.15651
1.15673
1.15694
1.15715
1.15736
1.15756
1.15776
1.15798
1.15819
1.1584
1.1586
1.1588
1.15899
1.15919
1.15938
1.15957
1.15975
1.15994
1.16013
1.16033
1.16052
1.1607
1.16088
1.16106
1.16123
1.1614
1.16157
1.16174
1.1619
1.16207
1.16223
1.16239
1.16256
1.16272
1.16288
1.16303
1.16318
1.16333
1.16348
1.16363
1.16378
1.16393
1.16407
1.16421
1.16435
1.1645
1.16463
1.16477
1.1649
1.16504
1.16517
1.1653
1.16543
1.16556
1.16569
1.16582
1.16595
1.16607
1.16619
1.1663
1.16642
1.16654
1.16665
1.16677
1.16688
1.167
1.16712
1.16724
1.16735
1.16746
1.16757
1.16768
1.16778
1.16788
1.16799
1.16809
1.16819
1.16828
1.16838
1.16848
1.16858
1.16867
1.16877
1.16886
1.16895
1.16905
1.16914
1.16923
1.16932
1.16941
1.1695
1.16958
1.16966
1.16974
1.16982
1.1699
1.16998
1.17006
1.17014
1.17022
1.17029
1.17036
1.17044
1.17051
1.17058
1.17066
1.17073
1.1708
1.17087
1.17093
1.171
1.17106
1.17113
1.17119
1.17126
1.17132
1.17139
1.17145
1.17151
1.17157
1.17163
1.17169
1.17175
1.17181
1.17186
1.17192
1.17197
1.17202
1.17207
1.17212
1.17217
1.17222
1.17227
1.17232
1.17237
1.17242
1.17247
1.17251
1.17256
1.1726
1.17264
1.17269
1.17273
1.17277
1.17282
1.17285
1.17289
1.17293
1.17297
1.17301
1.17305
1.17309
1.17312
1.17316
1.1732
1.17323
1.17326
1.17329
1.17333
1.17336
1.17339
1.17342
1.17345
1.17348
1.17351
1.17354
1.17356
1.17359
1.17362
1.17364
1.17367
1.17369
1.17372
1.17374
1.17376
1.17379
1.17381
1.17383
1.17385
1.17387
1.17389
1.17391
1.17393
1.17395
1.17397
1.17398
1.174
1.17402
1.17404
1.17405
1.17406
1.17408
1.17409
1.17411
1.17412
1.17413
1.17414
1.17415
1.17416
1.17417
1.17418
1.17419
1.1742
1.17421
1.17422
1.17423
1.17423
1.17424
1.17424
1.17425
1.17426
1.17426
1.17426
1.17427
1.17427
1.17427
1.17428
1.17428
1.17428
1.17428
1.17428
1.07563
1.07631
1.07702
1.07774
1.07845
1.07916
1.07986
1.08056
1.08124
1.08191
1.0826
1.08326
1.08394
1.08465
1.08534
1.08602
1.0867
1.08736
1.08802
1.08869
1.08937
1.09004
1.0907
1.09132
1.09195
1.0926
1.09322
1.09385
1.09448
1.09512
1.09578
1.09641
1.09703
1.09766
1.09829
1.09889
1.09947
1.10006
1.10066
1.10127
1.10187
1.10247
1.10306
1.10364
1.10422
1.10481
1.10538
1.10596
1.10653
1.10712
1.10772
1.10828
1.10883
1.1094
1.10995
1.11049
1.11104
1.11158
1.11212
1.11266
1.11319
1.11371
1.11425
1.11479
1.11531
1.11585
1.11639
1.11691
1.1174
1.1179
1.11839
1.11887
1.11937
1.11987
1.12035
1.12085
1.12135
1.12183
1.12231
1.12278
1.12326
1.12373
1.1242
1.12465
1.12512
1.12558
1.12604
1.1265
1.12696
1.12742
1.12785
1.12828
1.12873
1.12917
1.12959
1.13002
1.13044
1.13086
1.13129
1.13171
1.13213
1.13254
1.13294
1.13334
1.13374
1.13413
1.13451
1.1349
1.1353
1.13569
1.13608
1.13645
1.13682
1.1372
1.13758
1.13795
1.13831
1.13867
1.13904
1.13941
1.13977
1.14013
1.14048
1.14083
1.14119
1.14154
1.14188
1.14222
1.14255
1.14288
1.14322
1.14356
1.1439
1.14423
1.14455
1.14486
1.14517
1.14547
1.14577
1.14608
1.14638
1.14668
1.14699
1.14729
1.1476
1.14789
1.14818
1.14847
1.14876
1.14904
1.14931
1.14959
1.14987
1.15015
1.15042
1.15069
1.15095
1.15122
1.15147
1.15173
1.152
1.15226
1.15253
1.15278
1.15304
1.15329
1.15354
1.15379
1.15403
1.15426
1.15449
1.15472
1.15495
1.15518
1.15541
1.15564
1.15586
1.15608
1.15629
1.15651
1.15673
1.15694
1.15715
1.15735
1.15756
1.15778
1.15799
1.1582
1.15841
1.1586
1.1588
1.15899
1.15919
1.15938
1.15957
1.15975
1.15994
1.16013
1.16033
1.16052
1.1607
1.16088
1.16106
1.16123
1.1614
1.16157
1.16173
1.1619
1.16207
1.16223
1.16239
1.16256
1.16271
1.16287
1.16303
1.16318
1.16333
1.16348
1.16364
1.16378
1.16393
1.16407
1.16421
1.16435
1.16449
1.16463
1.16477
1.1649
1.16504
1.16517
1.1653
1.16543
1.16556
1.1657
1.16583
1.16595
1.16607
1.16618
1.1663
1.16642
1.16654
1.16665
1.16677
1.16689
1.167
1.16712
1.16724
1.16735
1.16746
1.16757
1.16767
1.16778
1.16788
1.16798
1.16809
1.16819
1.16828
1.16838
1.16848
1.16858
1.16867
1.16877
1.16886
1.16895
1.16905
1.16914
1.16924
1.16933
1.16941
1.1695
1.16958
1.16966
1.16974
1.16982
1.1699
1.16998
1.17006
1.17014
1.17021
1.17029
1.17036
1.17044
1.17051
1.17058
1.17066
1.17073
1.1708
1.17086
1.17093
1.171
1.17106
1.17113
1.1712
1.17126
1.17133
1.17139
1.17145
1.17151
1.17157
1.17163
1.17169
1.17175
1.17181
1.17186
1.17191
1.17197
1.17202
1.17207
1.17212
1.17217
1.17222
1.17227
1.17233
1.17237
1.17242
1.17247
1.17251
1.17256
1.1726
1.17264
1.17269
1.17273
1.17277
1.17281
1.17285
1.17289
1.17293
1.17297
1.17301
1.17305
1.17309
1.17312
1.17316
1.1732
1.17323
1.17326
1.1733
1.17333
1.17336
1.17339
1.17342
1.17345
1.17348
1.17351
1.17354
1.17356
1.17359
1.17362
1.17364
1.17367
1.17369
1.17372
1.17374
1.17376
1.17379
1.17381
1.17383
1.17385
1.17387
1.17389
1.17391
1.17393
1.17395
1.17397
1.17398
1.174
1.17402
1.17404
1.17405
1.17407
1.17408
1.17409
1.17411
1.17412
1.17413
1.17414
1.17415
1.17416
1.17417
1.17418
1.17419
1.1742
1.17421
1.17422
1.17423
1.17423
1.17424
1.17424
1.17425
1.17426
1.17426
1.17426
1.17427
1.17427
1.17427
1.17428
1.17428
1.17428
1.17428
1.17428
1.07563
1.07632
1.07702
1.07773
1.07843
1.07915
1.07987
1.08057
1.08125
1.08192
1.0826
1.08326
1.08396
1.08466
1.08535
1.08602
1.08669
1.08736
1.08802
1.08868
1.08936
1.09004
1.09068
1.09131
1.09195
1.0926
1.09323
1.09387
1.09449
1.09513
1.09578
1.09642
1.09704
1.09766
1.09828
1.09887
1.09947
1.10007
1.10067
1.10126
1.10186
1.10247
1.10306
1.10364
1.10423
1.10482
1.10539
1.10596
1.10654
1.10712
1.10771
1.10828
1.10883
1.1094
1.10995
1.11049
1.11103
1.11158
1.11212
1.11265
1.11318
1.11371
1.11425
1.11481
1.11534
1.11585
1.11639
1.11692
1.11742
1.1179
1.11838
1.11888
1.11938
1.11987
1.12036
1.12086
1.12135
1.12183
1.12231
1.12278
1.12326
1.12373
1.12419
1.12465
1.12512
1.12558
1.12604
1.1265
1.12696
1.12741
1.12785
1.12828
1.12872
1.12916
1.12959
1.13001
1.13043
1.13086
1.1313
1.13171
1.13213
1.13255
1.13295
1.13335
1.13373
1.13412
1.13452
1.1349
1.13529
1.1357
1.13608
1.13645
1.13682
1.1372
1.13758
1.13794
1.1383
1.13867
1.13904
1.13941
1.13977
1.14013
1.14048
1.14083
1.14119
1.14154
1.14187
1.14221
1.14255
1.14289
1.14322
1.14356
1.14389
1.14422
1.14454
1.14486
1.14517
1.14548
1.14578
1.14608
1.14638
1.14668
1.14699
1.14729
1.14759
1.14789
1.14818
1.14847
1.14875
1.14903
1.14931
1.14959
1.14987
1.15015
1.15042
1.15069
1.15095
1.15121
1.15147
1.15174
1.152
1.15227
1.15253
1.15278
1.15304
1.15329
1.15354
1.15379
1.15403
1.15426
1.15449
1.15472
1.15495
1.15518
1.15541
1.15563
1.15585
1.15607
1.15629
1.15651
1.15673
1.15694
1.15714
1.15735
1.15757
1.1578
1.15801
1.15821
1.15841
1.1586
1.1588
1.15899
1.15918
1.15938
1.15957
1.15975
1.15994
1.16013
1.16033
1.16052
1.1607
1.16088
1.16105
1.16122
1.1614
1.16156
1.16173
1.1619
1.16206
1.16223
1.1624
1.16255
1.16271
1.16287
1.16303
1.16318
1.16333
1.16348
1.16363
1.16378
1.16392
1.16407
1.16421
1.16435
1.16449
1.16463
1.16477
1.1649
1.16504
1.16517
1.1653
1.16543
1.16556
1.1657
1.16583
1.16595
1.16607
1.16619
1.16631
1.16642
1.16654
1.16665
1.16677
1.16689
1.16701
1.16713
1.16724
1.16735
1.16746
1.16757
1.16767
1.16778
1.16788
1.16798
1.16808
1.16818
1.16828
1.16838
1.16848
1.16858
1.16867
1.16877
1.16886
1.16895
1.16905
1.16914
1.16924
1.16933
1.16941
1.1695
1.16958
1.16966
1.16974
1.16982
1.1699
1.16998
1.17006
1.17014
1.17021
1.17029
1.17036
1.17044
1.17051
1.17058
1.17066
1.17073
1.1708
1.17086
1.17093
1.171
1.17106
1.17113
1.1712
1.17126
1.17133
1.17139
1.17145
1.17151
1.17157
1.17163
1.17169
1.17175
1.17181
1.17186
1.17191
1.17197
1.17202
1.17207
1.17212
1.17217
1.17223
1.17227
1.17232
1.17237
1.17242
1.17247
1.17251
1.17256
1.1726
1.17264
1.17269
1.17273
1.17277
1.17281
1.17285
1.17289
1.17293
1.17297
1.17301
1.17305
1.17309
1.17312
1.17316
1.1732
1.17323
1.17326
1.1733
1.17333
1.17336
1.17339
1.17342
1.17345
1.17348
1.17351
1.17354
1.17356
1.17359
1.17362
1.17364
1.17367
1.17369
1.17372
1.17374
1.17376
1.17379
1.17381
1.17383
1.17385
1.17387
1.17389
1.17391
1.17393
1.17395
1.17397
1.17398
1.174
1.17402
1.17404
1.17405
1.17407
1.17408
1.17409
1.17411
1.17412
1.17413
1.17414
1.17415
1.17416
1.17417
1.17418
1.17419
1.1742
1.17421
1.17422
1.17423
1.17423
1.17424
1.17424
1.17425
1.17426
1.17426
1.17426
1.17427
1.17427
1.17427
1.17428
1.17428
1.17428
1.17428
1.17428
1.07563
1.07633
1.07702
1.07772
1.07844
1.07915
1.07985
1.08055
1.08125
1.08193
1.08261
1.08328
1.08396
1.08467
1.08535
1.08601
1.08668
1.08737
1.08804
1.08869
1.08935
1.09001
1.09066
1.09131
1.09195
1.09259
1.09324
1.09388
1.0945
1.09514
1.09578
1.09642
1.09703
1.09766
1.09828
1.09888
1.09948
1.10006
1.10066
1.10126
1.10186
1.10246
1.10305
1.10364
1.10422
1.10481
1.10539
1.10597
1.10655
1.10713
1.1077
1.10827
1.10884
1.10939
1.10994
1.11049
1.11103
1.11157
1.1121
1.11264
1.11318
1.11371
1.11425
1.11481
1.11534
1.11586
1.11639
1.11692
1.11742
1.1179
1.11839
1.11889
1.11939
1.11988
1.12037
1.12086
1.12135
1.12183
1.1223
1.12277
1.12325
1.12372
1.12419
1.12466
1.12513
1.12559
1.12604
1.1265
1.12697
1.12741
1.12785
1.12828
1.12872
1.12915
1.12958
1.13001
1.13044
1.13086
1.13129
1.13172
1.13214
1.13255
1.13295
1.13335
1.13373
1.13412
1.13451
1.13489
1.13529
1.13569
1.13607
1.13645
1.13683
1.1372
1.13757
1.13794
1.1383
1.13868
1.13905
1.13941
1.13977
1.14013
1.14048
1.14083
1.1412
1.14154
1.14187
1.14221
1.14255
1.14289
1.14323
1.14356
1.14389
1.14422
1.14455
1.14486
1.14517
1.14548
1.14578
1.14608
1.14638
1.14669
1.14699
1.14729
1.14759
1.14789
1.14818
1.14846
1.14875
1.14903
1.14931
1.14959
1.14987
1.15015
1.15043
1.15069
1.15095
1.15121
1.15148
1.15174
1.15201
1.15227
1.15253
1.15278
1.15304
1.1533
1.15354
1.15378
1.15402
1.15426
1.15449
1.15472
1.15495
1.15518
1.15541
1.15563
1.15585
1.15607
1.15629
1.15651
1.15672
1.15693
1.15715
1.15737
1.15759
1.15781
1.15801
1.15821
1.15841
1.1586
1.1588
1.15899
1.15918
1.15937
1.15957
1.15975
1.15994
1.16013
1.16033
1.16052
1.1607
1.16088
1.16105
1.16122
1.16139
1.16156
1.16173
1.1619
1.16207
1.16223
1.16239
1.16255
1.16271
1.16287
1.16302
1.16317
1.16333
1.16348
1.16363
1.16378
1.16392
1.16407
1.16421
1.16435
1.16449
1.16463
1.16477
1.1649
1.16504
1.16517
1.1653
1.16543
1.16557
1.1657
1.16583
1.16595
1.16607
1.16619
1.16631
1.16642
1.16654
1.16666
1.16678
1.16689
1.16701
1.16713
1.16724
1.16735
1.16746
1.16757
1.16767
1.16778
1.16788
1.16798
1.16808
1.16818
1.16828
1.16838
1.16848
1.16858
1.16867
1.16877
1.16886
1.16895
1.16905
1.16915
1.16924
1.16933
1.16941
1.1695
1.16958
1.16966
1.16974
1.16982
1.1699
1.16998
1.17006
1.17014
1.17021
1.17029
1.17036
1.17044
1.17051
1.17058
1.17065
1.17073
1.1708
1.17087
1.17093
1.171
1.17107
1.17113
1.1712
1.17127
1.17133
1.17139
1.17145
1.17151
1.17157
1.17163
1.17169
1.17175
1.17181
1.17186
1.17191
1.17197
1.17202
1.17207
1.17212
1.17217
1.17223
1.17227
1.17232
1.17237
1.17242
1.17247
1.17251
1.17256
1.1726
1.17264
1.17269
1.17273
1.17277
1.17281
1.17285
1.17289
1.17293
1.17297
1.17301
1.17305
1.17309
1.17312
1.17316
1.1732
1.17323
1.17326
1.1733
1.17333
1.17336
1.17339
1.17342
1.17345
1.17348
1.17351
1.17354
1.17356
1.17359
1.17361
1.17364
1.17367
1.17369
1.17372
1.17374
1.17376
1.17379
1.17381
1.17383
1.17385
1.17387
1.17389
1.17391
1.17393
1.17395
1.17397
1.17399
1.174
1.17402
1.17404
1.17405
1.17407
1.17408
1.17409
1.17411
1.17412
1.17413
1.17414
1.17415
1.17416
1.17417
1.17418
1.17419
1.1742
1.17421
1.17422
1.17423
1.17423
1.17424
1.17424
1.17425
1.17426
1.17426
1.17426
1.17427
1.17427
1.17427
1.17428
1.17428
1.17428
1.17428
1.17428
1.07564
1.07633
1.07702
1.07773
1.07843
1.07914
1.07986
1.08055
1.08124
1.08192
1.08261
1.08329
1.08398
1.08468
1.08535
1.08601
1.08669
1.08737
1.08803
1.08868
1.08934
1.09001
1.09066
1.09131
1.09196
1.0926
1.09325
1.09388
1.09451
1.09514
1.09578
1.09641
1.09703
1.09766
1.09828
1.09888
1.09947
1.10005
1.10064
1.10126
1.10187
1.10247
1.10305
1.10364
1.10423
1.10481
1.1054
1.10598
1.10655
1.10714
1.10771
1.10826
1.10882
1.10939
1.10994
1.11048
1.11102
1.11156
1.1121
1.11264
1.11319
1.11371
1.11425
1.1148
1.11534
1.11588
1.11641
1.11692
1.11742
1.11791
1.11839
1.11889
1.11939
1.11988
1.12037
1.12087
1.12136
1.12183
1.12229
1.12276
1.12325
1.12373
1.1242
1.12467
1.12513
1.12558
1.12604
1.1265
1.12696
1.12741
1.12785
1.12828
1.12872
1.12915
1.12958
1.13001
1.13044
1.13086
1.13129
1.13172
1.13214
1.13255
1.13295
1.13334
1.13374
1.13413
1.13451
1.1349
1.13529
1.13568
1.13606
1.13644
1.13682
1.1372
1.13757
1.13794
1.13831
1.13869
1.13905
1.13941
1.13978
1.14013
1.14048
1.14084
1.14119
1.14154
1.14188
1.14221
1.14255
1.14288
1.14321
1.14355
1.14389
1.14423
1.14455
1.14487
1.14518
1.14548
1.14578
1.14608
1.14638
1.14669
1.14699
1.14729
1.14759
1.14788
1.14817
1.14846
1.14875
1.14903
1.14931
1.14959
1.14987
1.15015
1.15042
1.15069
1.15096
1.15122
1.15148
1.15174
1.15201
1.15227
1.15253
1.15279
1.15305
1.1533
1.15354
1.15378
1.15402
1.15426
1.15449
1.15472
1.15495
1.15518
1.1554
1.15563
1.15585
1.15607
1.15629
1.1565
1.15672
1.15694
1.15716
1.15738
1.1576
1.15781
1.15801
1.15821
1.15841
1.1586
1.1588
1.15899
1.15918
1.15938
1.15957
1.15976
1.15994
1.16013
1.16033
1.16052
1.1607
1.16088
1.16105
1.16122
1.16139
1.16156
1.16173
1.1619
1.16207
1.16223
1.16239
1.16255
1.16271
1.16287
1.16302
1.16317
1.16333
1.16348
1.16363
1.16378
1.16392
1.16406
1.16421
1.16435
1.16449
1.16463
1.16477
1.1649
1.16504
1.16517
1.1653
1.16544
1.16557
1.1657
1.16583
1.16595
1.16607
1.16619
1.16631
1.16643
1.16654
1.16666
1.16678
1.16689
1.16701
1.16713
1.16724
1.16735
1.16746
1.16757
1.16767
1.16778
1.16788
1.16798
1.16808
1.16818
1.16828
1.16838
1.16848
1.16858
1.16867
1.16877
1.16886
1.16896
1.16905
1.16914
1.16924
1.16933
1.16941
1.1695
1.16958
1.16966
1.16974
1.16982
1.1699
1.16998
1.17006
1.17014
1.17021
1.17029
1.17036
1.17044
1.17051
1.17058
1.17065
1.17073
1.1708
1.17087
1.17093
1.171
1.17107
1.17113
1.1712
1.17127
1.17133
1.17139
1.17145
1.17151
1.17157
1.17163
1.17169
1.17175
1.17181
1.17186
1.17191
1.17197
1.17202
1.17207
1.17212
1.17217
1.17223
1.17227
1.17232
1.17237
1.17242
1.17247
1.17251
1.17256
1.1726
1.17265
1.17269
1.17273
1.17277
1.17281
1.17285
1.17289
1.17293
1.17297
1.17301
1.17305
1.17309
1.17312
1.17316
1.1732
1.17323
1.17326
1.1733
1.17333
1.17336
1.17339
1.17342
1.17345
1.17348
1.17351
1.17353
1.17356
1.17359
1.17361
1.17364
1.17367
1.17369
1.17372
1.17374
1.17376
1.17379
1.17381
1.17383
1.17385
1.17387
1.17389
1.17391
1.17393
1.17395
1.17397
1.17399
1.174
1.17402
1.17404
1.17405
1.17407
1.17408
1.17409
1.17411
1.17412
1.17413
1.17414
1.17415
1.17416
1.17417
1.17418
1.17419
1.1742
1.17421
1.17422
1.17423
1.17423
1.17424
1.17425
1.17425
1.17426
1.17426
1.17426
1.17427
1.17427
1.17427
1.17428
1.17428
1.17428
1.17428
1.17428
1.07564
1.07635
1.07703
1.07772
1.07843
1.07915
1.07985
1.08055
1.08124
1.08192
1.0826
1.08329
1.08399
1.08467
1.08535
1.08602
1.08669
1.08737
1.08802
1.08867
1.08933
1.09001
1.09068
1.09132
1.09196
1.09261
1.09325
1.09388
1.09452
1.09515
1.09577
1.09641
1.09704
1.09766
1.09827
1.09887
1.09947
1.10006
1.10064
1.10125
1.10187
1.10246
1.10305
1.10364
1.10423
1.10481
1.1054
1.10598
1.10656
1.10714
1.10771
1.10826
1.10882
1.10939
1.10993
1.11048
1.11102
1.11156
1.1121
1.11264
1.11318
1.11372
1.11426
1.1148
1.11534
1.11589
1.11641
1.11692
1.11742
1.11791
1.11839
1.11888
1.11938
1.11988
1.12038
1.12087
1.12136
1.12183
1.1223
1.12277
1.12325
1.12372
1.12419
1.12467
1.12513
1.12558
1.12604
1.12649
1.12696
1.12741
1.12784
1.12828
1.12872
1.12915
1.12957
1.13
1.13043
1.13086
1.1313
1.13173
1.13214
1.13255