/*--------------------------------*- C++ -*----------------------------------*\
  =========                 |
  \\      /  F ield         | OpenFOAM: The Open Source CFD Toolbox
   \\    /   O peration     | Website:  https://openfoam.org
    \\  /    A nd           | Version:  7
     \\/     M anipulation  |
\*---------------------------------------------------------------------------*/
FoamFile
{
    version     2.0;
    format      ascii;
    class       volScalarField;
    location    "1500";
    object      T;
}
// * * * * * * * * * * * * * * * * * * * * * * * * * * * * * * * * * * * * * //

dimensions      [0 0 0 1 0 0 0];

internalField   nonuniform List<scalar> 
160000
(
329.878
329.637
329.397
329.156
328.91
328.667
328.427
328.195
327.968
327.731
327.491
327.261
327.029
326.794
326.568
326.346
326.123
325.901
325.678
325.455
325.235
325.019
324.808
324.598
324.387
324.175
323.962
323.755
323.55
323.349
323.154
322.955
322.747
322.54
322.344
322.148
321.954
321.764
321.58
321.398
321.206
321.013
320.82
320.637
320.458
320.273
320.093
319.918
319.738
319.556
319.377
319.199
319.024
318.854
318.684
318.517
318.347
318.176
318.016
317.856
317.688
317.519
317.36
317.203
317.051
316.892
316.73
316.57
316.416
316.274
316.125
315.973
315.826
315.679
315.535
315.389
315.244
315.101
314.958
314.816
314.675
314.53
314.389
314.253
314.117
313.98
313.846
313.716
313.588
313.455
313.326
313.198
313.066
312.935
312.809
312.687
312.567
312.445
312.323
312.205
312.087
311.971
311.855
311.736
311.623
311.51
311.397
311.286
311.173
311.06
310.947
310.84
310.734
310.627
310.524
310.42
310.316
310.215
310.11
310.004
309.901
309.802
309.705
309.606
309.508
309.408
309.307
309.212
309.12
309.025
308.933
308.843
308.753
308.659
308.565
308.476
308.39
308.303
308.219
308.138
308.055
307.966
307.883
307.802
307.717
307.633
307.553
307.473
307.394
307.317
307.241
307.165
307.091
307.016
306.941
306.868
306.794
306.72
306.646
306.574
306.502
306.432
306.362
306.292
306.223
306.157
306.088
306.022
305.957
305.893
305.829
305.761
305.698
305.635
305.571
305.511
305.452
305.393
305.333
305.271
305.214
305.158
305.101
305.047
304.993
304.938
304.884
304.829
304.775
304.721
304.666
304.612
304.56
304.507
304.452
304.402
304.354
304.304
304.251
304.199
304.148
304.099
304.052
304.007
303.962
303.915
303.87
303.826
303.782
303.738
303.695
303.652
303.609
303.568
303.527
303.486
303.447
303.407
303.366
303.326
303.286
303.248
303.211
303.175
303.138
303.102
303.065
303.029
302.993
302.957
302.923
302.89
302.855
302.82
302.786
302.753
302.721
302.689
302.657
302.626
302.595
302.566
302.535
302.505
302.476
302.446
302.416
302.386
302.355
302.324
302.295
302.266
302.238
302.212
302.187
302.161
302.135
302.11
302.085
302.058
302.031
302.006
301.982
301.959
301.935
301.911
301.887
301.864
301.841
301.817
301.795
301.774
301.752
301.731
301.711
301.691
301.67
301.649
301.628
301.608
301.589
301.57
301.551
301.531
301.512
301.494
301.475
301.457
301.44
301.422
301.405
301.388
301.372
301.355
301.339
301.322
301.305
301.289
301.274
301.259
301.243
301.228
301.213
301.197
301.183
301.169
301.155
301.142
301.129
301.116
301.102
301.09
301.077
301.064
301.052
301.039
301.027
301.016
301.004
300.993
300.982
300.971
300.961
300.949
300.938
300.928
300.918
300.907
300.897
300.887
300.878
300.869
300.859
300.85
300.842
300.833
300.825
300.816
300.807
300.799
300.791
300.784
300.776
300.768
300.761
300.754
300.747
300.74
300.733
300.727
300.721
300.714
300.708
300.702
300.696
300.69
300.685
300.679
300.674
300.669
300.664
300.659
300.654
300.649
300.645
300.64
300.636
300.631
300.627
300.624
300.62
300.617
300.613
300.61
300.607
300.604
300.601
300.598
300.595
300.593
300.59
300.588
300.586
300.584
300.582
300.58
300.578
300.577
300.575
300.574
300.573
300.572
300.571
300.57
300.57
300.569
300.569
300.568
300.568
300.568
329.872
329.63
329.394
329.154
328.911
328.671
328.432
328.195
327.963
327.729
327.491
327.258
327.031
326.802
326.571
326.346
326.127
325.902
325.673
325.448
325.23
325.018
324.805
324.592
324.384
324.179
323.969
323.757
323.552
323.35
323.149
322.949
322.745
322.54
322.344
322.15
321.952
321.767
321.587
321.397
321.201
321.012
320.822
320.639
320.459
320.272
320.091
319.918
319.741
319.555
319.373
319.197
319.027
318.854
318.683
318.519
318.348
318.18
318.016
317.852
317.688
317.523
317.36
317.203
317.048
316.887
316.73
316.576
316.422
316.273
316.121
315.971
315.824
315.68
315.536
315.389
315.243
315.1
314.958
314.816
314.673
314.531
314.392
314.256
314.12
313.98
313.845
313.716
313.586
313.456
313.325
313.196
313.066
312.935
312.811
312.69
312.568
312.446
312.324
312.205
312.087
311.968
311.854
311.739
311.622
311.51
311.398
311.285
311.171
311.059
310.947
310.839
310.734
310.629
310.525
310.421
310.317
310.214
310.11
310.005
309.901
309.801
309.703
309.604
309.506
309.408
309.309
309.214
309.12
309.026
308.933
308.844
308.753
308.657
308.564
308.478
308.391
308.303
308.22
308.138
308.054
307.968
307.883
307.8
307.715
307.633
307.553
307.473
307.394
307.319
307.241
307.164
307.091
307.016
306.941
306.866
306.793
306.719
306.646
306.575
306.503
306.432
306.361
306.292
306.224
306.157
306.088
306.022
305.957
305.892
305.826
305.761
305.698
305.635
305.572
305.512
305.452
305.392
305.332
305.273
305.215
305.158
305.102
305.048
304.994
304.938
304.883
304.829
304.776
304.721
304.665
304.611
304.559
304.506
304.453
304.404
304.353
304.302
304.25
304.198
304.148
304.1
304.053
304.008
303.962
303.915
303.87
303.825
303.782
303.738
303.694
303.652
303.61
303.568
303.527
303.487
303.447
303.406
303.365
303.326
303.287
303.249
303.212
303.175
303.138
303.101
303.064
303.029
302.993
302.958
302.923
302.89
302.855
302.819
302.786
302.753
302.721
302.689
302.657
302.627
302.596
302.566
302.536
302.505
302.476
302.446
302.415
302.385
302.354
302.324
302.295
302.267
302.239
302.212
302.187
302.161
302.135
302.11
302.084
302.057
302.031
302.007
301.983
301.959
301.935
301.91
301.887
301.864
301.841
301.817
301.795
301.774
301.752
301.731
301.711
301.691
301.67
301.649
301.628
301.608
301.589
301.57
301.551
301.531
301.512
301.494
301.475
301.458
301.44
301.423
301.405
301.389
301.372
301.355
301.338
301.322
301.305
301.289
301.274
301.258
301.243
301.227
301.212
301.197
301.183
301.169
301.155
301.142
301.129
301.116
301.103
301.09
301.077
301.064
301.051
301.039
301.027
301.016
301.005
300.993
300.982
300.971
300.961
300.949
300.938
300.928
300.918
300.907
300.897
300.887
300.878
300.869
300.859
300.85
300.841
300.833
300.824
300.816
300.807
300.799
300.791
300.784
300.776
300.768
300.761
300.754
300.747
300.74
300.733
300.727
300.721
300.714
300.708
300.702
300.696
300.69
300.685
300.679
300.674
300.669
300.664
300.659
300.654
300.649
300.645
300.64
300.636
300.631
300.627
300.624
300.62
300.617
300.613
300.61
300.607
300.604
300.601
300.598
300.595
300.593
300.59
300.588
300.586
300.584
300.582
300.58
300.578
300.577
300.575
300.574
300.573
300.572
300.571
300.57
300.57
300.569
300.569
300.568
300.568
300.568
329.876
329.635
329.393
329.153
328.911
328.669
328.434
328.194
327.961
327.73
327.491
327.257
327.033
326.807
326.575
326.349
326.125
325.894
325.67
325.448
325.229
325.014
324.8
324.591
324.384
324.178
323.971
323.764
323.554
323.347
323.148
322.949
322.746
322.54
322.341
322.149
321.956
321.768
321.585
321.395
321.203
321.013
320.825
320.643
320.457
320.269
320.092
319.918
319.741
319.555
319.371
319.196
319.026
318.856
318.686
318.519
318.351
318.183
318.014
317.848
317.687
317.526
317.362
317.201
317.047
316.886
316.726
316.572
316.422
316.271
316.122
315.976
315.825
315.68
315.536
315.389
315.244
315.1
314.955
314.813
314.674
314.532
314.391
314.255
314.12
313.984
313.849
313.714
313.582
313.454
313.323
313.192
313.065
312.938
312.812
312.692
312.57
312.448
312.326
312.205
312.087
311.968
311.852
311.739
311.624
311.509
311.395
311.283
311.172
311.06
310.949
310.841
310.734
310.629
310.525
310.421
310.318
310.214
310.108
310.004
309.901
309.802
309.702
309.603
309.506
309.407
309.31
309.215
309.12
309.027
308.936
308.843
308.749
308.655
308.565
308.478
308.392
308.305
308.221
308.138
308.055
307.968
307.882
307.8
307.716
307.633
307.552
307.473
307.395
307.319
307.242
307.165
307.092
307.016
306.939
306.865
306.792
306.718
306.646
306.575
306.504
306.433
306.362
306.292
306.224
306.156
306.088
306.022
305.957
305.891
305.825
305.76
305.697
305.634
305.573
305.514
305.453
305.391
305.332
305.274
305.216
305.159
305.103
305.048
304.993
304.939
304.884
304.829
304.775
304.718
304.662
304.609
304.558
304.505
304.454
304.403
304.352
304.301
304.249
304.198
304.149
304.101
304.054
304.007
303.961
303.915
303.87
303.826
303.782
303.738
303.695
303.653
303.61
303.568
303.527
303.487
303.446
303.406
303.366
303.327
303.288
303.25
303.212
303.175
303.138
303.101
303.064
303.029
302.993
302.958
302.923
302.889
302.854
302.82
302.786
302.753
302.72
302.689
302.658
302.627
302.596
302.566
302.535
302.505
302.476
302.446
302.415
302.383
302.352
302.324
302.295
302.267
302.239
302.213
302.187
302.161
302.135
302.11
302.083
302.057
302.032
302.007
301.983
301.959
301.935
301.911
301.887
301.863
301.84
301.817
301.795
301.774
301.752
301.732
301.711
301.691
301.67
301.649
301.628
301.609
301.589
301.57
301.55
301.531
301.512
301.494
301.476
301.458
301.44
301.423
301.405
301.389
301.372
301.355
301.339
301.322
301.305
301.289
301.274
301.258
301.242
301.227
301.212
301.198
301.183
301.169
301.156
301.142
301.129
301.116
301.103
301.09
301.077
301.064
301.051
301.039
301.028
301.016
301.005
300.993
300.982
300.971
300.96
300.949
300.938
300.928
300.918
300.907
300.897
300.888
300.878
300.869
300.859
300.85
300.841
300.833
300.824
300.816
300.807
300.799
300.791
300.784
300.776
300.768
300.761
300.754
300.747
300.74
300.733
300.727
300.721
300.714
300.708
300.702
300.696
300.691
300.685
300.679
300.674
300.669
300.664
300.659
300.654
300.649
300.644
300.64
300.636
300.631
300.627
300.624
300.62
300.617
300.613
300.61
300.607
300.604
300.601
300.598
300.595
300.593
300.59
300.588
300.586
300.584
300.582
300.58
300.578
300.577
300.575
300.574
300.573
300.572
300.571
300.57
300.57
300.569
300.569
300.568
300.568
300.568
329.877
329.635
329.393
329.15
328.907
328.665
328.43
328.193
327.957
327.722
327.489
327.263
327.036
326.807
326.577
326.349
326.124
325.895
325.67
325.447
325.23
325.013
324.799
324.594
324.381
324.173
323.973
323.764
323.551
323.348
323.149
322.948
322.747
322.543
322.342
322.148
321.956
321.77
321.588
321.396
321.201
321.011
320.825
320.643
320.458
320.274
320.094
319.917
319.737
319.556
319.376
319.194
319.025
318.857
318.685
318.516
318.35
318.183
318.017
317.852
317.69
317.527
317.362
317.202
317.046
316.886
316.725
316.571
316.421
316.268
316.119
315.976
315.83
315.684
315.536
315.385
315.241
315.098
314.951
314.812
314.673
314.531
314.393
314.259
314.123
313.985
313.85
313.715
313.583
313.452
313.321
313.194
313.065
312.939
312.816
312.693
312.569
312.448
312.328
312.205
312.084
311.966
311.851
311.737
311.624
311.509
311.395
311.283
311.172
311.06
310.951
310.843
310.735
310.629
310.524
310.421
310.318
310.214
310.107
310.003
309.902
309.803
309.702
309.604
309.506
309.407
309.309
309.214
309.121
309.028
308.936
308.842
308.747
308.654
308.564
308.477
308.393
308.306
308.222
308.138
308.052
307.967
307.884
307.8
307.717
307.633
307.552
307.473
307.397
307.319
307.242
307.165
307.09
307.015
306.94
306.865
306.792
306.718
306.646
306.576
306.505
306.433
306.362
306.291
306.223
306.155
306.088
306.021
305.955
305.889
305.824
305.761
305.699
305.636
305.574
305.513
305.452
305.392
305.334
305.276
305.216
305.159
305.104
305.049
304.994
304.939
304.883
304.828
304.771
304.715
304.662
304.609
304.557
304.504
304.453
304.403
304.352
304.301
304.249
304.198
304.148
304.101
304.054
304.008
303.962
303.916
303.871
303.827
303.782
303.739
303.696
303.653
303.61
303.568
303.527
303.487
303.446
303.406
303.366
303.327
303.289
303.25
303.213
303.175
303.137
303.1
303.064
303.029
302.993
302.958
302.923
302.888
302.854
302.819
302.786
302.753
302.721
302.689
302.658
302.627
302.596
302.566
302.536
302.505
302.475
302.444
302.413
302.382
302.352
302.324
302.296
302.267
302.24
302.214
302.187
302.161
302.135
302.109
302.083
302.058
302.033
302.008
301.984
301.959
301.935
301.91
301.887
301.863
301.84
301.817
301.795
301.773
301.752
301.732
301.711
301.691
301.67
301.649
301.628
301.608
301.589
301.57
301.55
301.531
301.512
301.494
301.476
301.458
301.44
301.423
301.406
301.389
301.372
301.355
301.338
301.321
301.305
301.289
301.273
301.257
301.241
301.226
301.212
301.198
301.183
301.17
301.156
301.143
301.129
301.116
301.103
301.09
301.077
301.064
301.051
301.039
301.028
301.016
301.005
300.993
300.982
300.971
300.96
300.949
300.938
300.928
300.918
300.908
300.897
300.888
300.878
300.869
300.859
300.85
300.841
300.832
300.824
300.816
300.807
300.799
300.792
300.784
300.776
300.769
300.761
300.754
300.747
300.74
300.733
300.727
300.721
300.714
300.708
300.702
300.696
300.691
300.685
300.679
300.674
300.669
300.664
300.659
300.654
300.649
300.644
300.64
300.635
300.631
300.627
300.624
300.62
300.617
300.613
300.61
300.607
300.604
300.601
300.598
300.595
300.593
300.59
300.588
300.586
300.584
300.582
300.58
300.578
300.577
300.575
300.574
300.573
300.572
300.571
300.57
300.57
300.569
300.569
300.568
300.568
300.568
329.878
329.637
329.393
329.147
328.905
328.663
328.427
328.192
327.953
327.721
327.49
327.268
327.045
326.803
326.568
326.347
326.125
325.899
325.676
325.448
325.226
325.01
324.799
324.592
324.381
324.177
323.976
323.766
323.557
323.351
323.143
322.943
322.746
322.541
322.337
322.147
321.962
321.775
321.585
321.39
321.201
321.012
320.823
320.641
320.46
320.277
320.098
319.921
319.736
319.553
319.374
319.197
319.024
318.854
318.685
318.516
318.349
318.184
318.016
317.852
317.691
317.529
317.365
317.204
317.048
316.886
316.723
316.567
316.417
316.267
316.119
315.976
315.83
315.682
315.536
315.385
315.238
315.096
314.954
314.81
314.669
314.532
314.394
314.259
314.124
313.986
313.85
313.716
313.583
313.451
313.322
313.195
313.067
312.94
312.817
312.695
312.57
312.447
312.328
312.207
312.082
311.962
311.849
311.737
311.623
311.509
311.396
311.284
311.173
311.061
310.951
310.845
310.738
310.629
310.521
310.418
310.319
310.214
310.107
310.004
309.903
309.802
309.703
309.605
309.505
309.405
309.309
309.215
309.122
309.029
308.936
308.842
308.746
308.652
308.563
308.476
308.391
308.307
308.223
308.138
308.052
307.968
307.884
307.799
307.717
307.634
307.553
307.475
307.397
307.319
307.242
307.166
307.091
307.015
306.939
306.864
306.79
306.717
306.648
306.577
306.506
306.434
306.361
306.29
306.222
306.156
306.086
306.017
305.953
305.888
305.825
305.762
305.699
305.637
305.575
305.514
305.453
305.394
305.335
305.277
305.218
305.16
305.104
305.049
304.994
304.939
304.882
304.824
304.768
304.714
304.661
304.608
304.556
304.504
304.453
304.404
304.353
304.302
304.25
304.198
304.148
304.101
304.054
304.008
303.962
303.917
303.872
303.828
303.784
303.74
303.697
303.653
303.61
303.568
303.527
303.487
303.447
303.406
303.366
303.327
303.288
303.25
303.213
303.175
303.137
303.101
303.064
303.029
302.993
302.958
302.924
302.889
302.854
302.819
302.785
302.752
302.721
302.689
302.658
302.627
302.596
302.566
302.535
302.505
302.474
302.443
302.411
302.381
302.352
302.324
302.296
302.268
302.241
302.214
302.188
302.161
302.135
302.109
302.083
302.058
302.033
302.008
301.984
301.959
301.935
301.911
301.886
301.862
301.839
301.817
301.795
301.774
301.753
301.732
301.711
301.691
301.67
301.649
301.628
301.608
301.589
301.57
301.55
301.532
301.513
301.494
301.476
301.458
301.44
301.423
301.406
301.389
301.372
301.355
301.338
301.321
301.305
301.289
301.273
301.257
301.241
301.226
301.212
301.197
301.183
301.17
301.156
301.143
301.13
301.116
301.103
301.09
301.077
301.064
301.051
301.04
301.028
301.016
301.005
300.993
300.982
300.971
300.96
300.949
300.938
300.928
300.918
300.908
300.898
300.888
300.878
300.869
300.859
300.85
300.841
300.832
300.824
300.816
300.807
300.8
300.792
300.784
300.776
300.768
300.761
300.754
300.747
300.74
300.734
300.727
300.721
300.714
300.708
300.702
300.696
300.691
300.685
300.679
300.674
300.669
300.664
300.659
300.654
300.649
300.644
300.64
300.635
300.631
300.627
300.624
300.62
300.617
300.613
300.61
300.607
300.604
300.601
300.598
300.595
300.593
300.59
300.588
300.586
300.584
300.582
300.58
300.578
300.577
300.575
300.574
300.573
300.572
300.571
300.57
300.57
300.569
300.569
300.568
300.568
300.568
329.879
329.642
329.4
329.149
328.906
328.662
328.422
328.185
327.953
327.726
327.494
327.268
327.04
326.802
326.572
326.342
326.117
325.899
325.679
325.455
325.232
325.012
324.796
324.59
324.384
324.174
323.971
323.766
323.562
323.355
323.144
322.942
322.741
322.539
322.339
322.148
321.962
321.774
321.583
321.39
321.2
321.011
320.825
320.643
320.461
320.277
320.098
319.919
319.74
319.556
319.372
319.198
319.027
318.853
318.684
318.517
318.349
318.182
318.018
317.854
317.691
317.532
317.369
317.204
317.047
316.885
316.72
316.565
316.416
316.267
316.121
315.975
315.826
315.678
315.534
315.385
315.237
315.094
314.952
314.812
314.672
314.532
314.394
314.26
314.124
313.987
313.852
313.718
313.583
313.45
313.322
313.197
313.068
312.94
312.817
312.693
312.57
312.449
312.325
312.204
312.082
311.964
311.85
311.734
311.621
311.509
311.398
311.287
311.174
311.06
310.95
310.844
310.738
310.631
310.523
310.419
310.317
310.215
310.11
310.005
309.904
309.803
309.703
309.605
309.503
309.405
309.31
309.215
309.122
309.028
308.935
308.839
308.744
308.652
308.564
308.476
308.39
308.305
308.221
308.138
308.053
307.969
307.885
307.8
307.716
307.635
307.555
307.475
307.396
307.319
307.242
307.166
307.09
307.013
306.938
306.864
306.791
306.72
306.649
306.577
306.505
306.432
306.361
306.291
306.222
306.153
306.084
306.016
305.952
305.888
305.825
305.763
305.702
305.638
305.575
305.514
305.455
305.395
305.336
305.277
305.218
305.161
305.105
305.05
304.994
304.935
304.877
304.82
304.766
304.713
304.66
304.608
304.556
304.504
304.453
304.404
304.354
304.302
304.25
304.198
304.148
304.1
304.054
304.008
303.962
303.917
303.873
303.828
303.784
303.74
303.697
303.653
303.611
303.569
303.528
303.488
303.447
303.406
303.366
303.327
303.288
303.251
303.213
303.175
303.137
303.101
303.065
303.029
302.994
302.958
302.923
302.889
302.854
302.818
302.784
302.752
302.721
302.689
302.658
302.627
302.596
302.565
302.535
302.504
302.473
302.442
302.411
302.381
302.352
302.324
302.296
302.269
302.241
302.214
302.188
302.161
302.135
302.109
302.084
302.059
302.033
302.009
301.984
301.959
301.935
301.91
301.885
301.861
301.838
301.817
301.795
301.774
301.753
301.733
301.712
301.69
301.669
301.649
301.628
301.609
301.589
301.57
301.551
301.532
301.513
301.494
301.476
301.458
301.44
301.423
301.406
301.389
301.371
301.354
301.337
301.321
301.305
301.289
301.273
301.257
301.241
301.226
301.212
301.197
301.184
301.17
301.157
301.143
301.13
301.116
301.103
301.09
301.076
301.064
301.051
301.04
301.028
301.016
301.005
300.993
300.982
300.971
300.96
300.949
300.939
300.928
300.918
300.908
300.898
300.888
300.878
300.869
300.859
300.85
300.841
300.832
300.824
300.815
300.808
300.8
300.792
300.784
300.776
300.769
300.761
300.754
300.747
300.74
300.734
300.727
300.721
300.714
300.708
300.702
300.696
300.69
300.685
300.679
300.674
300.669
300.664
300.659
300.654
300.649
300.644
300.64
300.635
300.631
300.627
300.624
300.62
300.616
300.613
300.61
300.607
300.604
300.601
300.598
300.595
300.593
300.59
300.588
300.586
300.584
300.582
300.58
300.578
300.577
300.575
300.574
300.573
300.572
300.571
300.57
300.57
300.569
300.569
300.568
300.568
300.568
329.88
329.641
329.4
329.155
328.911
328.665
328.42
328.182
327.95
327.721
327.493
327.268
327.035
326.797
326.568
326.342
326.12
325.898
325.679
325.461
325.234
325.012
324.801
324.595
324.387
324.174
323.968
323.762
323.558
323.354
323.144
322.938
322.738
322.539
322.343
322.152
321.96
321.77
321.58
321.393
321.203
321.012
320.825
320.644
320.46
320.275
320.097
319.918
319.738
319.558
319.375
319.199
319.028
318.854
318.683
318.518
318.35
318.183
318.019
317.855
317.694
317.534
317.37
317.201
317.039
316.884
316.723
316.563
316.413
316.267
316.123
315.974
315.823
315.677
315.531
315.383
315.238
315.095
314.953
314.813
314.672
314.532
314.396
314.26
314.122
313.987
313.852
313.718
313.584
313.451
313.323
313.199
313.07
312.941
312.816
312.695
312.574
312.448
312.323
312.203
312.082
311.963
311.848
311.733
311.621
311.509
311.397
311.288
311.175
311.06
310.951
310.845
310.739
310.631
310.524
310.42
310.319
310.215
310.109
310.005
309.902
309.801
309.703
309.605
309.503
309.406
309.311
309.216
309.12
309.027
308.933
308.84
308.746
308.654
308.564
308.476
308.389
308.303
308.22
308.137
308.053
307.969
307.886
307.802
307.718
307.636
307.554
307.475
307.397
307.321
307.243
307.165
307.089
307.013
306.937
306.863
306.792
306.721
306.649
306.577
306.504
306.43
306.36
306.291
306.222
306.152
306.083
306.016
305.952
305.889
305.825
305.763
305.701
305.639
305.576
305.515
305.456
305.396
305.337
305.278
305.219
305.162
305.106
305.05
304.99
304.93
304.874
304.819
304.765
304.712
304.66
304.608
304.557
304.505
304.453
304.404
304.353
304.301
304.249
304.198
304.148
304.101
304.055
304.009
303.963
303.918
303.873
303.828
303.785
303.74
303.696
303.654
303.612
303.57
303.528
303.488
303.448
303.407
303.366
303.327
303.289
303.251
303.213
303.175
303.138
303.101
303.064
303.029
302.994
302.959
302.924
302.889
302.854
302.818
302.784
302.752
302.72
302.689
302.657
302.626
302.596
302.565
302.534
302.503
302.472
302.441
302.41
302.381
302.352
302.324
302.297
302.269
302.242
302.215
302.188
302.162
302.135
302.11
302.084
302.059
302.033
302.009
301.984
301.959
301.934
301.909
301.885
301.861
301.839
301.817
301.795
301.774
301.753
301.733
301.712
301.69
301.67
301.649
301.628
301.608
301.589
301.57
301.551
301.532
301.513
301.494
301.476
301.458
301.44
301.423
301.406
301.388
301.371
301.353
301.337
301.321
301.305
301.289
301.273
301.257
301.241
301.226
301.212
301.198
301.184
301.17
301.157
301.143
301.13
301.116
301.103
301.09
301.077
301.064
301.052
301.04
301.028
301.016
301.005
300.993
300.982
300.971
300.96
300.949
300.939
300.928
300.918
300.908
300.898
300.888
300.878
300.869
300.859
300.85
300.841
300.832
300.824
300.815
300.808
300.8
300.792
300.784
300.776
300.769
300.761
300.754
300.747
300.741
300.734
300.727
300.721
300.714
300.708
300.702
300.696
300.69
300.685
300.679
300.674
300.669
300.664
300.659
300.654
300.649
300.644
300.64
300.635
300.631
300.627
300.624
300.62
300.616
300.613
300.61
300.607
300.604
300.601
300.598
300.595
300.593
300.59
300.588
300.586
300.584
300.582
300.58
300.578
300.577
300.575
300.574
300.573
300.572
300.571
300.57
300.57
300.569
300.569
300.568
300.568
300.568
329.88
329.638
329.398
329.156
328.91
328.667
328.426
328.186
327.948
327.717
327.488
327.263
327.033
326.797
326.567
326.346
326.123
325.894
325.673
325.458
325.239
325.02
324.807
324.595
324.386
324.178
323.966
323.757
323.556
323.35
323.142
322.939
322.74
322.539
322.341
322.15
321.96
321.772
321.584
321.393
321.204
321.015
320.827
320.645
320.46
320.276
320.096
319.916
319.735
319.553
319.376
319.202
319.026
318.854
318.685
318.518
318.352
318.186
318.023
317.858
317.693
317.532
317.368
317.201
317.038
316.88
316.721
316.563
316.412
316.266
316.122
315.971
315.82
315.674
315.529
315.383
315.237
315.095
314.956
314.815
314.674
314.534
314.395
314.257
314.121
313.986
313.854
313.718
313.582
313.451
313.324
313.199
313.071
312.944
312.819
312.695
312.572
312.449
312.325
312.201
312.079
311.962
311.847
311.732
311.622
311.511
311.399
311.289
311.175
311.062
310.952
310.844
310.738
310.632
310.527
310.423
310.319
310.212
310.106
310.004
309.902
309.802
309.705
309.604
309.501
309.404
309.312
309.218
309.122
309.025
308.932
308.84
308.748
308.654
308.563
308.475
308.389
308.303
308.22
308.138
308.053
307.968
307.885
307.802
307.718
307.635
307.556
307.477
307.398
307.32
307.243
307.166
307.09
307.012
306.936
306.863
306.792
306.72
306.648
306.577
306.503
306.43
306.36
306.291
306.22
306.151
306.084
306.018
305.952
305.888
305.825
305.764
305.701
305.637
305.576
305.516
305.457
305.397
305.337
305.278
305.221
305.164
305.106
305.046
304.986
304.927
304.872
304.819
304.766
304.712
304.659
304.608
304.557
304.505
304.454
304.403
304.352
304.301
304.25
304.198
304.149
304.102
304.056
304.01
303.964
303.919
303.873
303.828
303.784
303.74
303.696
303.654
303.612
303.57
303.529
303.488
303.448
303.407
303.367
303.328
303.289
303.251
303.213
303.175
303.137
303.101
303.065
303.029
302.994
302.959
302.923
302.888
302.853
302.818
302.784
302.752
302.72
302.688
302.657
302.626
302.595
302.564
302.533
302.502
302.471
302.441
302.411
302.382
302.353
302.324
302.297
302.269
302.242
302.215
302.188
302.162
302.136
302.11
302.084
302.059
302.033
302.008
301.984
301.959
301.934
301.909
301.885
301.861
301.839
301.817
301.795
301.774
301.754
301.733
301.712
301.69
301.67
301.649
301.629
301.609
301.589
301.57
301.551
301.532
301.513
301.495
301.476
301.458
301.44
301.423
301.406
301.388
301.37
301.353
301.336
301.321
301.305
301.289
301.273
301.257
301.241
301.226
301.212
301.198
301.184
301.17
301.157
301.143
301.129
301.116
301.103
301.09
301.077
301.064
301.052
301.04
301.028
301.016
301.005
300.993
300.982
300.971
300.96
300.949
300.939
300.928
300.918
300.907
300.898
300.888
300.878
300.869
300.859
300.85
300.841
300.832
300.824
300.816
300.808
300.8
300.792
300.784
300.776
300.769
300.761
300.754
300.747
300.741
300.734
300.727
300.721
300.714
300.708
300.702
300.696
300.69
300.685
300.679
300.674
300.669
300.664
300.659
300.654
300.649
300.644
300.64
300.635
300.631
300.627
300.624
300.62
300.616
300.613
300.61
300.607
300.604
300.601
300.598
300.595
300.593
300.59
300.588
300.586
300.584
300.582
300.58
300.578
300.577
300.575
300.574
300.573
300.572
300.571
300.57
300.57
300.569
300.569
300.568
300.568
300.568
329.877
329.637
329.398
329.152
328.911
328.668
328.424
328.187
327.952
327.722
327.49
327.258
327.026
326.793
326.566
326.347
326.12
325.893
325.676
325.459
325.241
325.023
324.808
324.594
324.384
324.175
323.964
323.758
323.555
323.348
323.143
322.94
322.741
322.539
322.34
322.151
321.962
321.776
321.588
321.393
321.2
321.012
320.829
320.645
320.459
320.276
320.093
319.913
319.734
319.552
319.376
319.205
319.031
318.855
318.686
318.52
318.353
318.188
318.025
317.858
317.693
317.532
317.368
317.203
317.038
316.876
316.717
316.561
316.411
316.264
316.119
315.971
315.821
315.675
315.529
315.38
315.235
315.095
314.957
314.818
314.675
314.533
314.394
314.257
314.12
313.987
313.854
313.719
313.584
313.452
313.323
313.198
313.071
312.946
312.821
312.695
312.572
312.45
312.325
312.2
312.079
311.961
311.846
311.733
311.621
311.509
311.399
311.288
311.176
311.065
310.957
310.846
310.739
310.632
310.527
310.422
310.316
310.21
310.107
310.004
309.901
309.802
309.703
309.603
309.503
309.406
309.31
309.216
309.122
309.029
308.935
308.841
308.746
308.652
308.561
308.474
308.388
308.304
308.221
308.138
308.052
307.966
307.883
307.801
307.719
307.638
307.558
307.477
307.398
307.321
307.243
307.166
307.09
307.013
306.938
306.864
306.791
306.718
306.647
306.575
306.503
306.432
306.36
306.288
306.218
306.15
306.084
306.018
305.954
305.889
305.826
305.763
305.701
305.638
305.577
305.517
305.457
305.396
305.338
305.28
305.221
305.162
305.103
305.042
304.983
304.927
304.872
304.819
304.766
304.713
304.66
304.608
304.557
304.505
304.454
304.403
304.352
304.301
304.25
304.199
304.149
304.102
304.056
304.01
303.965
303.919
303.874
303.829
303.784
303.74
303.697
303.654
303.612
303.57
303.529
303.489
303.448
303.408
303.367
303.328
303.29
303.252
303.213
303.175
303.138
303.101
303.065
303.03
302.994
302.958
302.923
302.888
302.852
302.817
302.784
302.752
302.72
302.688
302.656
302.625
302.595
302.564
302.533
302.502
302.471
302.441
302.411
302.382
302.353
302.325
302.297
302.269
302.242
302.215
302.188
302.162
302.136
302.11
302.084
302.058
302.033
302.008
301.983
301.958
301.934
301.91
301.885
301.861
301.839
301.817
301.796
301.775
301.754
301.732
301.711
301.69
301.67
301.649
301.629
301.609
301.589
301.57
301.551
301.532
301.513
301.494
301.476
301.458
301.44
301.423
301.405
301.388
301.37
301.353
301.337
301.321
301.304
301.288
301.273
301.257
301.242
301.226
301.212
301.198
301.184
301.17
301.157
301.143
301.129
301.116
301.103
301.09
301.077
301.064
301.052
301.04
301.028
301.016
301.005
300.993
300.982
300.971
300.96
300.949
300.938
300.928
300.918
300.908
300.898
300.888
300.878
300.869
300.859
300.85
300.841
300.832
300.824
300.816
300.808
300.8
300.792
300.784
300.776
300.769
300.761
300.754
300.747
300.741
300.734
300.727
300.721
300.714
300.708
300.702
300.696
300.69
300.685
300.679
300.674
300.669
300.664
300.659
300.654
300.649
300.644
300.64
300.635
300.631
300.627
300.624
300.62
300.616
300.613
300.61
300.607
300.604
300.601
300.598
300.595
300.593
300.59
300.588
300.586
300.584
300.582
300.58
300.578
300.577
300.575
300.574
300.573
300.572
300.571
300.57
300.57
300.569
300.569
300.568
300.568
300.568
329.875
329.631
329.394
329.156
328.911
328.666
328.428
328.189
327.954
327.723
327.491
327.258
327.025
326.796
326.567
326.342
326.12
325.895
325.677
325.463
325.246
325.022
324.802
324.593
324.382
324.169
323.963
323.759
323.552
323.346
323.145
322.94
322.737
322.539
322.345
322.154
321.961
321.774
321.59
321.396
321.201
321.014
320.829
320.643
320.458
320.276
320.093
319.912
319.731
319.55
319.375
319.206
319.032
318.856
318.688
318.521
318.353
318.188
318.025
317.859
317.694
317.531
317.367
317.203
317.038
316.873
316.714
316.561
316.411
316.265
316.12
315.973
315.823
315.674
315.527
315.379
315.235
315.095
314.956
314.816
314.675
314.536
314.397
314.256
314.119
313.986
313.854
313.72
313.584
313.453
313.325
313.197
313.07
312.945
312.822
312.698
312.574
312.45
312.323
312.199
312.079
311.961
311.845
311.734
311.622
311.509
311.397
311.286
311.176
311.067
310.958
310.849