/*--------------------------------*- C++ -*----------------------------------*\
  =========                 |
  \\      /  F ield         | OpenFOAM: The Open Source CFD Toolbox
   \\    /   O peration     | Website:  https://openfoam.org
    \\  /    A nd           | Version:  7
     \\/     M anipulation  |
\*---------------------------------------------------------------------------*/
FoamFile
{
    version     2.0;
    format      ascii;
    class       volScalarField;
    location    "5000";
    object      alpha.wetting;
}
// * * * * * * * * * * * * * * * * * * * * * * * * * * * * * * * * * * * * * //

dimensions      [0 0 0 0 0 0 0];

internalField   nonuniform List<scalar> 
160000
(
0.52073
0.520734
0.483166
0.483113
0.452945
0.46224
0.546836
0.583747
0.529114
0.512097
0.494256
0.483455
0.485868
0.484396
0.484398
0.519629
0.542896
0.542896
0.542593
0.542594
0.542595
0.475686
0.475686
0.514261
0.536293
0.465582
0.456505
0.4565
0.456513
0.456491
0.509862
0.548566
0.548601
0.54857
0.548591
0.477152
0.477152
0.477152
0.477152
0.524829
0.537118
0.537111
0.465365
0.452335
0.452329
0.452323
0.556266
0.559527
0.559506
0.559527
0.46759
0.440789
0.440776
0.440806
0.440768
0.440823
0.523508
0.523524
0.490067
0.488063
0.505613
0.517808
0.517807
0.517808
0.514735
0.514735
0.514769
0.514735
0.514743
0.432978
0.432972
0.432967
0.432961
0.432967
0.492034
0.524018
0.528854
0.526345
0.532106
0.532107
0.532106
0.532107
0.532106
0.510913
0.494417
0.494419
0.494413
0.494415
0.494442
0.494413
0.493712
0.493675
0.493712
0.505011
0.505041
0.489956
0.491177
0.529184
0.530111
0.530074
0.53009
0.51131
0.511276
0.511295
0.478814
0.478784
0.478814
0.478791
0.478814
0.529969
0.53961
0.539461
0.539469
0.53947
0.512228
0.512238
0.492438
0.475531
0.489583
0.549407
0.549378
0.526545
0.526561
0.526519
0.526561
0.534762
0.543013
0.543008
0.54301
0.543006
0.543008
0.511918
0.495072
0.495068
0.495065
0.495061
0.495068
0.49628
0.496279
0.491858
0.496819
0.496772
0.491857
0.491787
0.491857
0.491787
0.491857
0.509975
0.529265
0.529266
0.483229
0.483228
0.483198
0.483223
0.481386
0.481392
0.481355
0.513593
0.513564
0.513572
0.481371
0.480531
0.48362
0.522631
0.507097
0.474414
0.474417
0.438596
0.438591
0.438596
0.466208
0.578043
0.578033
0.578042
0.576819
0.501066
0.501066
0.510014
0.538249
0.538328
0.538249
0.538258
0.538236
0.501403
0.489448
0.495075
0.495088
0.491878
0.393085
0.362417
0.412121
0.441076
0.485751
0.545923
0.545943
0.445707
0.311885
0.409007
0.728673
0.72878
0.728675
0.728701
0.663929
0.485506
0.416569
0.416554
0.492493
0.567601
0.567504
0.567533
0.567501
0.567504
0.560176
0.549164
0.544986
0.530878
0.501111
0.501112
0.519247
0.558801
0.558879
0.558806
0.558805
0.480414
0.47378
0.473796
0.473731
0.4738
0.485435
0.525975
0.52597
0.513209
0.49012
0.49014
0.490101
0.49014
0.490092
0.528749
0.556198
0.556199
0.556198
0.512568
0.506089
0.4729
0.420079
0.315212
0.260867
0.260871
0.303301
0.686604
0.738361
0.738419
0.73836
0.659064
0.539897
0.505921
0.495615
0.429527
0.42952
0.429526
0.534392
0.536827
0.536832
0.490976
0.467967
0.48656
0.486566
0.456528
0.390094
0.390088
0.543077
0.584116
0.584056
0.584109
0.572714
0.453349
0.453359
0.453294
0.511294
0.511207
0.511072
0.436804
0.435225
0.435255
0.450069
0.567523
0.567459
0.567462
0.519377
0.518079
0.51808
0.505575
0.505592
0.506326
0.560651
0.560644
0.560635
0.39728
0.267389
0.173853
0.173896
0.279382
0.768778
0.769036
0.768774
0.768885
0.768738
0.695017
0.587204
0.47717
0.439739
0.430557
0.418063
0.418067
0.440772
0.548443
0.548339
0.548432
0.539354
0.45968
0.40231
0.339665
0.297086
0.297164
0.297051
0.29718
0.424211
0.575343
0.584183
0.584176
0.570339
0.552842
0.552827
0.552812
0.542217
0.507547
0.433776
0.404677
0.404659
0.484219
0.509783
0.509791
0.509778
0.424541
0.424542
0.424541
0.424539
0.500283
0.578372
0.578624
0.578367
0.575634
0.491009
0.47714
0.47714
0.481987
0.553217
0.553092
0.553216
0.553092
0.549655
0.484295
0.479715
0.476077
0.476004
0.476077
0.475919
0.476078
0.508718
0.557806
0.557803
0.557806
0.551084
0.551138
0.535521
0.53553
0.523017
0.484948
0.484947
0.484946
0.51442
0.545548
0.523143
0.52318
0.523089
0.523174
0.523066
0.523127
0.520857
0.470187
0.460259
0.420064
0.408778
0.387945
0.302966
0.302951
0.383753
0.40169
0.426416
0.426489
0.499455
0.499455
0.554162
0.493188
0.471809
0.462679
0.46268
0.488215
0.503378
0.51508
0.515079
0.504303
0.484396
0.484398
0.484396
0.522657
0.542874
0.485629
0.485627
0.485626
0.5051
0.476409
0.536297
0.536299
0.536297
0.456518
0.456505
0.456516
0.456482
0.514849
0.516177
0.516178
0.533955
0.548576
0.548568
0.477152
0.477152
0.477152
0.482412
0.537119
0.53711
0.537118
0.508639
0.452329
0.452323
0.452317
0.452306
0.500362
0.559526
0.559503
0.510625
0.451926
0.513955
0.515118
0.515121
0.479457
0.523516
0.504986
0.488064
0.488059
0.488054
0.517807
0.51628
0.504084
0.504069
0.510547
0.48219
0.482188
0.482182
0.492913
0.492913
0.492913
0.459414
0.47548
0.526132
0.528853
0.528867
0.515591
0.47416
0.487281
0.528274
0.506007
0.499534
0.49953
0.49953
0.49953
0.499531
0.493712
0.49367
0.493712
0.493669
0.493712
0.505213
0.505253
0.489956
0.489943
0.53011
0.530111
0.530112
0.529479
0.530074
0.530086
0.47291
0.472897
0.505114
0.478815
0.522271
0.539632
0.539601
0.539631
0.539601
0.510632
0.490004
0.484541
0.480935
0.480929
0.47552
0.475518
0.512357
0.549441
0.549407
0.54944
0.549405
0.549408
0.543051
0.543013
0.543012
0.535704
0.543006
0.543008
0.543003
0.495082
0.495077
0.495072
0.511191
0.494928
0.498272
0.498297
0.491848
0.491859
0.491812
0.491858
0.491808
0.496328
0.524764
0.52476
0.529284
0.529296
0.529273
0.494218
0.494218
0.494218
0.481397
0.481364
0.481392
0.481346
0.481387
0.481365
0.477964
0.477973
0.477956
0.480528
0.522631
0.522638
0.480029
0.474419
0.482
0.450152
0.43755
0.475853
0.540042
0.578033
0.51294
0.512938
0.526141
0.533507
0.538257
0.538249
0.538266
0.538249
0.538258
0.538249
0.538023
0.442249
0.442232
0.459994
0.409879
0.275986
0.210305
0.210301
0.432431
0.713463
0.703045
0.576797
0.402858
0.311885
0.311882
0.412887
0.728747
0.728659
0.728683
0.643709
0.516588
0.425593
0.416554
0.463688
0.567604
0.567504
0.567552
0.567501
0.561138
0.529556
0.49937
0.510826
0.519407
0.498288
0.501096
0.545169
0.558797
0.558816
0.558758
0.512221
0.476801
0.4738
0.4738
0.473738
0.4738
0.47373
0.473817
0.473723
0.557032
0.567171
0.567205
0.567171
0.567176
0.490123
0.506206
0.556197
0.556199
0.556198
0.542987
0.45859
0.445105
0.411841
0.257712
0.215344
0.215379
0.604642
0.738423
0.738365
0.738423
0.724957
0.60348
0.560981
0.53698
0.482873
0.429546
0.42952
0.484169
0.536857
0.53685
0.536855
0.472575
0.467967
0.46796
0.467953
0.469882
0.390046
0.390043
0.577389
0.584117
0.584056
0.584116
0.584055
0.510551
0.453362
0.453297
0.453362
0.453285
0.466445
0.444391
0.436806
0.450585
0.567496
0.567541
0.567478
0.56749
0.546194
0.521753
0.512011
0.483867
0.505537
0.577781
0.577795
0.467927
0.398323
0.402054
0.306502
0.173853
0.173898
0.173851
0.43922
0.769032
0.768758
0.744305
0.616231
0.520478
0.480042
0.466356
0.440448
0.418053
0.418049
0.418053
0.449735
0.548447
0.548334
0.548419
0.526072
0.430611
0.375086
0.323683
0.297189
0.297164
0.447374
0.621114
0.62105
0.621109
0.585768
0.584207
0.55401
0.475895
0.464242
0.478143
0.496522
0.511292
0.507342
0.456727
0.4473
0.485852
0.503318
0.497916
0.497913
0.499465
0.424542
0.424541
0.424542
0.47597
0.578372
0.578629
0.578372
0.578399
0.525736
0.47714
0.47714
0.47714
0.501379
0.498195
0.502721
0.547672
0.553105
0.538031
0.497
0.476029
0.475947
0.566366
0.56623
0.566396
0.566223
0.566296
0.549048
0.522144
0.511213
0.511932
0.486377
0.485218
0.48497
0.484966
0.484947
0.502209
0.526059
0.551524
0.551521
0.551524
0.551525
0.525097
0.525092
0.525093
0.478014
0.470117
0.470108
0.470113
0.449733
0.449707
0.404649
0.302951
0.348155
0.34744
0.400617
0.42649
0.426563
0.499455
0.499455
0.554165
0.543605
0.54361
0.490054
0.484283
0.519937
0.499932
0.499932
0.499932
0.504229
0.484399
0.484394
0.490752
0.514378
0.542871
0.542871
0.485626
0.485624
0.485621
0.536295
0.536297
0.507866
0.502266
0.50226
0.505247
0.483922
0.521969
0.521965
0.475476
0.50154
0.537391
0.548564
0.511799
0.4805
0.524317
0.524316
0.516183
0.484929
0.473607
0.477487
0.502403
0.508486
0.514012
0.514018
0.479593
0.479599
0.479602
0.519197
0.519189
0.48413
0.479484
0.479478
0.479465
0.479476
0.503728
0.537811
0.537808
0.537808
0.46562
0.462993
0.515111
0.515106
0.514399
0.514397
0.514395
0.514391
0.482164
0.482162
0.48157
0.481562
0.489014
0.489018
0.474131
0.474151
0.474105
0.474151
0.474107
0.525201
0.527183
0.527181
0.527179
0.521415
0.502146
0.477989
0.491177
0.510152
0.510137
0.493691
0.493712
0.498935
0.491492
0.491485
0.491488
0.457046
0.457037
0.457039
0.477377
0.482836
0.474859
0.521134
0.497783
0.464853
0.505112
0.53654
0.542469
0.50925
0.50925
0.509237
0.50925
0.515453
0.516726
0.498906
0.498903
0.495994
0.475511
0.494368
0.535493
0.541344
0.503253
0.48906
0.489066
0.498365
0.522425
0.51144
0.489873
0.48987
0.489866
0.492842
0.506213
0.541801
0.541797
0.541795
0.512186
0.494913
0.49186
0.491834
0.491859
0.491824
0.509389
0.527829
0.527842
0.489276
0.489257
0.489271
0.496079
0.529285
0.529285
0.48479
0.484784
0.484789
0.484776
0.503056
0.503054
0.503056
0.49854
0.517617
0.517623
0.516634
0.477973
0.477955
0.477973
0.522633
0.522654
0.522657
0.493499
0.42731
0.420964
0.443949
0.572118
0.578025
0.57802
0.578023
0.513599
0.497041
0.497037
0.497033
0.497022
0.530764
0.538249
0.523114
0.484422
0.450481
0.353864
0.253976
0.210239
0.21024
0.210237
0.433488
0.800953
0.791795
0.688182
0.548252
0.410144
0.320314
0.311885
0.368739
0.524531
0.583911
0.531281
0.440711
0.404895
0.446852
0.527141
0.567489
0.567501
0.532773
0.51994
0.519957
0.531709
0.495437
0.495436
0.495434
0.495436
0.497313
0.538983
0.558768
0.558785
0.507904
0.473819
0.473836
0.473803
0.473816
0.523504
0.544095
0.503242
0.481036
0.522398
0.554836
0.560888
0.567209
0.567171
0.515249
0.443845
0.495942
0.525553
0.513184
0.513184
0.513183
0.536539
0.525701
0.395061
0.251521
0.215344
0.215353
0.215337
0.624084
0.738365
0.738423
0.72891
0.554166
0.476865
0.46218
0.454181
0.437577
0.42954
0.429546
0.501367
0.536853
0.536833
0.469284
0.46206
0.469728
0.481295
0.43433
0.389439
0.390013
0.536262
0.584751
0.555436
0.54408
0.544071
0.54408
0.503349
0.453352
0.453362
0.453295
0.453366
0.487483
0.567546
0.567554
0.567526
0.567532
0.544689
0.502652
0.503782
0.542554
0.541921
0.517254
0.444372
0.344823
0.244288
0.18575
0.185718
0.185702
0.185696
0.173876
0.173899
0.176724
0.570525
0.765024
0.765079
0.615043
0.501751
0.47469
0.474683
0.512651
0.488033
0.44236
0.429652
0.441893
0.469489
0.528694
0.548326
0.544414
0.478155
0.43401
0.40436
0.345536
0.309648
0.309536
0.577524
0.621115
0.621055
0.621114
0.589178
0.518204
0.506248
0.491981
0.464242
0.464222
0.528618
0.528616
0.526291
0.515135
0.481336
0.480079
0.519499
0.551974
0.547367
0.503592
0.438562
0.437464
0.496804
0.563557
0.578365
0.578605
0.578372
0.57269
0.504163
0.51395
0.534722
0.534722
0.534721
0.51919
0.482569
0.508857
0.547694
0.544554
0.492458
0.476029
0.475912
0.475988
0.56623
0.566308
0.566225
0.566229
0.554789
0.509455
0.509472
0.50949
0.511804
0.589774
0.595589
0.595588
0.595586
0.561841
0.491453
0.49143
0.491454
0.491432
0.493883
0.55151
0.551513
0.515437
0.515381
0.515416
0.51535
0.510237
0.432465
0.432447
0.432445
0.417382
0.413421
0.408811
0.347265
0.373149
0.426563
0.426637
0.500709
0.526382
0.525403
0.525668
0.534052
0.534054
0.512229
0.519935
0.500906
0.512686
0.512685
0.510096
0.506078
0.4844
0.48439
0.484401
0.48439
0.491748
0.4862
0.499458
0.480798
0.480797
0.480794
0.492213
0.534639
0.534641
0.517074
0.521969
0.521965
0.454553
0.454247
0.454249
0.454237
0.454241
0.454224
0.535216
0.535216
0.507205
0.473611
0.473607
0.473602
0.473596
0.47544
0.483513
0.514018
0.514012
0.514018
0.51401
0.506501
0.480558
0.480557
0.480555
0.479491
0.481752
0.487082
0.487079
0.47437
0.474369
0.462843
0.462844
0.462843
0.462982
0.525861
0.489044
0.489042
0.488836
0.458859
0.419442
0.515795
0.517049
0.517054
0.453137
0.43752
0.495991
0.519734
0.519686
0.519697
0.519687
0.519712
0.477954
0.477988
0.477939
0.477988
0.477915
0.477988
0.477902
0.477989
0.47793
0.508708
0.50869
0.498225
0.498947
0.498946
0.491551
0.463127
0.503591
0.495869
0.45703
0.457035
0.457027
0.457036
0.410909
0.410929
0.437534
0.499012
0.550604
0.553179
0.548544
0.548544
0.548544
0.516729
0.51673
0.516731
0.485569
0.475516
0.475506
0.475513
0.475494
0.524523
0.52067
0.49504
0.495038
0.495035
0.477503
0.477507
0.477503
0.494946
0.494932
0.489861
0.497785
0.499457
0.505897
0.487112
0.463181
0.450928
0.494675
0.509404
0.521972
0.525145
0.552779
0.562055
0.527834
0.489276
0.489225
0.489271
0.489221
0.489257
0.527614
0.50697
0.508462
0.508458
0.508461
0.506437
0.476513
0.47182
0.471806
0.471809
0.471795
0.471802
0.467939
0.489238
0.507184
0.532708
0.553593
0.510947
0.445812
0.42248
0.417753
0.420915
0.542433
0.572098
0.559513
0.535716
0.535712
0.535831
0.53583
0.535827
0.511554
0.470509
0.479106
0.538246
0.503294
0.395744
0.33562
0.277612
0.227577
0.21024
0.250348
0.679545
0.830253
0.824891
0.714779
0.615455
0.595736
0.555446
0.44303
0.352507
0.352516
0.398234
0.458414
0.461466
0.402453
0.40246
0.402443
0.486343
0.567487
0.567489
0.543607
0.538412
0.538408
0.512436
0.495439
0.495438
0.532799
0.549872
0.549858
0.54986
0.540366
0.505384
0.47384
0.473846
0.473813
0.520519
0.572915
0.572914
0.572915
0.543658
0.50382
0.477693
0.477698
0.48604
0.540288
0.517756
0.429876
0.414264
0.498199
0.555849
0.575667
0.575668
0.57229
0.529965
0.414099
0.282583
0.215344
0.215351
0.215344
0.285016
0.718478
0.738423
0.738325
0.570727
0.48665
0.468707
0.445383
0.437586
0.437578
0.452263
0.517463
0.536867
0.53687
0.499255
0.445705
0.462029
0.499417
0.499422
0.461136
0.389439
0.389416
0.442211
0.584737
0.5848
0.584736
0.5848
0.566647
0.453363
0.453366
0.453314
0.453366
0.490507
0.601709
0.601709
0.56207
0.503448
0.483308
0.483305
0.502655
0.50623
0.521354
0.530384
0.505337
0.385519
0.234132
0.18578
0.185763
0.185748
0.185705
0.509099
0.652915
0.675414
0.675448
0.672649
0.496548
0.512579
0.496157
0.517107
0.557198
0.572648
0.568871
0.537648
0.50986
0.493275
0.46169
0.46167
0.476085
0.5457
0.546471
0.508982
0.429413
0.330009
0.309702
0.309637
0.498427
0.621115
0.621055
0.621096
0.542147
0.462004
0.440126
0.470595
0.511027
0.492694
0.44711
0.416245
0.413263
0.41318
0.533934
0.587749
0.621002
0.630172
0.630173
0.626251
0.547743
0.470402
0.437493
0.437495
0.555382
0.578406
0.563031
0.542605
0.523639
0.496202
0.497002
0.502394
0.516998
0.533918
0.519951
0.481912
0.452552
0.45249
0.529327
0.52933
0.52933
0.507447
0.469616
0.469644
0.480883
0.465202
0.458123
0.518234
0.509436
0.511826
0.509509
0.522272
0.591463
0.595588
0.595589
0.595216
0.529583
0.491411
0.491453
0.504381
0.491456
0.491434
0.518581
0.551494
0.551497
0.546529
0.546514
0.510216
0.510198
0.513879
0.476222
0.404733
0.404718
0.404724
0.369386
0.347259
0.392933
0.426635
0.426711
0.527584
0.539313
0.521948
0.521364
0.515124
0.513088
0.491863
0.493368
0.500906
0.494378
0.505847
0.491847
0.491852
0.503418
0.503423
0.48439
0.484403
0.484387
0.484404
0.499449
0.499461
0.494683
0.480792
0.48079
0.480789
0.466858
0.466858
0.466858
0.472253
0.535113
0.535098
0.535116
0.531122
0.535105
0.441157
0.441167
0.441138
0.441175
0.498314
0.543471
0.493663
0.535482
0.535482
0.495491
0.486638
0.486635
0.486633
0.486628
0.497978
0.497975
0.490254
0.490645
0.490644
0.474512
0.47451
0.474507
0.4745
0.500866
0.500866
0.470146
0.46572
0.526225
0.55764
0.557683
0.557647
0.557656
0.557637
0.419431
0.419424
0.419451
0.419416
0.419475
0.425403
0.467527
0.489513
0.519694
0.508764
0.508759
0.519693
0.51973
0.51963
0.477988
0.477944
0.496309
0.50322
0.503239
0.503167
0.478735
0.472188
0.472185
0.472185
0.458564
0.458559
0.458564
0.458552
0.520501
0.529128
0.529186
0.529135
0.529164
0.529127
0.410909
0.410888
0.410928
0.410866
0.42668
0.553176
0.543275
0.521674
0.525705
0.515101
0.515101
0.51671
0.51671
0.516709
0.514202
0.475503
0.475507
0.492264
0.475353
0.49441
0.487158
0.473315
0.481363
0.490751
0.490759
0.475209
0.471312
0.471306
0.540482
0.547719
0.54778
0.547725
0.547728
0.414195
0.414172
0.414217
0.414153
0.429085
0.553328
0.562053
0.562055
0.562047
0.520495
0.492658
0.492668
0.484662
0.469127
0.469129
0.469119
0.469122
0.469101
0.509341
0.52546
0.525413
0.525459
0.525413
0.493415
0.435064
0.435011
0.435064
0.435011
0.448082
0.563708
0.563274
0.464628
0.545076
0.417727
0.417753
0.428775
0.524295
0.552268
0.540885
0.516375
0.516386
0.519162
0.519694
0.500874
0.470503
0.449548
0.449526
0.48252
0.454573
0.338503
0.305962
0.546628
0.831707
0.831778
0.831707
0.830281
0.702899
0.557394
0.520954
0.558685
0.55195
0.457202
0.40618
0.455712
0.524772
0.505198
0.521127
0.402453
0.402443
0.402458
0.429216
0.567486
0.567484
0.52942
0.505433
0.502394
0.502394
0.517216
0.54987
0.549886
0.54987
0.516869
0.490608
0.490607
0.490613
0.494116
0.527328
0.521281
0.512879
0.537087
0.55514
0.516906
0.478086
0.475456
0.475479
0.516942
0.540276
0.540284
0.52524
0.492224
0.390397
0.496545
0.543681
0.483949
0.418978
0.403193
0.403175
0.386112
0.289142
0.216677
0.273013
0.458668
0.65909
0.737812
0.737862
0.594113
0.473126
0.443842
0.443841
0.444245
0.46781
0.513162
0.536894
0.536872
0.536877
0.523396
0.47548
0.445705
0.445705
0.494797
0.499417
0.458381
0.445712
0.389416
0.389416
0.45384
0.584736
0.584759
0.529886
0.453369
0.453377
0.453359
0.591954
0.601732
0.601769
0.60173
0.546684
0.510985
0.510991
0.512365
0.488305
0.488307
0.488309
0.511264
0.530384
0.480908
0.318514
0.192899
0.18579
0.18578
0.444629
0.728267
0.728361
0.728267
0.728284
0.591574
0.462033
0.374957
0.374959
0.479296
0.573334
0.573285
0.573311
0.527425
0.465533
0.461644
0.461599
0.461644
0.4616
0.512486
0.595282
0.565267
0.465133
0.388207
0.340463
0.374055
0.524262
0.621113
0.621055
0.62111
0.569026
0.453166
0.424781
0.424779
0.465174
0.511772
0.511663
0.511682
0.458732
0.458694
0.41318
0.41318
0.451024
0.586501
0.630173
0.613852
0.564046
0.56411
0.564046
0.564111
0.56404
0.564065
0.529874
0.489137
0.484581
0.481335
0.480274
0.484179
0.542357
0.542385
0.542352
0.499667
0.475371
0.465159
0.452476
0.452447
0.47913
0.484231
0.473874
0.485806
0.516766
0.500861
0.516711
0.422691
0.42269
0.482556
0.551427
0.587517
0.604019
0.604026
0.582098
0.491424
0.491453
0.491417
0.491453
0.491391
0.51647
0.543036
0.543036
0.543036
0.527514
0.483594
0.483565
0.518173
0.518169
0.514317
0.515703
0.515694
0.515703
0.51121
0.383692
0.371306
0.393198
0.449228
0.426561
0.426784
0.50112
0.521554
0.507696
0.504859
0.491865
0.491863
0.491859
0.491857
0.491852
0.491853
0.491848
0.491848
0.491847
0.491851
0.502365
0.516329
0.516326
0.484404
0.48439
0.484406
0.485481
0.517576
0.517578
0.480792
0.48566
0.500349
0.466858
0.47196
0.461513
0.488123
0.53512
0.535098
0.535118
0.535105
0.441152
0.441138
0.441165
0.441129
0.441175
0.54345
0.548867
0.544063
0.50886
0.486647
0.486642
0.501776
0.501775
0.486626
0.480076
0.497973
0.497971
0.47452
0.474515
0.474515
0.474508
0.475273
0.51265
0.512649
0.492572
0.492569
0.496526
0.503293
0.557682
0.55764
0.557681
0.55764
0.557659
0.441636
0.419452
0.419424
0.495926
0.542462
0.542483
0.516742
0.489521
0.511311
0.512553
0.512549
0.497403
0.477987
0.478002
0.477961
0.477985
0.477962
0.477985
0.477961
0.481697
0.51639
0.51639
0.515897
0.460462
0.458559
0.486573
0.497233
0.497236
0.507124
0.471113
0.471111
0.528478
0.529128
0.521216
0.410909
0.410927
0.410887
0.472983
0.535072
0.507701
0.507706
0.507749
0.525702
0.525701
0.524669
0.483275
0.483274
0.502897
0.514195
0.508996
0.47332
0.473329
0.473293
0.473317
0.47328
0.473312
0.473291
0.48809
0.475468
0.486634
0.533385
0.547802
0.547719
0.54782
0.547725
0.54776
0.545339
0.414187
0.414209
0.41417
0.42365
0.531154
0.553366
0.543922
0.520582
0.526577
0.526575
0.522232
0.484797
0.484789
0.507695
0.507691
0.505354
0.471908
0.469074
0.469091
0.470088
0.524908
0.513784
0.460379
0.435064
0.435035
0.435064
0.435011
0.486295
0.563785
0.563707
0.563775
0.563707
0.563708
0.417697
0.417728
0.455969
0.516331
0.516342
0.516353
0.516364
0.516963
0.519495
0.517326
0.494861
0.461433
0.460974
0.447646
0.34133
0.1836
0.121353
0.345403
0.824966
0.831778
0.831707
0.831684
0.670209
0.507688
0.461306
0.461011
0.508242
0.551927
0.505815
0.460424
0.499243
0.524809
0.521285
0.52119
0.402443
0.402451
0.402433
0.436975
0.558332
0.562036
0.531946
0.508882
0.502394
0.502394
0.541114
0.549886
0.54987
0.549871
0.516656
0.490603
0.490608
0.503205
0.527954
0.527964
0.495547
0.475435
0.475395
0.475435
0.475395
0.475435
0.475412
0.522495
0.540267
0.540277
0.517398
0.418462
0.447908
0.367455
0.43708
0.441209
0.37782
0.386221
0.420529
0.420526
0.34595
0.315985
0.395924
0.529817
0.629598
0.638271
0.612314
0.580827
0.504294
0.445366
0.443842
0.443841
0.486783
0.536873
0.536894
0.536873
0.536877
0.497676
0.445707
0.445705
0.445705
0.445699
0.49714
0.499406
0.432949
0.432973
0.389416
0.407395
0.58465
0.58467
0.543236
0.482498
0.453387
0.453369
0.488718
0.601722
0.601756
0.572076
0.530759
0.523381
0.523347
0.534528
0.534487
0.534528
0.534487
0.531858
0.498291
0.460476
0.383042
0.26202
0.192924
0.194998
0.516177
0.728257
0.728332
0.701346
0.65266
0.593063
0.441896
0.42219
0.374957
0.374957
0.457466
0.573285
0.573321
0.566047
0.484375
0.461644
0.461625
0.461644
0.529749
0.595317
0.595296
0.59532
0.552384
0.432792
0.383624
0.383592
0.43891
0.509386
0.574902
0.577226
0.514168
0.445978
0.424781
0.424783
0.424781
0.434848
0.511662
0.511778
0.511687
0.447029
0.447052
0.413178
0.41318
0.441606
0.623637
0.628172
0.56588
0.553132
0.553127
0.553125
0.547053
0.547051
0.554335
0.569756
0.51001
0.480222
0.480263
0.480127
0.496772
0.542385
0.542357
0.542385
0.540127
0.51477
0.503917
0.481701
0.442995
0.422325
0.422308
0.46731
0.516766
0.516872
0.516778
0.516816
0.422691
0.422691
0.422678
0.565702
0.590176
0.59016
0.593677
0.613906
0.613938
0.613902
0.589935
0.541118
0.535431
0.543026
0.543036
0.51754
0.493528
0.526766
0.499721
0.483538
0.483525
0.483522
0.483519
0.48349
0.48349
0.483493
0.43469
0.383697
0.428141
0.503613
0.518666
0.528007
0.535761
0.53435
0.491546
0.495387
0.491873
0.49187
0.519867
0.51987
0.506941
0.494073
0.513485
0.491848
0.491844
0.51173
0.511727
0.510946
0.516327
0.485556
0.485549
0.484406
0.493224
0.517576
0.517578
0.480797
0.480794
0.489697
0.500351
0.466858
0.474434
0.461515
0.485879
0.5351
0.535118
0.530045
0.535092
0.441152
0.441167
0.441135
0.485959
0.49721
0.4972
0.54891
0.548912
0.528999
0.504341
0.524278
0.52428
0.477022
0.477018
0.474532
0.474529
0.474526
0.474519
0.47452
0.488734
0.493458
0.493457
0.512649
0.512517
0.500039
0.490099
0.473269
0.485842
0.557632
0.557682
0.55764
0.501929
0.553903
0.419454
0.41943
0.419475
0.419443
0.41948
0.450896
0.543784
0.543799
0.534611
0.507681
0.512563
0.512549
0.512563
0.512545
0.50584
0.477961
0.477985
0.47796
0.479005
0.481706
0.469031
0.466364
0.466362
0.46618
0.473929
0.497223
0.49723
0.495445
0.469044
0.469041
0.508909
0.528443
0.518362
0.518385
0.41093
0.410909
0.410948
0.496077
0.558879
0.558887
0.507699
0.507703
0.507696
0.492865
0.483275
0.483263
0.511028
0.511026
0.50413
0.474477
0.474489
0.537376
0.5374
0.537378
0.53693
0.486129
0.460633
0.46063
0.460627
0.460618
0.480022
0.494183
0.532494
0.547719
0.547745
0.521141
0.530247
0.414209
0.414187
0.414222
0.457935
0.561584
0.561586
0.518262
0.505175
0.505167
0.505176
0.516094
0.527616
0.527604
0.507516
0.469086
0.469093
0.469075
0.469091
0.469065
0.47087
0.524904
0.513736
0.451639
0.435052
0.435064
0.435045
0.559769
0.563725
0.56369
0.563769
0.563707
0.563715
0.563687
0.417669
0.417697
0.422357
0.533051
0.533051
0.516364
0.516376
0.547237
0.559806
0.559813
0.542729
0.499867
0.431637
0.319243
0.173826
0.0556755
0.0556836
0.255309
0.785191
0.831707
0.82834
0.701001
0.575521
0.504827
0.471132
0.456885
0.456872
0.483251
0.524839
0.524773
0.524826
0.524774
0.524788
0.520589
0.402444
0.402433
0.40245
0.402409
0.444345
0.562024
0.562024
0.521276
0.503601
0.542545
0.542537
0.532657
0.529212
0.547665
0.529672
0.490606
0.490603
0.490608
0.490601
0.50978
0.505688
0.495484
0.475435
0.475393
0.49299
0.515532
0.515552
0.507059
0.513691
0.538669
0.51814
0.418296
0.435224
0.328441
0.328412
0.32847
0.32838
0.328479
0.364026
0.482784
0.486216
0.47324
0.49799
0.556152
0.60113
0.600767
0.54532
0.493843
0.460772
0.443842
0.443842
0.443842
0.447653
0.456257
0.487053
0.524285
0.536857
0.536564
0.52113
0.521128
0.519418
0.475272
0.465983
0.499383
0.488456
0.488437
0.389422
0.391918
0.523759
0.541256
0.53151
0.486824
0.453377
0.475997
0.568103
0.601307
0.58333
0.566489
0.566485
0.558307
0.519238
0.492264
0.492268
0.498683
0.526905
0.515499
0.472891
0.404346
0.31381
0.216975
0.192952
0.202204
0.560239
0.728322
0.695677
0.542721
0.487157
0.488647
0.42452
0.437637
0.391988
0.489677
0.551077
0.551064
0.548105
0.522415
0.484366
0.494678
0.574194
0.574246
0.574194
0.559671
0.523144
0.498547
0.488535
0.488527
0.504809
0.495747
0.488297
0.490028
0.529347
0.577195
0.555208
0.478331
0.426114
0.424781
0.424783
0.488608
0.511798
0.511687
0.511789
0.511687
0.509972
0.41318
0.413176
0.413172
0.59314
0.626631
0.553146
0.553138
0.553132
0.582042
0.576074
0.569798
0.569793
0.569788
0.520171
0.480263
0.480138
0.480263
0.503314
0.542357
0.527516
0.506266
0.506268
0.506268
0.51726
0.478492
0.428888
0.422311
0.472912
0.516755
0.516883
0.516766
0.516854
0.516762
0.422691
0.422691
0.489346
0.586336
0.590133
0.590146
0.590159
0.601959
0.60975
0.537291
0.532225
0.538211
0.543015
0.543029
0.515563
0.490461
0.490448
0.490449
0.490396
0.490406
0.532672
0.532734
0.532672
0.524328
0.524329
0.52433
0.495346
0.411688
0.411682
0.411682
0.503789
0.533033
0.535889
0.494645
0.491545
0.491542
0.505319
0.505318
0.497086
0.497084
0.497081
0.519435
0.519436
0.513301
0.490494
0.490492
0.490491
0.490489
0.485574
0.485563
0.52112
0.521115
0.497936
0.51695
0.499566
0.499562
0.513043
0.507001
0.49604
0.496018
0.496025
0.465374
0.522514
0.535108
0.495982
0.469981
0.469978
0.464792
0.519579
0.519585
0.492566
0.481929
0.497183
0.49719
0.497194
0.498675
0.498678
0.524073
0.531357
0.531343
0.53135
0.531343
0.531286
0.508405
0.508405
0.508404
0.478318
0.478317
0.473267
0.473253
0.473267
0.473239
0.473267
0.473238
0.473272
0.518836
0.510203
0.450302
0.419502
0.419492
0.419464
0.490304
0.535402
0.573836
0.573832
0.573835
0.52343
0.485677
0.485675
0.485672
0.48567
0.485672
0.485674
0.485678
0.492658
0.506295
0.506288
0.497524
0.480435
0.48044
0.499402
0.522491
0.479256
0.461177
0.461177
0.461177
0.461172
0.477899
0.521329
0.512815
0.508919
0.513344
0.521786
0.518718
0.411104
0.484297
0.496118
0.496117
0.496119
0.506495
0.527644
0.527624
0.527644
0.527621
0.504272
0.478926
0.477138
0.477136
0.477135
0.477118
0.535725
0.535735
0.497473
0.497473
0.497472
0.497469
0.505531
0.505531
0.504482
0.460627
0.46063
0.462038
0.538014
0.507175
0.419932
0.41428
0.414268
0.414231
0.527284
0.561744
0.561759
0.55344
0.519552
0.51899
0.525548
0.527637
0.527619
0.527636
0.527617
0.490166
0.469093
0.469096
0.481931
0.481943
0.469077
0.469088
0.469068
0.508676
0.512525
0.483942
0.474894
0.471516
0.494607
0.531055
0.517008
0.455667
0.455674
0.455665
0.511817
0.471426
0.417614
0.496261
0.557286
0.557285
0.533044
0.533096
0.579425
0.579423
0.524742
0.505806
0.504719
0.422512
0.24721
0.111206
0.055676
0.0556807
0.0556775
0.255358
0.716396
0.799531
0.645398
0.530688
0.518974
0.518973
0.507733
0.460728
0.456874
0.456872
0.456953
0.49132
0.460525
0.450346
0.450327
0.456385
0.432557
0.432579
0.426198
0.404638
0.417831
0.512199
0.562027
0.562006
0.562023
0.562003
0.523013
0.49061
0.490609
0.490599
0.490606
0.490589
0.512333
0.530831
0.530846
0.530548
0.496018
0.475453
0.47541
0.518819
0.518802
0.498398
0.459084
0.459618
0.473911
0.451271
0.415846
0.40428
0.403316
0.351935
0.358281
0.360719
0.423263
0.497125
0.53037
0.524299
0.520799
0.512319
0.48221
0.46729
0.46729
0.467284
0.496193
0.494096
0.498932
0.483037
0.453712
0.446883
0.446893
0.446902
0.447921
0.486114
0.492333
0.506688
0.521127
0.521128
0.504646
0.435309
0.404298
0.404267
0.404298
0.416337
0.389423
0.446912
0.52761
0.5522
0.552203
0.535492
0.504758
0.526337
0.560486
0.561414
0.523956
0.49176
0.501202
0.528108
0.526717
0.508774
0.493504
0.467803
0.438311
0.438297
0.438273
0.438297
0.362629
0.240167
0.192982
0.268411
0.598643
0.728247
0.648159
0.441457
0.373691
0.373688
0.373691
0.440898
0.525141
0.548138
0.548152
0.492073
0.484421
0.484414
0.484376
0.565845
0.574254
0.574194
0.566169
0.492333
0.473085
0.493878
0.538509
0.538525
0.509515
0.488293
0.488306
0.488253
0.488323
0.489813
0.536148
0.479574
0.433802
0.440932
0.493989
0.505555
0.505603
0.426975
0.417171
0.417164
0.417165
0.413178
0.41318
0.523366
0.630363
0.630366
0.613718
0.610968
0.610956
0.602384
0.539403
0.525743
0.539996
0.518521
0.480494
0.480242
0.480263
0.480192
0.505761
0.530957
0.503548
0.503539
0.506659
0.531523
0.531519
0.531523
0.510487
0.450545
0.450111
0.450169
0.494866
0.509532
0.462724
0.422905
0.422816
0.545311
0.616103
0.616106
0.590146
0.590163
0.633771
0.633769
0.633764
0.576535
0.532226
0.53571
0.543018
0.505127
0.490474
0.490451
0.490462
0.490417
0.491214
0.532667
0.532739
0.517693
0.491097
0.491084
0.491073
0.488804
0.448161
0.448163
0.457033
0.457054
0.457013
0.528085
0.536016
0.503157
0.492192
0.491541
0.505318
0.499615
0.507161
0.502834
0.497079
0.493021
0.484993
0.497896
0.504894
0.505688
0.505688
0.485582
0.485572
0.491524
0.501476
0.497301
0.505663
0.516951
0.49957
0.507232
0.513044
0.507004
0.512048
0.512056
0.489506
0.504687
0.5351
0.535108
0.5351
0.535103
0.53509
0.458253
0.458265
0.458241
0.458275
0.458259
0.543726
0.543716
0.520202
0.498837
0.501599
0.514524
0.525587
0.525922
0.486604
0.486599
0.48659
0.49154
0.478466
0.478465
0.478464
0.473268
0.473249
0.473267
0.473243
0.473267
0.501857
0.541926
0.542288
0.542336
0.542299
0.542343
0.542299
0.542298
0.419488
0.419493
0.419513
0.419472
0.505099
0.540702
0.535968
0.535968
0.535968
0.533372
0.49591
0.485674
0.490196
0.519517
0.519523
0.504803
0.481431
0.481428
0.48044
0.480618
0.501792
0.522492
0.522495
0.501
0.461178
0.480839
0.521766