/*--------------------------------*- C++ -*----------------------------------*\
  =========                 |
  \\      /  F ield         | OpenFOAM: The Open Source CFD Toolbox
   \\    /   O peration     | Website:  https://openfoam.org
    \\  /    A nd           | Version:  7
     \\/     M anipulation  |
\*---------------------------------------------------------------------------*/
FoamFile
{
    version     2.0;
    format      ascii;
    class       surfaceScalarField;
    location    "5000";
    object      alphaPhi;
}
// * * * * * * * * * * * * * * * * * * * * * * * * * * * * * * * * * * * * * //

dimensions      [0 3 -1 0 0 0 0];

internalField   nonuniform List<scalar> 
319200
(
-1.14144e-17
5.44802e-17
-8.06992e-18
-3.73066e-18
-1.31192e-16
-6.75747e-18
-2.67298e-16
-1.81881e-17
-3.37436e-16
-8.06408e-17
-4.29492e-16
-7.34547e-17
-5.28432e-16
-8.9335e-17
-5.39806e-16
-8.29247e-18
-6.66517e-16
9.21563e-18
-7.47181e-16
-1.93209e-17
-7.95278e-16
-6.23884e-17
-8.98819e-16
-2.7015e-17
-9.06285e-16
-1.3021e-16
-6.98653e-16
-2.43865e-16
-6.27979e-16
-1.81335e-16
-7.56188e-16
-3.77073e-17
-7.63649e-16
-1.04233e-16
-8.96011e-16
1.90699e-17
-1.06058e-15
9.27182e-17
-1.19482e-15
6.35113e-17
-1.29638e-15
3.3009e-17
-1.46563e-15
5.19377e-17
-1.61769e-15
2.91309e-17
-1.83531e-15
6.37746e-17
-2.07968e-15
1.19899e-17
-1.93899e-15
-1.91656e-16
-1.74725e-15
-3.22002e-16
-1.0215e-15
-1.20702e-16
-1.62876e-15
-1.42966e-16
-5.48828e-16
-1.60452e-17
-1.93751e-15
1.00819e-16
-5.9371e-16
1.95742e-16
-2.68966e-15
3.98674e-17
-1.6084e-15
-6.66047e-17
-2.30962e-15
-1.27339e-16
-2.38576e-15
-4.23946e-17
-2.57091e-15
6.31797e-17
-2.48182e-15
-2.19521e-16
-2.11194e-15
-4.71695e-16
-1.86317e-15
-8.52461e-17
-2.41616e-15
7.60188e-17
-2.26551e-15
8.6994e-17
-2.30582e-15
-1.22228e-17
-2.04034e-15
-1.05471e-16
-1.77746e-15
-8.00695e-17
-1.56139e-15
-3.5501e-17
-1.81386e-15
1.01354e-16
-2.80524e-15
-3.53638e-17
-1.78661e-15
-1.37255e-16
-2.58626e-15
1.53263e-16
-2.98291e-15
5.87364e-16
-3.40274e-15
9.00897e-17
-1.7639e-15
-2.7047e-16
-3.13789e-15
-1.96398e-16
-2.70453e-16
-8.65662e-17
-2.23557e-15
-3.08957e-16
-2.16535e-16
-1.63566e-16
-5.70414e-16
-1.52051e-16
-5.68562e-16
7.07708e-17
-7.71785e-16
2.12056e-16
-8.83858e-16
1.13137e-17
-8.33691e-16
-1.80692e-16
-8.03941e-16
-9.26106e-17
-8.62389e-16
-6.38648e-17
-2.5545e-15
1.53523e-16
-1.07592e-15
2.25946e-16
-2.65593e-15
-1.88118e-16
-6.88886e-16
-3.24564e-16
-8.44204e-16
-2.56548e-16
-9.10725e-16
1.84625e-16
-9.76553e-16
2.54241e-16
-1.03772e-15
2.12038e-16
-9.46073e-16
9.16506e-17
-7.47015e-16
-3.94644e-17
-5.41185e-16
-9.95337e-17
-9.20135e-16
-4.73376e-17
-5.25058e-16
2.11513e-17
-4.76568e-16
-6.71145e-18
-5.32686e-16
9.00482e-18
-6.92011e-16
4.8313e-17
-9.34939e-16
1.67354e-16
-9.83067e-16
-8.86651e-17
-7.78371e-16
-2.71455e-16
-4.97141e-16
-3.17737e-16
-4.20005e-16
-2.74486e-17
-6.78666e-16
7.59568e-17
-7.23686e-16
1.07295e-16
-1.00549e-15
9.95075e-17
-2.41334e-15
1.67067e-17
-1.05526e-15
-1.29989e-18
-2.04959e-15
1.04869e-16
-5.25452e-16
2.95699e-16
-2.6176e-15
2.422e-17
-3.10013e-16
5.27207e-17
-1.15571e-15
-1.31631e-16
-1.09e-15
-1.35918e-16
-7.35758e-16
-8.77094e-17
-8.05265e-16
-5.89757e-17
-8.06227e-16
-2.25537e-17
-1.97053e-16
-3.10139e-17
-8.76295e-16
-4.88972e-18
-1.8726e-15
1.47425e-16
-9.07719e-17
-1.4438e-16
-8.17378e-16
-5.69978e-17
-2.29525e-15
2.18351e-16
-1.00161e-15
7.09517e-17
-1.69853e-15
-1.00522e-16
-7.34064e-16
7.69206e-17
-2.09404e-15
1.25042e-16
-4.11193e-16
6.99979e-17
-1.24448e-15
1.86725e-17
-1.05423e-15
9.22585e-17
-1.07619e-15
-1.15382e-17
-1.21783e-15
-1.54032e-16
-7.16456e-16
-6.60983e-17
-1.00341e-15
-1.4451e-18
-9.76466e-16
6.10139e-17
-1.25615e-15
1.44105e-16
-1.04905e-15
-1.42961e-16
-7.90155e-16
-2.08469e-16
-9.69681e-16
1.06948e-16
-6.71133e-16
3.58338e-16
-3.13986e-15
3.50767e-16
-1.36459e-15
2.8681e-16
-4.00738e-15
2.28225e-16
-2.04577e-15
-4.42871e-17
-2.06506e-15
-3.44484e-16
-1.6402e-15
-2.31547e-16
-1.91197e-15
1.509e-17
-1.91133e-15
3.44049e-17
-2.06094e-15
-9.13615e-17
-1.84577e-15
-8.90028e-17
-1.81572e-15
1.74004e-16
-1.87618e-15
1.93374e-16
-1.60605e-15
-1.61521e-16
-9.16894e-16
-4.98909e-16
-7.16181e-16
-1.37831e-16
-1.18655e-15
3.49809e-16
-1.63021e-15
2.50927e-17
-1.74036e-15
1.16686e-16
-4.12594e-15
4.98644e-17
-1.61651e-15
-1.29514e-16
-2.35493e-15
4.63223e-17
6.09093e-16
3.69654e-16
-3.48072e-15
1.87944e-16
-1.0641e-16
-3.78927e-17
-4.51308e-15
-1.31218e-16
-1.34153e-15
-9.20243e-17
-1.11881e-15
-2.58528e-16
-7.14422e-16
-4.36463e-16
-6.70118e-16
2.67048e-17
-1.03399e-15
3.45825e-16
6.33424e-17
7.24229e-17
-9.28349e-16
-5.50219e-17
-6.40313e-16
7.53808e-17
-2.01581e-15
1.36945e-16
-6.99726e-16
4.08088e-16
-2.46992e-15
1.6114e-16
-9.91733e-16
-8.25431e-17
-1.03217e-15
-1.87419e-16
-9.26359e-16
-1.50679e-16
-9.12612e-16
6.81203e-17
-1.619e-15
2.20001e-16
-1.40275e-15
7.36987e-18
-1.11364e-15
-1.03124e-16
-8.33269e-16
-1.11476e-16
-6.7745e-16
1.19692e-17
-5.34219e-16
7.04841e-17
-4.90431e-16
1.84894e-16
-5.34558e-16
2.56437e-16
-7.21358e-16
-1.40406e-16
-1.21687e-15
-1.04936e-16
-5.53156e-16
-2.23015e-16
-8.86395e-16
-1.95111e-16
-1.11708e-15
1.64476e-16
-1.10726e-15
-8.96749e-17
-1.56799e-15
3.27723e-16
-2.56261e-15
3.90394e-16
1.49328e-15
2.14857e-16
-2.47195e-15
-2.69152e-16
-2.06582e-15
-9.44163e-17
-2.91551e-15
-3.23981e-16
-1.62491e-15
-5.08934e-16
-1.08247e-15
-4.19867e-16
-7.80819e-16
-1.46469e-16
-3.94752e-16
1.09154e-16
-6.18953e-16
1.02438e-16
-3.29556e-16
-1.1261e-17
-7.65724e-17
3.41388e-17
-2.15021e-16
1.88798e-16
-7.76709e-16
2.808e-16
-1.36976e-15
6.83973e-17
-1.15452e-15
-5.02953e-16
2.86472e-16
-4.19823e-16
-4.53774e-16
-4.80737e-17
8.29531e-18
6.43211e-17
-3.68875e-16
2.56038e-16
-7.09275e-15
-4.10508e-16
-4.07366e-16
1.7788e-16
-7.21911e-15
-5.48641e-16
-1.4778e-15
-4.47769e-16
-3.07503e-15
-4.69119e-16
-2.38834e-15
-3.23471e-18
-1.98462e-15
-9.58625e-17
-2.8257e-15
1.64066e-16
-3.17356e-15
1.6787e-16
-2.2725e-15
-4.0462e-16
-6.73598e-15
-2.64495e-16
-3.75741e-15
5.18489e-17
-4.99115e-15
-2.1948e-16
-4.14979e-15
-1.7993e-16
-4.00632e-15
-4.4949e-16
-3.82795e-15
-1.61931e-16
-3.99046e-15
1.91758e-16
-3.7361e-15
-8.71872e-17
-3.31637e-15
-6.46931e-17
-3.80945e-15
5.28551e-16
-4.41734e-15
6.47953e-16
-8.45602e-15
4.30046e-16
-4.44903e-15
5.35347e-16
-8.70638e-15
-1.44184e-16
-4.57765e-15
-7.41127e-16
-4.08208e-15
-6.53855e-16
-3.65202e-15
-3.0014e-16
-2.66019e-15
-2.52078e-16
-4.83621e-15
-2.31654e-16
-1.48556e-15
-9.31959e-17
-4.1627e-15
-1.59579e-16
-1.84996e-15
-2.61104e-17
-1.38312e-15
-8.19155e-17
-1.10918e-15
2.7486e-17
-7.61463e-16
-1.46555e-16
-1.28098e-17
6.16126e-17
-2.27834e-15
4.42948e-16
-7.04924e-16
2.22785e-16
-2.63478e-15
3.68229e-17
-5.87932e-16
-4.43039e-17
-2.01132e-15
5.39537e-17
-2.08074e-15
9.05205e-17
-2.1535e-15
1.93055e-17
-1.9754e-15
-1.56055e-16
-1.478e-15
-3.20676e-16
-1.00402e-15
-9.75805e-17
-5.57979e-16
3.07026e-16
1.63647e-16
3.33586e-16
4.1976e-16
4.12206e-16
3.40881e-16
2.42456e-16
3.79849e-15
-3.29409e-15
-6.87603e-16
-1.09276e-15
-6.94933e-15
-2.14959e-15
-1.9608e-15
-1.74008e-15
-3.018e-15
-1.86304e-15
-1.87759e-15
-6.54719e-16
-1.57292e-15
-4.63794e-17
-1.76119e-15
1.57949e-16
-2.07206e-15
2.4894e-16
-1.90441e-15
2.18534e-17
-2.72161e-15
5.51619e-16
-2.97816e-15
5.79855e-16
-3.55219e-15
1.57342e-16
-4.45228e-15
-4.04937e-16
-3.41868e-15
-8.00152e-16
-3.12369e-15
-4.83329e-16
-2.66867e-15
-1.91191e-16
-2.62229e-15
2.24106e-16
-2.69292e-15
3.4572e-16
-2.51226e-15
9.21609e-17
-2.34387e-15
1.78197e-16
-2.80354e-15
2.79255e-16
-2.94931e-15
-8.50996e-17
-1.15821e-15
-7.65554e-16
-3.45451e-15
-2.59604e-16
-8.77899e-16
1.77976e-16
-3.14479e-15
-6.68594e-17
-2.9327e-15
7.18624e-17
-2.60666e-15
1.43674e-16
-5.69701e-15
4.24295e-16
-2.19304e-15
2.40688e-16
-6.39865e-15
-3.3158e-16
-2.08601e-15
-1.68646e-16
-1.60776e-15
-1.1174e-16
-1.52416e-15
4.32475e-17
-8.44279e-17
-7.86576e-17
-1.684e-15
-7.34097e-17
-1.3707e-15
1.36973e-16
-4.79931e-15
3.64172e-16
-3.2562e-15
7.6178e-16
-4.7183e-15
5.43402e-16
-4.80929e-15
6.42331e-17
-3.87731e-15
-8.60368e-16
-2.85375e-15
-9.5444e-16
-2.0158e-15
-2.40152e-16
-1.80152e-15
4.99492e-16
-1.76263e-15
4.67825e-16
-1.80689e-15
4.1514e-16
-1.3794e-15
-4.68408e-17
-6.70771e-16
-2.84474e-16
3.26614e-16
-6.0195e-18
9.82566e-16
4.60467e-17
2.82941e-15
1.0407e-16
3.53258e-16
-1.96866e-16
-1.24608e-14
-1.07222e-15
5.64903e-15
-4.00348e-16
-1.09393e-14
-1.38178e-15
3.2312e-15
-8.76869e-16
-3.11478e-15
-1.29327e-15
-3.45967e-15
-2.36035e-16
-3.31814e-15
-1.44248e-17
-3.38789e-15
2.02485e-16
-3.95807e-15
4.67983e-16
-3.92666e-15
-6.97288e-17
-3.81401e-15
-7.86329e-17
-3.77714e-15
1.31022e-16
-4.01492e-15
4.15765e-17
-8.81562e-16
1.76744e-16
-7.45664e-15
1.5487e-16
-1.78873e-15
-4.31879e-16
-5.35784e-15
-5.49174e-16
-5.01096e-15
-1.03694e-16
-4.34167e-15
3.07957e-17
-3.79844e-15
3.24563e-16
-3.64708e-15
4.36027e-16
-1.00629e-15
3.41869e-16
-5.33598e-15
-5.88918e-16
2.22285e-15
9.68141e-17
-8.1573e-15
-6.593e-16
-5.85209e-16
-1.30412e-15
-1.17019e-16
-6.05087e-16
-3.27296e-16
-1.51961e-16
-1.27066e-16
-5.44551e-16
-2.94416e-16
-1.43055e-16
-1.27704e-15
2.95994e-16
-1.81029e-15
-1.61351e-16
-2.84617e-15
3.66584e-16
-3.70662e-15
3.95396e-16
-4.05763e-15
2.46359e-16
-4.92273e-15
6.4937e-16
-6.41366e-15
6.33231e-16
-6.85004e-15
-6.93463e-16
-7.91861e-15
-1.19228e-15
-6.9698e-15
-6.143e-16
-7.37837e-15
1.22043e-16
-7.52648e-15
4.13095e-16
-8.50613e-15
9.98903e-16
-8.64631e-15
1.3221e-16
-8.3038e-15
-3.06276e-16
-7.78937e-15
-5.23266e-16
-1.34932e-14
-1.31797e-15
1.62721e-16
3.39015e-16
-1.31029e-14
-3.14373e-16
-5.97313e-15
-4.72716e-16
-5.39831e-15
-4.0402e-16
-4.78976e-15
-4.85036e-16
-4.67624e-15
-1.12811e-16
-4.9578e-15
2.9246e-16
-2.66951e-15
-1.09182e-16
-8.47925e-15
-2.24681e-16
-2.42173e-15
-3.67429e-17
-8.23199e-15
-8.54964e-17
-4.39887e-15
-1.61205e-16
-4.05757e-15
-7.37284e-17
-3.89201e-15
2.23265e-16
-3.986e-15
4.11128e-16
-7.42688e-15
2.94452e-16
-3.25564e-15
-4.96814e-16
-6.21925e-15
-6.64481e-16
9.97267e-16
4.55134e-16
-8.27697e-15
2.49641e-16
-1.85896e-15
-4.83011e-16
-1.1043e-15
-8.62284e-16
-1.2732e-15
3.14017e-16
-2.52873e-15
1.15285e-15
-1.37631e-15
1.43565e-15
-5.36594e-15
4.18636e-16
-4.4737e-15
-3.99183e-16
-4.94958e-15
-7.21572e-16
-3.63211e-15
-1.44418e-15
-3.21738e-15
-4.75456e-16
-2.88521e-15
-3.89075e-16
-2.65209e-15
-2.92157e-16
-1.99782e-15
-4.20966e-17
-1.62096e-15
-1.39673e-16
-7.02351e-16
8.84698e-16
-5.84893e-15
1.08588e-15
-1.79036e-15
4.29875e-16
-6.08595e-15
9.78632e-17
-5.39634e-16
1.14872e-17
-2.75889e-15
-5.65669e-16
-1.77038e-15
-7.33957e-16
-1.36572e-15
-4.36312e-17
-1.08287e-15
1.3737e-16
-6.45176e-16
-1.21323e-16
-7.13542e-16
1.27281e-16
-1.34299e-15
1.96349e-16
-2.31819e-15
3.7028e-16
-3.59427e-15
1.19949e-16
-6.78162e-15
3.41626e-17
-1.00682e-14
6.47099e-16
-1.51238e-14
9.68656e-16
-1.85181e-16
-3.78615e-17
-7.11603e-17
-8.08021e-17
-7.77528e-17
6.2182e-18
-2.03984e-17
-1.32635e-16
-7.67102e-17
-2.7127e-16
-8.0513e-17
-3.76448e-16
-6.8193e-17
-4.59863e-16
-1.16746e-16
-3.47375e-16
-3.72258e-17
-3.96944e-16
-4.47904e-17
-4.2686e-16
-4.73445e-17
-5.15949e-16
-3.28884e-17
-5.14716e-16
2.15302e-17
-5.03478e-16
-9.30461e-17
-7.1973e-16
-2.55926e-16
-6.58014e-16
-1.88608e-16
-4.67877e-16
-5.56272e-17
-7.65257e-16
7.95408e-17
-9.88839e-16
1.18486e-16
-8.72207e-16
-6.86701e-17
-8.21458e-16
-9.85327e-17
-7.91305e-16
-2.07092e-17
-9.43672e-16
6.88823e-17
-9.42364e-16
2.28922e-17
-1.05019e-15
-6.6973e-17
-1.02164e-15
-2.05635e-17
-1.52291e-15
5.33232e-18
-1.11966e-15
-1.45735e-16
-1.60123e-15
-3.5677e-16
-3.70233e-16
-9.56882e-17
-3.88517e-16
-1.0384e-17
-3.67048e-16
-1.04723e-16
-3.14034e-16
-7.78241e-17
-2.98486e-16
-6.61732e-17
-9.64263e-16
-5.65464e-17
-1.22051e-15
7.04891e-17
-1.43411e-15
4.87316e-17
-1.40398e-15
-9.56242e-17
-1.50868e-15
-1.97102e-16
-1.16874e-15
-5.42475e-17
-1.70658e-15
-1.18299e-16
-1.19477e-15
-1.49081e-16
-1.5411e-15
-1.02464e-17
-1.62073e-15
-3.34499e-17
-1.49309e-15
-8.03075e-17
-1.50166e-15
1.10216e-16
-1.32742e-15
-1.23035e-17
-8.68611e-16
-1.86476e-16
-9.73212e-16
-1.58416e-16
-2.24804e-15
-7.44481e-17
-1.19311e-15
8.48314e-17
-9.76874e-16
3.44197e-16
-9.03721e-16
6.31152e-17
-1.34482e-15
1.96397e-17
-1.01308e-15
-1.27086e-16
-7.02262e-16
-2.75083e-16
-3.12353e-16
-1.65365e-16
-5.86759e-16
-7.59942e-17
-4.66783e-16
-1.87201e-16
-5.32904e-16
1.41322e-16
-3.69692e-16
1.19983e-16
-3.20388e-16
-2.85923e-17
-5.06877e-16
-6.1278e-17
-6.89099e-16
-4.24806e-18
-1.54085e-15
6.11922e-17
-7.47702e-16
-7.32599e-17
-7.28459e-16
5.28173e-17
-1.07228e-15
1.94212e-16
-1.48906e-15
1.13983e-16
-1.79782e-15
1.00047e-16
-1.67153e-15
9.47911e-18
-1.15604e-15
-2.84507e-16
-7.58272e-16
-2.28939e-16
-5.77263e-16
-8.36376e-17
-7.60846e-16
-4.14865e-17
-1.17174e-15
-4.39077e-17
-5.96723e-16
-4.78753e-18
-9.1647e-16
-1.82247e-16
-6.99386e-16
2.78808e-17
-1.81136e-15
1.9413e-16
-6.97166e-16
1.13657e-16
-6.8881e-16
-1.29431e-16
-7.94462e-16
-8.46171e-17
-1.19319e-15
5.85092e-17
-1.55862e-15
6.56881e-17
-1.68078e-15
-2.90197e-17
-1.21864e-15
-3.84423e-16
-9.13309e-16
-2.63013e-16
-1.67203e-15
1.0452e-16
5.66914e-17
1.75297e-16
-2.34021e-15
1.42555e-16
-2.95425e-16
1.92679e-16
-2.17998e-15
1.61393e-16
3.36631e-16
-3.37245e-17
-9.87402e-16
-2.11427e-16
-9.87082e-16
-2.05844e-16
-8.73995e-16
-1.1035e-16
-8.72971e-16
-1.33624e-16
-9.59478e-16
1.96503e-18
-1.03057e-15
3.05174e-18
-9.73052e-16
1.67299e-17
-4.14844e-16
-3.54796e-17
-9.22646e-16
-3.29334e-17
-1.10775e-15
2.56663e-16
-9.50969e-16
6.82529e-17
-8.50507e-16
-1.43331e-16
-1.46715e-15
1.64957e-16
-8.62762e-16
8.25329e-17
-2.44322e-15
-4.76483e-17
-6.39798e-16
-2.2179e-16
-2.00788e-15
-1.47503e-16
-1.24047e-15
-9.93521e-17
-1.00042e-15
-3.02572e-17
-9.53237e-16
1.19363e-16
-9.53038e-16
3.49343e-17
-9.55161e-16
2.36905e-17
-8.30598e-16
1.10307e-16
-1.04334e-15
1.36456e-16
-9.61033e-16
2.08441e-16
-3.8994e-16
2.63702e-16
-2.6975e-15
1.51195e-16
-6.59509e-16
-1.85437e-16
-1.77079e-15
-2.06465e-16
-1.1033e-15
1.24395e-16
-1.25078e-15
1.64995e-16
-1.2409e-15
1.41817e-16
-1.44022e-15
3.79722e-17
-1.8184e-15
-6.64393e-17
-2.33742e-15
3.68915e-17
-2.3454e-15
5.65725e-17
-2.48105e-15
-7.12508e-17
-2.57222e-15
3.10414e-17
-3.25882e-15
6.78567e-16
-3.43673e-15
5.63352e-16
-2.73099e-15
-2.77281e-16
-2.51093e-15
-2.00756e-16
-3.11788e-15
6.33509e-17
-1.59382e-15
-3.35699e-16
-1.98728e-15
-3.53472e-16
-1.61175e-15
4.08769e-17
-3.19857e-15
1.02204e-16
-8.74246e-16
-6.95901e-17
-3.34442e-15
-9.64163e-17
-1.1958e-15
2.56187e-16
-1.56057e-15
-3.48667e-18
-1.12333e-15
1.9532e-17
-1.16656e-15
8.69313e-17
-7.57365e-16
9.99646e-18
-1.38079e-15
-3.25025e-17
-1.68015e-15
7.52347e-18
-2.35245e-15
2.03316e-16
-2.33323e-15
-3.40695e-17
-1.74658e-15
-2.72934e-16
-1.92495e-15
-2.4042e-16
-5.67425e-16
6.32573e-17
-2.90769e-15
4.50587e-16
-6.57817e-16
1.37343e-16
-2.29739e-15
1.30047e-16
-1.21749e-15
1.27248e-16
-1.10371e-15
1.90306e-16
-2.17732e-15
8.3386e-18
-1.44638e-15
-1.12426e-16
-1.77865e-15
-1.88602e-16
-1.159e-15
-1.75337e-16
-9.66423e-16
-3.38783e-17
-1.0684e-15
2.22575e-16
-1.19662e-15
1.85404e-16
-8.2106e-16
-2.23911e-16
-3.7512e-16
-2.53867e-16
-7.18612e-17
-1.4416e-16
-2.30509e-16
-1.21986e-16
-9.02183e-16
-1.43563e-16
-1.06668e-15
2.93651e-16
-1.94071e-15
5.52478e-16
-2.6362e-15
3.52951e-16
-1.90885e-15
-3.02931e-16
-1.07525e-15
-3.36803e-16
-1.3246e-15
6.67036e-17
-9.16255e-16
3.87678e-16
-1.78573e-15
2.56781e-16
-1.74877e-15
8.06296e-17
-2.49147e-15
1.92982e-16
-2.13763e-15
-2.71478e-16
-2.05739e-15
-5.54326e-16
-1.85609e-15
-1.70757e-16
-1.4749e-15
4.52303e-17
-5.98763e-16
-8.8428e-17
9.70411e-17
-1.99483e-19
6.37309e-17
2.27799e-16
-2.2906e-16
2.10187e-16
-4.65991e-16
4.04646e-16
-3.39929e-15
-7.13576e-16
-2.3737e-15
-1.1834e-15
-1.56798e-15
-5.20224e-16
7.11702e-17
-3.54785e-16
9.47929e-16
-1.36713e-16
8.69657e-16
1.90489e-18
2.15713e-16
-2.01425e-16
-2.98837e-16
-4.78507e-16
-5.31405e-15
-5.62166e-16
-9.72814e-16
-3.92358e-16
-1.98118e-15
-7.30624e-16
-2.04151e-15
-1.7312e-16
-2.64441e-15
5.73967e-16
-3.46632e-15
6.08148e-16
-3.37453e-15
-1.08348e-16
-2.78555e-15
-1.03473e-15
-7.39234e-15
-1.26116e-15
-2.69008e-15
-1.99893e-16
-4.59973e-15
-4.28038e-16
-3.92264e-15
-5.90935e-16
-3.66661e-15
-6.61543e-16
-4.0928e-15
-6.54137e-18
-4.37814e-15
8.36331e-17
-4.02607e-15
-1.83215e-16
-3.99723e-15
-2.07817e-18
-4.06914e-15
1.69519e-16
-3.8277e-15
3.23114e-16
-3.66514e-15
4.26027e-16
-2.69911e-15
1.52388e-16
-3.04336e-15
4.0334e-17
-3.35784e-15
9.10329e-17
-4.53505e-15
3.16037e-16
-5.33243e-15
1.37337e-16
-5.13399e-15
1.18737e-16
-6.72468e-15
-2.32142e-16
-3.6772e-15
-4.90532e-16
-5.41641e-15
-9.42218e-16
-1.29786e-15
-4.997e-16
-5.66899e-15
-2.0115e-16
-1.49946e-15
2.30815e-16
-3.42228e-15
1.20361e-16
-2.31233e-15
3.5447e-16
-3.99132e-15
-1.68873e-16
-1.11323e-15
-6.09907e-16
-1.09042e-15
-1.64073e-16
-8.33146e-16
4.76519e-16
-3.17361e-15
3.20261e-16
-3.05792e-15
-3.75951e-17
-2.74466e-15
-2.71231e-16
-2.54159e-15
-1.62277e-16
-2.43835e-15
1.12621e-16
-2.2452e-15
2.12084e-16
-1.49891e-15
2.19108e-16
-4.67016e-16
2.81946e-16
-2.39559e-16
4.43627e-16
5.52825e-17
4.94797e-16
1.23279e-16
-3.63987e-16
-1.30629e-16
-4.24959e-15
-3.56042e-15
-1.5087e-15
-2.49223e-16
-1.93143e-15
-3.09817e-15
-2.13287e-15
-3.29058e-15
-1.28265e-15
-3.33758e-15
-9.2697e-16
-3.18707e-15
-6.87428e-16
-3.34211e-15
1.77964e-16
-3.1739e-15
3.32767e-16
-3.74798e-15
3.01429e-16
-3.47992e-15
5.81256e-16
-3.13674e-15
-7.06661e-17
-3.26066e-15
2.99885e-17
-3.35645e-15
-8.33743e-17
-4.17255e-15
-1.75681e-16
-4.56993e-15
6.94189e-18
-4.5451e-15
6.8359e-17
-3.69935e-15
-2.97868e-16
-2.70965e-15
-3.14054e-16
-2.68305e-15
4.36508e-16
-3.41288e-15
7.37774e-16
-3.307e-15
-4.56742e-17
-2.10457e-15
-6.59543e-16
-5.18233e-15
-5.615e-16
-2.15009e-15
-5.6392e-16
-4.29663e-15
-4.69444e-16
-3.39821e-15
-1.48942e-16
-3.6219e-15
5.30967e-16
-5.32568e-15
4.81229e-16
-2.15309e-15
4.84604e-16
-5.23192e-15
-1.54508e-16
-1.20351e-15
-5.15861e-16
-2.24644e-15
-1.94309e-16
-1.99851e-15
-9.08794e-17
-1.96983e-15
1.52883e-16
-5.59373e-15
2.70233e-16
-3.18007e-15
-1.33114e-16
-5.87331e-15
-4.29793e-16
-3.34974e-15
3.47029e-18
-4.36675e-15
4.89496e-16
-4.72856e-15
6.33079e-16
-5.33462e-15
4.70713e-16
-5.39721e-15
-5.23855e-16
-4.7399e-15
-9.23603e-16
-4.4873e-15
2.0725e-16
-3.56348e-15
2.86862e-16
-2.3444e-15
3.17147e-16
-1.57688e-15
7.8783e-16
-6.96109e-16
7.3753e-16
6.74893e-16
1.73401e-16
1.82981e-15
-9.09211e-18
3.74225e-15
3.08156e-16
6.30115e-16
3.23351e-16
3.80555e-15
-8.2321e-17
8.4057e-15
-1.08692e-15
-8.07999e-15
-1.84616e-15
-1.27217e-15
-1.18296e-15
-1.8744e-15
-8.16693e-16
-3.30093e-15
-2.41108e-16
-4.45551e-15
-2.05538e-16
-4.77228e-15
-5.50964e-16
-4.65657e-15
-2.41126e-16
-4.39431e-15
3.71719e-16
-4.73398e-15
1.08616e-16
-4.91989e-15
2.75265e-16
-5.31059e-15
3.46731e-16
-2.20711e-15
-9.00583e-18
-7.5455e-15
-7.50329e-16
-1.01198e-15
-9.63074e-16
-5.01431e-15
-3.20852e-16
-5.31083e-15
2.58846e-16
-4.84601e-15
3.57608e-16
-3.94441e-15
1.58672e-16
-3.43889e-15
5.3772e-16
-7.47619e-16
6.35384e-16
-1.96917e-15
-1.5514e-15
-3.38744e-16
-6.89658e-16
-3.19976e-15
-7.98072e-16
1.53637e-18
-3.55572e-16
-4.06568e-15
-3.59275e-16
-4.16331e-15
-8.95741e-16
-3.85705e-15
-8.03934e-16
-3.79889e-15
-6.4234e-16
-3.41592e-15
-6.77371e-16
-3.52968e-15
-5.74468e-17
-4.03714e-15
9.81193e-18
-4.52058e-15
3.49068e-16
-4.47202e-15
7.07805e-17
-4.4238e-15
2.24632e-16
-4.71718e-15
8.87604e-16
-4.75999e-15
3.92077e-16
-5.50911e-15
-2.03859e-16
-6.41977e-15
-4.35529e-16
-6.91885e-15
-3.1762e-16
-5.80634e-15
-8.80764e-16
-4.81346e-15
-3.1225e-16
-4.61898e-15
8.11245e-16
-4.37697e-15
-7.2822e-17
-4.5989e-15
-9.261e-17
-1.03022e-14
-4.5572e-16
1.25939e-16
1.07529e-15
-1.17742e-14
-2.71289e-16
-4.66824e-15
-6.42603e-16
-6.14725e-15
-3.31848e-16
-6.37932e-15
-1.68832e-16
-7.06428e-15
2.00596e-16
-7.28483e-15
1.18181e-16
-6.31564e-15
-6.75992e-16
-4.58992e-15
-8.59698e-16
-3.90697e-15
-4.31481e-16
-3.83326e-15
1.8228e-16
-3.43531e-15
3.72294e-16
-4.34919e-15
1.38196e-16
-4.18526e-15
-5.67066e-18
-3.86913e-15
1.17788e-16
-5.5704e-15
4.87786e-16
-2.3593e-15
9.11596e-16
-1.1775e-14
6.66517e-16
-4.30525e-15
7.70523e-16
-1.24047e-14
-1.36171e-16
-2.55724e-15
-8.5924e-16
-5.01868e-15
-1.40029e-15
-4.43997e-15
-1.35591e-15
-4.22028e-15
1.29851e-16
-4.33367e-15
1.24907e-15
-4.21084e-15
9.9829e-16
-4.32513e-15
6.2066e-16
-5.25251e-15
4.85151e-16
-6.33934e-15
3.07494e-16
-7.42598e-15
-4.1818e-16
-6.1499e-15
-1.8163e-15
-5.20797e-15
-1.52747e-15
-5.59816e-15
-6.8634e-17
-5.66123e-15
1.84328e-16
-5.71341e-15
3.59389e-17
-4.9588e-15
2.9711e-16
-4.25226e-15
5.32548e-16
-4.87522e-15
8.90125e-16
-4.91335e-15
1.77632e-16
-3.39869e-15
-4.91551e-16
-3.49707e-15
4.50494e-17
-3.7135e-15
4.81976e-16
-3.44719e-15
1.55843e-16
-2.8055e-15
-4.05474e-17
-4.20517e-15
7.4704e-17
-1.33598e-15
1.20608e-16
-7.66725e-16
-7.56635e-17
-1.72203e-15
3.95735e-16
-2.22006e-15
2.18495e-16
-3.53844e-15
-5.44449e-16
-5.99425e-15
-2.68332e-16
-8.90217e-15
9.3219e-16
4.65716e-16
-3.61408e-17
-1.45911e-16
-1.02359e-16
-1.22108e-16
-7.06605e-17
2.94787e-17
-6.38773e-17
7.57835e-18
-7.063e-17
4.31728e-17
-1.03185e-16
-4.50233e-18
-7.66169e-17
-1.03946e-17
-1.59994e-16
2.0959e-17
-3.17696e-16
-1.40813e-17
-5.03214e-16
3.11618e-18
-6.18214e-16
-8.45055e-17
-1.92815e-16
-4.5956e-17
-4.25023e-16
-1.56283e-16
-3.92068e-16
-1.29599e-16
-2.08251e-16
3.14786e-17
-2.63631e-16
-2.12786e-17
-2.94199e-16
-3.52447e-17
-2.5719e-16
-5.18899e-17
-3.22383e-16
-1.04338e-16
-3.59827e-16
-1.03674e-16
-3.46151e-16
-1.18423e-16
-2.8497e-16
-7.50273e-17
-3.47344e-16
-5.28397e-17
-3.17918e-16
-9.81815e-17
-2.67325e-16
3.93658e-17
-1.92753e-16
6.53087e-17
-1.88181e-16
-3.44874e-17
-1.57263e-16
-4.15999e-17
-5.29952e-16
-1.18692e-16
-1.37243e-16
-1.63531e-16
-1.51001e-16
-1.13361e-16
-2.32194e-16
-1.06164e-16
-6.64104e-16
-6.56312e-17
-4.16152e-16
-2.60139e-16
-3.35556e-16
-2.98935e-17
-3.25382e-16
2.91396e-17
-4.0621e-16
-1.11454e-16
-4.31086e-16
-1.60679e-16
-3.17571e-16
-1.57099e-16
-2.33887e-16
-1.44993e-16
-3.13745e-16
3.7491e-17
-3.89538e-16
4.52583e-17
-6.49425e-16
2.25944e-17
-1.01111e-15
5.20236e-17
-5.78512e-16
-7.79686e-17
-6.8806e-16
-2.49038e-16
-6.70133e-16
-1.1064e-16
-7.58515e-16
-4.48914e-17
-7.75236e-16
5.36608e-17
-1.07316e-15
-1.8257e-16
-5.86056e-16
-2.08738e-16
-5.89527e-16
3.64929e-17
-3.89722e-16
2.89863e-17
-4.9454e-16
-4.31704e-18
-3.08801e-16
6.17078e-17
-1.45906e-15
8.04887e-17
-1.07908e-15
2.6021e-17
-1.48079e-15
-2.18546e-17
-8.59148e-16
-2.90158e-16
-5.42073e-16
-2.52308e-16
-3.74001e-16
-8.07883e-17
-6.52405e-16
1.38931e-16
-1.0603e-15
5.75249e-17
-1.05304e-15
-7.3494e-17
-1.25985e-15
-2.69286e-17
-1.26365e-15
-1.25067e-16
-9.51546e-16
-2.73e-16
-9.34359e-16
-5.06066e-17
-8.77867e-16
6.23679e-17
-9.73747e-16
1.4582e-16
-1.19957e-15
1.25607e-16
-1.09281e-15
-1.02893e-16
-1.09637e-15
-2.92507e-16
-1.00567e-15
-3.07391e-16
-3.9095e-16
9.9015e-17
-2.80417e-15
2.15946e-16
-1.00936e-15
8.95305e-17
-3.48425e-15
9.6833e-17
-9.42696e-16
-9.4499e-17
-7.85797e-16
-2.60247e-16
-9.64884e-16
-1.22149e-16
-1.31977e-15
9.42197e-17
-1.38095e-15
-5.31027e-17
-1.09174e-15
-1.93855e-16
-1.0207e-15
-9.19559e-17
-1.93135e-15
-1.94706e-16
-1.79073e-15
1.13316e-16
-2.36569e-15
-1.13572e-16
-1.39151e-15
-9.88867e-17
-6.3231e-16
1.96718e-16
-2.0642e-15
5.18011e-17
-1.32649e-15
5.52443e-18
-1.47767e-15
6.52265e-18
-1.30709e-15
-1.56257e-16
-1.34419e-15
-1.44721e-16
-1.67095e-15
-6.76956e-17
-1.67562e-15
1.70906e-16
-1.84441e-15
-1.7191e-16
-1.11723e-15
-1.93793e-16
-9.80823e-16
5.51472e-17
-1.10414e-15
1.37502e-16
-9.97447e-16
6.6446e-17
-5.89383e-16
1.20707e-16
-6.0926e-16
1.43367e-16
-1.00544e-15
-2.23943e-17
-1.06527e-15
-8.72741e-17
-1.16587e-15
7.47811e-17
-1.20509e-15
9.26402e-17
-2.20116e-15
7.51621e-17
-1.6526e-15
-1.13573e-16
-2.12491e-15
-3.8569e-16
-1.26701e-15
-1.74488e-16
-1.32376e-15
5.48779e-17
-1.6148e-15
1.66378e-16
-1.32695e-15
1.25423e-16
-1.10912e-15
5.46344e-17
-9.81756e-16
1.49359e-16
-1.33393e-15
1.55258e-16
-1.4619e-15
1.45842e-16
-1.38611e-15
2.61732e-17
-1.542e-15
-5.4882e-17
-1.54624e-15
-1.57911e-17
-1.82928e-15
-2.38233e-17
-1.63847e-15
-8.02793e-17
-1.59502e-15
9.62635e-17
-1.66359e-15
2.05813e-16
-1.86231e-15
2.21874e-16
-1.93768e-15
1.70755e-16
-1.84095e-15
3.71035e-17
-2.04902e-15
1.67893e-16
-2.43893e-15
3.16957e-16
-2.19199e-15
2.75918e-16
-1.63999e-15
2.14575e-16
-1.753e-15
-1.67973e-16
-1.8245e-15
1.72113e-16
-1.59122e-15
3.32348e-17
-2.29488e-15
-2.74526e-16
-1.43871e-15
-7.42248e-17
-2.6213e-15
6.15242e-17
-1.35142e-15
3.51178e-16
-2.83226e-15
6.06048e-16
-2.17792e-15
1.39305e-17
-1.71366e-15
-3.18911e-16
-2.13256e-15
-2.25092e-16
-9.40669e-16
-2.6221e-16
-1.12719e-15
5.27826e-17
-1.21941e-15
2.88963e-16
-1.30806e-15
1.4789e-17
-1.15353e-15
-1.88001e-16
-1.36327e-15
1.47808e-16
-1.39598e-15
2.63414e-16
-2.21517e-15
2.14028e-16
-2.68494e-15
5.16856e-16
-2.93387e-15
1.41968e-16
-1.90735e-15
-4.54499e-16
-1.57318e-15
-3.31635e-16
-1.49329e-15
-2.68149e-17
-1.30202e-15
2.02287e-16
-1.42842e-15
5.65133e-17
-1.47017e-15
1.10313e-16
-2.55286e-15
2.27514e-16
-2.02521e-15
9.15693e-17
-3.04875e-15
-4.14148e-17
-2.24599e-15
1.52386e-17
-1.89529e-15
1.66803e-17
-1.53247e-15
2.23468e-17
-1.21169e-15
-2.47662e-16
-9.29997e-16
6.2893e-17
-3.87417e-16
1.31216e-16
-1.47225e-15
2.30282e-16
-2.70579e-15
8.18623e-17
-2.53855e-15
-2.00109e-16
-1.5122e-15
-2.28158e-16
-1.65412e-15
2.16811e-16
-2.20637e-15
4.70642e-16
-2.82746e-15
4.06689e-16
-2.65147e-15
2.83333e-17
-1.97417e-15
-1.55966e-16
-1.50099e-15
-9.6886e-17
-1.61023e-15
5.71002e-17
-1.47714e-15
2.02471e-16
-1.76104e-15
2.35713e-16
-1.85643e-15
2.76135e-17
-1.16104e-15
-4.55563e-17
-4.98894e-16
1.53759e-16
-4.04787e-16
1.82677e-16
-6.88653e-16
2.63396e-16
-8.83195e-16
2.99761e-16
-4.82796e-16
-2.13508e-16
-3.58144e-15
-2.02289e-15
-2.7153e-15
-1.76624e-15
-2.08572e-15
-1.07499e-15
-1.54086e-15
-1.87574e-16
-8.03727e-16
-4.52459e-16
-5.27531e-16
-7.53584e-17
-4.10429e-16
-1.2334e-16
-6.04327e-16
-1.52131e-16
-1.74635e-15
-8.88978e-17
-2.14554e-15
-2.38789e-16
-2.17447e-15
-5.36698e-16
-2.52606e-15
-3.16862e-16
-2.69482e-15
-8.71315e-17
-2.77557e-15
5.07782e-16
-3.12009e-15
5.13253e-16
-3.0793e-15
-2.60424e-16
-3.63517e-15
-6.13107e-16
-4.0796e-15
-8.64185e-16
-4.08018e-15
-7.10926e-16
-3.29146e-15
-9.08711e-16
-3.94777e-15
-8.9468e-16
-4.41215e-15
-2.6739e-16
-4.63902e-15
2.51155e-16
-4.47483e-15
-4.887e-17
-4.54971e-15
-7.62839e-17
-4.58803e-15
7.42874e-17
-4.42102e-15
-1.78419e-17
-4.42417e-15
9.54644e-17
-4.296e-15
2.31889e-16
-4.55173e-15
3.46146e-16
-4.4502e-15
3.90498e-16
-3.70102e-15
4.37051e-16
-4.77242e-15
3.42737e-16
-3.65435e-15
4.99399e-16
-5.0797e-15
1.17626e-16
-4.50917e-15
-4.01124e-16
-3.79942e-15
-7.9174e-16
-3.48986e-15
-5.5423e-16
-3.2897e-15
-5.17759e-16
-2.50411e-15
-6.24406e-16
-1.89391e-15
-2.05131e-16
-1.69457e-15
3.15132e-16
-3.63427e-15
4.895e-16
-2.41972e-15
8.20807e-17
-2.80811e-15
-1.17096e-16
-3.01384e-15
-1.78609e-16
-2.38473e-15
-3.88313e-16
-2.17112e-15
2.11897e-17
-2.7767e-15
5.50253e-16
-3.82775e-15
7.64246e-16
-4.66893e-15
6.57781e-16
-3.66458e-15
2.50687e-16
-2.5377e-15
1.63375e-16
-1.44229e-15
2.42436e-16
-8.45251e-16
1.16757e-16
-3.57334e-16
2.63983e-16
-3.9102e-16
8.83502e-17
1.67781e-15
-1.89804e-15
-4.97885e-15
-4.14164e-15
-7.54536e-16
-2.21247e-15
-3.51344e-15
-2.31184e-15
-3.20292e-15
-1.70791e-15
-3.39496e-15
-9.66149e-16
-3.60834e-15
-9.53457e-16
-4.11544e-15
-2.67977e-16
-4.14716e-15
2.82691e-16
-3.83338e-15
9.53588e-17
-3.52865e-15
2.78397e-16
-3.68647e-15
4.26348e-16
-4.41538e-15
1.96897e-16
-4.3465e-15
1.63357e-16
-4.47936e-15
7.68693e-17
-4.37871e-15
3.54401e-17
-4.12237e-15
4.10839e-16
-4.20392e-15
5.25098e-16
-3.92774e-15
5.11941e-17
-3.22418e-15
-6.10494e-16
-2.29185e-15
-5.02366e-16
-1.74313e-15
-5.73732e-18
-1.29179e-15
-3.80961e-16
-2.24684e-15
-4.17866e-16
-3.0856e-15
4.04744e-16
-4.04646e-15
4.6513e-16
-3.9659e-15
-1.94714e-16
-3.88543e-15
8.62272e-17
-3.53954e-15
4.92692e-16
-3.31899e-15
9.08545e-16
-5.59397e-15
3.41658e-16
-1.71684e-15
-3.80949e-16
-3.88605e-15
-3.67045e-16
-4.67153e-15
-3.53875e-16
-3.88204e-15
-5.02246e-16
-4.44294e-15
-5.84323e-16
-3.17196e-15
-6.18863e-16
-4.4478e-15
-1.06749e-16
-5.3574e-15
4.13396e-16
-5.98017e-15
2.65496e-16
-5.63947e-15
1.74351e-16
-5.43427e-15
3.0439e-16
-5.90544e-15
9.87785e-16
-6.54619e-15
1.21715e-15
-5.30079e-15
-2.70683e-16
-3.0921e-15
-1.67735e-16
-1.98602e-15
3.82737e-16
-1.60871e-15
5.62357e-16
-3.21746e-16
5.52408e-16
2.22369e-15
-1.24521e-15
4.21738e-15
-7.87831e-16
5.83384e-15
1.06407e-16
3.95114e-15
-6.31892e-16
5.08346e-15
-1.05871e-15
-7.61915e-16
-7.25739e-16
-1.93685e-15
8.01345e-17
-3.67007e-15
-1.19116e-16
-5.11723e-15
1.18897e-16
-5.66708e-15
-7.30281e-16
-5.29184e-15
-1.19304e-15
-5.13315e-15
-9.40747e-16
-5.14835e-15
-7.35394e-16
-5.01866e-15
-4.36314e-17
-4.24349e-15
6.71258e-17
-3.72383e-15
-1.08354e-16
-3.69519e-15
1.8267e-16
-4.02751e-15
4.1028e-16
-5.19187e-15
-1.37676e-16
-5.15724e-15
-1.3242e-16
-6.0047e-15
1.26648e-16
-5.53399e-15
4.66741e-17
-3.89787e-15
-3.18008e-16
-2.66958e-15
4.08137e-16
-2.90626e-15
1.13444e-15
-3.53563e-15
6.51623e-16
-2.46123e-15
-1.02853e-15
-3.81626e-16
-1.28223e-15
-4.05987e-15
-5.77304e-16
-1.38991e-15
-1.76923e-16
-4.07301e-15
-4.97913e-16
-3.95612e-15
-4.19183e-16
-4.96723e-15
-2.03169e-16
-6.23279e-15
2.24352e-16
-6.77972e-15
-2.73303e-16
-6.63252e-15
-1.27572e-15
-6.25885e-15
-8.3278e-16
-5.89773e-15
-2.84585e-16
-5.62229e-15
2.38381e-16
-5.80379e-15
6.22759e-16
-5.7505e-15
6.97475e-16
-5.68256e-15
1.30861e-15
-5.5701e-15
7.35346e-16
-5.69053e-15
4.17687e-16
-4.96344e-15
-5.83617e-16
-4.02345e-15
-2.98408e-16
-3.98876e-15
2.48079e-16
-3.06354e-15
-4.97035e-16
-1.86914e-15
-3.89273e-16
-3.07294e-15
5.4477e-16
-7.55691e-15
7.96263e-16
1.53815e-15
-3.04757e-16
-8.49728e-15
-6.14907e-16
-4.14962e-15
3.9017e-16
-5.34885e-15
5.45433e-16
-6.78729e-15
7.60363e-16
-7.73013e-15
4.17559e-16
-7.33507e-15
-1.19528e-16
-6.36953e-15
-7.78744e-16
-6.68052e-15
-2.94881e-16
-6.50492e-15
-4.50296e-16
-5.74961e-15
-8.57405e-16
-4.15287e-15
-1.18578e-15
-3.94583e-15
-1.62814e-16
-4.54538e-15
1.06195e-15
-5.27547e-15
8.78697e-16