/*--------------------------------*- C++ -*----------------------------------*\
  =========                 |
  \\      /  F ield         | OpenFOAM: The Open Source CFD Toolbox
   \\    /   O peration     | Website:  https://openfoam.org
    \\  /    A nd           | Version:  7
     \\/     M anipulation  |
\*---------------------------------------------------------------------------*/
FoamFile
{
    version     2.0;
    format      ascii;
    class       volScalarField;
    location    "5000";
    object      epss;
}
// * * * * * * * * * * * * * * * * * * * * * * * * * * * * * * * * * * * * * //

dimensions      [0 0 0 0 0 0 0];

internalField   nonuniform List<scalar> 
160000
(
0.550704
0.516925
0.541135
0.502038
0.471055
0.543806
0.479248
0.553826
0.52324
0.451917
0.482051
0.521482
0.458775
0.466744
0.572037
0.532326
0.564655
0.558245
0.483973
0.491812
0.507555
0.525154
0.502434
0.464792
0.48759
0.455734
0.453222
0.500615
0.481967
0.538886
0.541303
0.49347
0.415489
0.487263
0.50426
0.477402
0.465288
0.428181
0.553583
0.504348
0.504206
0.505163
0.475682
0.534741
0.471952
0.474735
0.492984
0.547832
0.485767
0.537881
0.498697
0.419977
0.464343
0.49387
0.433318
0.536874
0.437433
0.559137
0.575553
0.532136
0.388182
0.512688
0.518882
0.543347
0.568989
0.438397
0.47923
0.458697
0.590941
0.65108
0.443426
0.554216
0.45856
0.528447
0.47874
0.501007
0.470193
0.511286
0.444719
0.496754
0.434908
0.408852
0.47641
0.503288
0.507132
0.520165
0.521737
0.563666
0.520896
0.47454
0.564377
0.444126
0.42511
0.445
0.485402
0.555331
0.498222
0.526584
0.522768
0.563762
0.507145
0.593024
0.463322
0.524447
0.571925
0.489581
0.578766
0.492171
0.471763
0.472513
0.448358
0.550832
0.444561
0.514865
0.531978
0.500761
0.549074
0.510584
0.446222
0.480614
0.507694
0.541809
0.483184
0.463287
0.439506
0.39323
0.429748
0.515819
0.489201
0.485652
0.521412
0.542765
0.480038
0.408106
0.465345
0.487635
0.536864
0.506927
0.550726
0.586603
0.482545
0.457052
0.610534
0.484552
0.415921
0.484568
0.477686
0.48473
0.501329
0.550301
0.573948
0.523035
0.567043
0.481378
0.583477
0.498322
0.494681
0.432754
0.47722
0.466715
0.527286
0.507739
0.535379
0.456628
0.577789
0.479718
0.483091
0.541119
0.509348
0.544135
0.433339
0.405636
0.502253
0.405363
0.46817
0.53667
0.502793
0.491714
0.412823
0.430204
0.573286
0.453404
0.542941
0.576355
0.565693
0.553696
0.534685
0.546521
0.580722
0.515164
0.494548
0.535496
0.516066
0.461158
0.435489
0.589391
0.516108
0.365912
0.315955
0.355231
0.415219
0.478512
0.528581
0.55217
0.524023
0.457628
0.447689
0.486515
0.515352
0.522218
0.514292
0.518322
0.536516
0.533264
0.513477
0.525553
0.539755
0.480178
0.396006
0.375307
0.402535
0.481579
0.600504
0.619522
0.594453
0.555485
0.496079
0.582599
0.491859
0.522667
0.626303
0.532811
0.560157
0.498593
0.503048
0.485549
0.552725
0.501064
0.564811
0.512124
0.545346
0.57291
0.530218
0.552803
0.510469
0.522583
0.489197
0.487673
0.360232
0.361509
0.40085
0.465675
0.536699
0.578565
0.577874
0.529107
0.543161
0.597909
0.521112
0.348269
0.309387
0.430029
0.542746
0.60902
0.57207
0.480469
0.485748
0.591122
0.528548
0.39236
0.494012
0.543631
0.505976
0.527648
0.57852
0.603689
0.526211
0.404334
0.469351
0.509742
0.555744
0.543804
0.517871
0.484738
0.47915
0.490144
0.465168
0.52487
0.514776
0.491159
0.505868
0.622192
0.548912
0.510987
0.496474
0.483121
0.467387
0.602484
0.501247
0.540867
0.422791
0.288337
0.266523
0.31062
0.376425
0.439956
0.484807
0.512916
0.532323
0.53471
0.530604
0.554144
0.556945
0.489702
0.428121
0.385799
0.404367
0.51187
0.595187
0.585602
0.607696
0.602314
0.59252
0.457273
0.365471
0.359468
0.396291
0.422635
0.438568
0.466674
0.502685
0.500979
0.498946
0.509775
0.50891
0.514766
0.529998
0.498418
0.414576
0.449661
0.56935
0.571343
0.536907
0.544346
0.459518
0.490216
0.473764
0.416149
0.407381
0.435045
0.478248
0.535248
0.534801
0.530348
0.496713
0.490692
0.484221
0.481692
0.49023
0.537921
0.56631
0.567147
0.529113
0.542559
0.468534
0.441789
0.482867
0.391581
0.388444
0.470747
0.513437
0.495034
0.491118
0.41376
0.510208
0.45291
0.530132
0.53534
0.564268
0.547736
0.524426
0.535083
0.544248
0.488758
0.472618
0.471
0.453486
0.463769
0.503484
0.52216
0.495644
0.524878
0.482452
0.511216
0.562545
0.439289
0.486876
0.601442
0.407915
0.45958
0.423108
0.570765
0.513839
0.549759
0.563633
0.535181
0.48442
0.515368
0.510046
0.495068
0.480674
0.530146
0.512495
0.492804
0.452236
0.545116
0.537793
0.417917
0.430947
0.47537
0.530095
0.511374
0.467868
0.473946
0.566225
0.510323
0.40729
0.429177
0.496648
0.455335
0.485786
0.525364
0.500694
0.528614
0.559084
0.465981
0.435905
0.639246
0.47788
0.427456
0.499548
0.538883
0.479934
0.55864
0.471408
0.429442
0.502872
0.56101
0.49086
0.444403
0.520954
0.493922
0.516275
0.410381
0.579227
0.493165
0.471846
0.542666
0.519739
0.515126
0.505917
0.486626
0.541935
0.549022
0.497484
0.515653
0.55922
0.452156
0.454991
0.41599
0.431273
0.481101
0.563092
0.5152
0.518368
0.478079
0.520803
0.520257
0.522356
0.452693
0.471332
0.497791
0.494505
0.488864
0.405127
0.417027
0.538143
0.521075
0.504412
0.466105
0.4454
0.473755
0.413701
0.456311
0.531976
0.483016
0.501697
0.481158
0.496347
0.544655
0.47695
0.5098
0.553446
0.419417
0.485301
0.538435
0.463069
0.441121
0.479102
0.469662
0.493609
0.560077
0.536343
0.539504
0.517157
0.506261
0.50391
0.483846
0.46584
0.416759
0.431364
0.497724
0.502522
0.502318
0.507626
0.493031
0.502309
0.526223
0.494109
0.520742
0.544421
0.584689
0.424592
0.400754
0.466439
0.537381
0.415829
0.522748
0.567695
0.532004
0.483343
0.455934
0.475255
0.455038
0.459406
0.535463
0.488464
0.514097
0.533203
0.55941
0.440417
0.56374
0.553154
0.508529
0.501787
0.464009
0.51474
0.47373
0.534779
0.479385
0.489592
0.46631
0.498901
0.5191
0.531043
0.480648
0.443006
0.510775
0.486888
0.497588
0.493949
0.510253
0.559221
0.430227
0.494767
0.485498
0.479034
0.508391
0.485259
0.513347
0.528086
0.497654
0.552486
0.604292
0.496666
0.515896
0.512293
0.574962
0.515138
0.415038
0.402646
0.459654
0.489943
0.470904
0.463201
0.437989
0.359278
0.321512
0.342936
0.383984
0.437486
0.482458
0.508129
0.497313
0.455724
0.427834
0.440844
0.477465
0.508068
0.517052
0.526886
0.546207
0.552673
0.541348
0.539925
0.547609
0.533955
0.501689
0.490521
0.510914
0.542617
0.587651
0.60606
0.587029
0.545356
0.514927
0.493107
0.537234
0.492175
0.50557
0.503438
0.490796
0.409592
0.422978
0.540419
0.540619
0.508075
0.502021
0.557387
0.538602
0.570974
0.574881
0.49101
0.489413
0.571885
0.461961
0.419234
0.324354
0.296273
0.348938
0.406745
0.463678
0.491891
0.513955
0.530066
0.537377
0.552761
0.527537
0.439528
0.389811
0.448583
0.534776
0.571851
0.550102
0.494616
0.48409
0.569711
0.557726
0.429814
0.406896
0.502226
0.51739
0.50103
0.553345
0.583561
0.553965
0.468118
0.429423
0.490935
0.534664
0.527632
0.503557
0.466494
0.431623
0.446803
0.497876
0.546813
0.57629
0.57244
0.56452
0.592667
0.557609
0.506809
0.500058
0.595216
0.509843
0.462414
0.50392
0.491868
0.323918
0.240674
0.274891
0.335999
0.41562
0.477898
0.520473
0.545334
0.554464
0.556622
0.554131
0.551065
0.54463
0.513029
0.466413
0.444711
0.472418
0.54126
0.600162
0.599797
0.581795
0.584676
0.569206
0.462703
0.320198
0.307988
0.373675
0.430807
0.449133
0.464065
0.498776
0.517375
0.513633
0.519381
0.518917
0.510298
0.521628
0.527483
0.503822
0.5042
0.54303
0.55101
0.509041
0.504952
0.499299
0.47558
0.457215
0.452945
0.459634
0.480591
0.50666
0.546347
0.568503
0.558369
0.517827
0.51317
0.542828
0.552219
0.542187
0.540905
0.545455
0.548551
0.53393
0.526015
0.504155
0.435012
0.436519
0.448325
0.442467
0.509419
0.566034
0.563041
0.57225
0.551204
0.558912
0.530009
0.558365
0.536083
0.504105
0.554142
0.522737
0.462853
0.590662
0.450807
0.504462
0.579988
0.487612
0.522674
0.553185
0.516636
0.46389
0.538987
0.496029
0.460101
0.524367
0.549029
0.446786
0.587791
0.508491
0.57348
0.473398
0.593047
0.60986
0.482171
0.57769
0.454574
0.586434
0.512849
0.461701
0.553001
0.4614
0.413531
0.474153
0.522373
0.454503
0.402893
0.477327
0.408544
0.45293
0.525701
0.463512
0.50953
0.494172
0.538426
0.564917
0.55342
0.521711
0.503781
0.491801
0.410408
0.49805
0.51701
0.48196
0.483365
0.477983
0.565427
0.524734
0.499565
0.538196
0.537909
0.51793
0.49479
0.498821
0.500346
0.507266
0.412825
0.535206
0.56138
0.552652
0.478956
0.417967
0.50049
0.549954
0.543691
0.510866
0.487624
0.476753
0.422613
0.442918
0.413452
0.527757
0.530053
0.50825
0.465583
0.558624
0.537447
0.467174
0.552882
0.568
0.596698
0.522756
0.58433
0.475702
0.501153
0.588884
0.550096
0.501195
0.497357
0.462897
0.429056
0.492876
0.463979
0.451029
0.462827
0.536033
0.487387
0.517846
0.462396
0.466126
0.539797
0.553257
0.481671
0.537027
0.57221
0.522853
0.588513
0.59788
0.536123
0.514837
0.509362
0.538218
0.53723
0.481123
0.526981
0.490089
0.45756
0.495158
0.511438
0.547106
0.501578
0.467379
0.510957
0.505342
0.534193
0.560228
0.5066
0.521529
0.506594
0.489613
0.500447
0.520052
0.548978
0.542174
0.522939
0.536345
0.546591
0.545306
0.551981
0.5183
0.517431
0.550089
0.516957
0.456345
0.452265
0.493699
0.499974
0.514034
0.491554
0.487512
0.525669
0.520068
0.458161
0.404583
0.474103
0.475788
0.450683
0.502461
0.507664
0.501729
0.514849
0.529976
0.486262
0.52808
0.503781
0.422157
0.4401
0.540451
0.494616
0.506465
0.527484
0.536958
0.559826
0.496267
0.500368
0.502629
0.507876
0.505483
0.505922
0.516411
0.473715
0.440918
0.458284
0.464383
0.49264
0.543884
0.593594
0.514827
0.454608
0.470589
0.52616
0.521494
0.545699
0.57972
0.555641
0.51543
0.532024
0.519041
0.512099
0.463642
0.386036
0.34426
0.4117
0.461329
0.476081
0.470311
0.455259
0.440011
0.422343
0.408915
0.419345
0.45092
0.48695
0.508051
0.50386
0.488829
0.484072
0.491456
0.509
0.525162
0.529766
0.540637
0.561673
0.569659
0.558841
0.553547
0.558535
0.553047
0.537682
0.540357
0.567477
0.582494
0.556914
0.522912
0.5113
0.510212
0.514797
0.522334
0.542023
0.525963
0.485748
0.515519
0.537137
0.494996
0.480538
0.544207
0.531546
0.505923
0.551669
0.573534
0.550024
0.4916
0.473732
0.504492
0.492649
0.526227
0.484954
0.445737
0.317159
0.286052
0.350565
0.425539
0.500263
0.520075
0.522393
0.534759
0.54962
0.556213
0.551058
0.525092
0.497324
0.505485
0.541262
0.552359
0.530905
0.505868
0.499502
0.52027
0.530408
0.493761
0.473435
0.52002
0.547451
0.516108
0.492868
0.506964
0.515264
0.505904
0.463069
0.454761
0.488316
0.497125
0.481962
0.46644
0.476634
0.514838
0.559109
0.567419
0.558384
0.5566
0.548832
0.540131
0.537054
0.546309
0.561712
0.542599
0.458199
0.333578
0.369558
0.4461
0.33871
0.283415
0.314602
0.384688
0.467126
0.511639
0.523512
0.521385
0.522474
0.534663
0.54898
0.547023
0.532451
0.520956
0.512898
0.509372
0.52799
0.569029
0.585962
0.557023
0.527272
0.531287
0.520838
0.452674
0.369564
0.355511
0.405543
0.479366
0.516993
0.526274
0.534481
0.54125
0.530335
0.516485
0.528802
0.548084
0.557749
0.562214
0.547624
0.520641
0.512481
0.517895
0.518968
0.521722
0.506033
0.476361
0.472168
0.476193
0.468282
0.479847
0.531833
0.576906
0.566711
0.530877
0.492268
0.483159
0.527045
0.555828
0.534616
0.51039
0.535208
0.584238
0.579288
0.530279
0.482559
0.462771
0.467682
0.53003
0.542549
0.522088
0.549617
0.551275
0.50906
0.476581
0.47807
0.485977
0.494835
0.515562
0.531561
0.569873
0.575815
0.52542
0.559539
0.541454
0.503464
0.483059
0.528025
0.562009
0.504651
0.490317
0.482307
0.514469
0.558567
0.478255
0.476957
0.508088
0.479298
0.510341
0.579557
0.498605
0.505199
0.545044
0.439953
0.448398
0.43757
0.428149
0.421752
0.429898
0.469328
0.425844
0.473941
0.445095
0.525468
0.514875
0.505507
0.526079
0.41936
0.475251
0.444282
0.463355
0.484515
0.480609
0.540149
0.422497
0.547503
0.487255
0.421456
0.556054
0.522145
0.475051
0.537566
0.630422
0.563334
0.534088
0.490417
0.465766
0.453547
0.478979
0.472279
0.594988
0.511752
0.419009
0.421954
0.47306
0.493709
0.48591
0.464764
0.499045
0.497915
0.527581
0.508348
0.526868
0.435736
0.478721
0.582024
0.482033
0.50641
0.539393
0.547479
0.510871
0.516073
0.469782
0.494013
0.44513
0.518759
0.540271
0.51919
0.499365
0.504963
0.512348
0.475375
0.479715
0.586804
0.569465
0.529966
0.463509
0.420658
0.469418
0.539021
0.474614
0.527536
0.5856
0.452741
0.479404
0.509715
0.516307
0.436056
0.435372
0.442978
0.440832
0.494214
0.44589
0.531208
0.474654
0.506374
0.520998
0.532367
0.477538
0.561073
0.551701
0.492814
0.440532
0.507249
0.485107
0.466122
0.484894
0.451947
0.447184
0.482442
0.503228
0.493614
0.495891
0.522487
0.471839
0.507952
0.542822
0.523142
0.49202
0.479526
0.452303
0.471531
0.525611
0.530801
0.52436
0.515523
0.564634
0.491975
0.469929
0.477663
0.522914
0.533135
0.515178
0.515558
0.483575
0.502694
0.489332
0.492492
0.528151
0.49431
0.501365
0.52042
0.507416
0.491812
0.558722
0.509539
0.467821
0.457288
0.447071
0.494618
0.532575
0.537521
0.470142
0.514072
0.516133
0.548565
0.540847
0.513507
0.505129
0.453614
0.473886
0.526855
0.495514
0.490298
0.482674
0.476557
0.496883
0.539749
0.517551
0.479933
0.440021
0.405316
0.394883
0.449914
0.512722
0.495954
0.471333
0.495019
0.488018
0.489475
0.536283
0.547373
0.509219
0.516468
0.595398
0.588809
0.514261
0.499937
0.493222
0.47421
0.38268
0.37457
0.418528
0.443494
0.475248
0.47597
0.474965
0.489533
0.500885
0.492569
0.472743
0.455951
0.464001
0.493992
0.516835
0.51373
0.495329
0.485149
0.493726
0.510974
0.51976
0.524391
0.536315
0.543011
0.528566
0.511045
0.514276
0.53045
0.545316
0.559694
0.572659
0.575606
0.555401
0.514956
0.477024
0.463536
0.477948
0.505057
0.528745
0.551541
0.560467
0.558509
0.554
0.539562
0.550315
0.590586
0.587278
0.562282
0.549458
0.532221
0.522024
0.54536
0.5515
0.557513
0.567079
0.521811
0.498611
0.442432
0.349873
0.313895
0.357826
0.42892
0.514586
0.544249
0.541868
0.542422
0.550832
0.547452
0.529567
0.508232
0.49444
0.501231
0.531003
0.554343
0.54142
0.506355
0.480604
0.485989
0.513936
0.528696
0.507098
0.488641
0.475766
0.453681
0.45326
0.509503
0.575372
0.576932
0.519683
0.474686
0.46682
0.478857
0.495922
0.513737
0.531842
0.542539
0.539865
0.535809
0.551889
0.56906
0.556913
0.523639
0.518429
0.553606
0.571433
0.535255
0.435653
0.324919
0.320677
0.385283
0.418105
0.410728
0.407207
0.449635
0.497105
0.513931
0.504903
0.492839
0.494682
0.507269
0.520705
0.527149
0.523902
0.521314
0.523442
0.519295
0.513935
0.525826
0.54636
0.558839
0.567959
0.556392
0.510357
0.460416
0.434482
0.442819
0.472244
0.522912
0.551481
0.555353
0.545526
0.53116
0.525865
0.530563
0.532848
0.527643
0.513232
0.487536
0.469437
0.46017
0.447211
0.451295
0.489291
0.526264
0.53848
0.531657
0.502401
0.467426
0.465434
0.508318
0.55207
0.573998
0.580781
0.574324
0.566739
0.556968
0.538843
0.53623
0.532659
0.532396
0.527167
0.511417
0.494009
0.503971
0.513096
0.516516
0.521476
0.506019
0.545692
0.56195
0.541795
0.539616
0.514933
0.500875
0.52138
0.515883
0.519749
0.519992
0.519029
0.568101
0.607491
0.556625
0.503086
0.513961
0.594616
0.479199
0.443163
0.495629
0.548544
0.533073
0.495573
0.550587
0.489368
0.524481
0.568092
0.586359
0.519465
0.540438
0.553485
0.56316
0.529657
0.496766
0.476152
0.466566
0.452199
0.429043
0.492583
0.506389
0.512749
0.558835
0.477939
0.498012
0.556471
0.545924
0.642441
0.444007
0.402039
0.52791
0.566083
0.460803
0.465651
0.425164
0.410589
0.517381
0.540069
0.580004
0.534572
0.535297
0.588733
0.479487
0.442541
0.50703
0.469854
0.492436
0.556991
0.501671
0.45226
0.499439
0.578228
0.530678
0.487165
0.428073
0.467524
0.512798
0.456383
0.521041
0.548512
0.532906
0.497538
0.523755
0.457995
0.409031
0.489971
0.483877
0.487096
0.51208
0.539557
0.501175
0.491751
0.539308
0.493103
0.500744
0.550378
0.523221
0.524592
0.522203
0.562216
0.535322
0.467432
0.483683
0.480287
0.515462
0.495423
0.544746
0.535463
0.477231
0.490709
0.452467
0.4524
0.511624
0.498046
0.483622
0.436859
0.547961
0.522786
0.50265
0.512035
0.480844
0.462119
0.503072
0.502122
0.504368
0.505666
0.52354
0.531387
0.506212
0.513935
0.525535
0.484403
0.496837
0.534191
0.533783
0.459593
0.446437
0.501305
0.546461
0.467405
0.468164
0.443044
0.46159
0.503251
0.498233
0.504392
0.527306
0.506491
0.442405
0.421605
0.478317
0.563406
0.519777
0.446391
0.491336
0.51585
0.496184
0.515855
0.509307
0.492327
0.453887
0.49682
0.54656
0.540466
0.518335
0.512174
0.521002
0.475709
0.475097
0.489614
0.513825
0.513642
0.537433
0.508531
0.461382
0.463554
0.472613
0.485815
0.469859
0.5094
0.486041
0.47666
0.524803
0.53238
0.502471
0.512893
0.523508
0.506692
0.484147
0.467934
0.468611
0.460348
0.481572
0.546068
0.55631
0.496328
0.466675
0.463076
0.473211
0.527028
0.562523
0.511556
0.436812
0.437812
0.459539
0.46607
0.507334
0.505008
0.512806
0.524488
0.493218
0.498499
0.510733
0.51634
0.520372
0.512584
0.492232
0.49709
0.53613
0.563103
0.564384
0.444231
0.361232
0.371375
0.412534
0.453142
0.499299
0.505609
0.507148
0.52331
0.546608
0.550907
0.524085
0.48397
0.456715
0.455222
0.473836
0.489777
0.488222
0.477955
0.478054
0.496879
0.51935
0.525678
0.515222
0.495537
0.471583
0.457045
0.468477
0.501072
0.533537
0.547807
0.541926
0.528687
0.514848
0.502278
0.498726
0.498091
0.490392
0.496928
0.52822
0.553511
0.553896
0.543116
0.53655
0.537829
0.532057
0.549861
0.575121
0.548976
0.514787
0.522496
0.54648
0.561782
0.553333
0.501796
0.465952
0.469743
0.466508
0.425888
0.364869
0.34974
0.37442
0.42144
0.49866
0.544571
0.556828
0.550853
0.542948
0.535243
0.524505
0.512997
0.506006
0.506049
0.517075
0.539752
0.557613
0.557349
0.54054
0.521353
0.515608
0.511635
0.478718
0.428731
0.41431
0.44874
0.490468
0.532971
0.565152
0.549685
0.496781
0.45544
0.44733
0.466411
0.50176
0.535063
0.552393
0.551429
0.548363
0.557523
0.561439
0.537563
0.504309
0.502624
0.53154
0.563481
0.576938
0.54875
0.457899
0.352652
0.329087
0.374286
0.420243
0.461469
0.481018
0.499022
0.50706
0.497163
0.479267
0.471123
0.480738
0.50542
0.535655
0.55488
0.549406
0.524165
0.494799
0.465422
0.439321
0.436335
0.464977
0.497653
0.507701
0.497188
0.476126
0.449194
0.427978
0.431012
0.458328
0.504564
0.543329
0.554923
0.539061
0.513425
0.495225
0.501889
0.529114
0.544768
0.527312
0.501986
0.501414
0.512304
0.502502
0.482918
0.491832
0.521383
0.525247
0.49548
0.469814
0.471659
0.505153
0.549676
0.56993
0.570622
0.571914
0.573481
0.550292
0.518634
0.511092
0.521988
0.539859
0.539639
0.52283
0.513145
0.518739
0.517211
0.518676
0.521831
0.515508
0.50549
0.489371
0.478359
0.48484
0.506653
0.506982
0.526431
0.531699
0.519035
0.514832
0.552801
0.614032
0.598007
0.526281
0.546527
0.533231
0.495037
0.4873
0.500068
0.46687
0.477703
0.56165
0.561499
0.510329
0.449534
0.48369
0.520965
0.503666
0.511163
0.488441
0.563947
0.609263
0.522511
0.520207
0.508596
0.648188
0.494158
0.567594
0.568188
0.438139
0.479555
0.529029
0.485014
0.565137
0.550521
0.610845
0.530503
0.47429
0.537652
0.438786
0.453006
0.4413
0.413993
0.530246
0.519268
0.492761
0.44571
0.456219
0.445
0.518417
0.582313
0.532299
0.53212
0.605382
0.527875
0.554435
0.420464
0.508978
0.506169
0.493124
0.488126
0.465097
0.531295
0.525397
0.486405
0.450764
0.455623
0.497502
0.492466
0.541705
0.532214
0.496857
0.497832
0.51297
0.50486
0.4751
0.414035
0.471328
0.534485
0.487898
0.483227
0.523372
0.489087
0.479082
0.509705
0.53311
0.508321
0.529865
0.545982
0.484814
0.527969
0.481456
0.420248
0.466609
0.503111
0.465391
0.436034
0.471066
0.441762
0.453844
0.513329
0.490355
0.434426
0.480945
0.515711
0.537476
0.528646
0.485451
0.485504
0.515487
0.506992
0.46874
0.458239
0.456955
0.419608
0.447419
0.497388
0.53359
0.479269
0.451561
0.510896
0.527769
0.525069
0.584266
0.561817
0.527264
0.568164
0.538406
0.510062
0.466127
0.460984
0.507587
0.528394
0.538372
0.488124
0.451721
0.464501
0.518426
0.555864
0.538409
0.499745
0.524329
0.555039
0.554992
0.523756
0.456213
0.465825
0.475776
0.447455
0.47623
0.441998
0.459698
0.481492
0.475636
0.48973
0.499606
0.49562
0.473772
0.465508
0.514515
0.53997
0.506666
0.468537
0.506784
0.503988
0.502383
0.496873
0.507734
0.502005
0.465756
0.467918
0.510084
0.509106
0.470773
0.464128
0.490673
0.531602
0.526268
0.510007
0.483703
0.500971
0.497466
0.526434
0.529917
0.499551
0.482472
0.446578
0.441475
0.461451
0.495883
0.491107
0.497952
0.504746
0.503686
0.526539
0.549487
0.540946
0.551243
0.545497
0.488596
0.468881
0.494559
0.520735
0.500045
0.500504
0.484776
0.453079
0.477162
0.527484
0.541924
0.521145
0.412789
0.33885
0.37267
0.411288
0.468206
0.510386
0.50984
0.500318
0.498789
0.508804
0.52233
0.523631
0.5044
0.476209
0.457431
0.456982
0.471426
0.4863
0.489398
0.484167
0.484002
0.497008
0.511921
0.51253
0.501916
0.489003
0.479736
0.480326
0.492794
0.509923
0.521513
0.521178
0.51111
0.503384
0.512963
0.540253
0.566062
0.567925
0.541047
0.51192
0.515153
0.53795
0.547156
0.536091
0.52013
0.524687
0.562529
0.588101
0.552798
0.500952
0.501757
0.538125
0.5545
0.539513
0.503274
0.477255
0.492376
0.493786
0.448854
0.4053
0.390795
0.395878
0.427436
0.477668
0.519396
0.546352
0.551506
0.53936
0.52245
0.511977
0.511608
0.518187
0.527214
0.53726
0.546858
0.544095
0.520576
0.494373
0.489894
0.502142
0.497552
0.457123
0.407296
0.396328
0.439933
0.495878
0.536398
0.549958
0.540508
0.506639
0.463448
0.442281
0.455147
0.489734
0.52287
0.528587
0.513177
0.496843
0.492784
0.498139
0.50543
0.514897
0.524377
0.526665
0.524921
0.528234
0.523174
0.471773
0.387007
0.358353
0.392284
0.442675
0.493566
0.512285
0.525821
0.535204
0.528251
0.506633
0.487477
0.484691
0.497961
0.518567
0.536461
0.537819
0.513968
0.477111
0.447758
0.431545
0.429282
0.452033
0.500413
0.546609
0.560418
0.541193
0.512338
0.496389
0.499473
0.51567
0.537058
0.550192
0.545241
0.522615
0.503858
0.504331
0.512293
0.520681
0.540086
0.557933
0.548292
0.521316
0.506574
0.503823
0.500929
0.506178
0.524898
0.5343
0.518759
0.508486
0.51715
0.514685
0.499873
0.506422
0.533098
0.545498
0.527916
0.502476
0.497249
0.495446
0.478107
0.480089
0.505172
0.522138
0.522173
0.513563
0.516763
0.532803
0.539481
0.51708
0.503701
0.494815
0.481192
0.496772
0.536707
0.571928
0.547587
0.490351
0.46768
0.504799
0.508187
0.504596
0.516829
0.514367
0.482161
0.528384
0.547637
0.523038
0.50521
0.524074
0.5972
0.568038
0.579438
0.633023
0.567043
0.511041
0.523778
0.49341
0.481479
0.536645
0.506228
0.572998
0.543152
0.423958
0.427092
0.492418
0.552329
0.52919
0.530231
0.529339
0.503954
0.471842
0.455559
0.37765
0.455792
0.477022
0.520302
0.506032
0.541799
0.472955
0.444468
0.471612
0.513315
0.508047
0.545705
0.504039
0.530158
0.428518
0.387714
0.502175
0.538136
0.525033
0.453789
0.451546
0.522139
0.47265
0.516386
0.449436
0.475661
0.481546
0.556588
0.508149
0.522736
0.439207
0.447739
0.455499
0.522597
0.498202
0.444648
0.457518
0.524642
0.521794
0.4881
0.533672
0.549653
0.511552
0.515652
0.462918
0.450118
0.518764
0.481968
0.465905
0.510721
0.511412
0.482608
0.52326
0.530081
0.54492
0.557612
0.51011
0.451838
0.467382
0.556026
0.519643
0.453061
0.479178
0.522594
0.54617
0.492818
0.440598
0.449129
0.474666
0.464937
0.493246
0.496123
0.482915
0.515257
0.523354
0.521328
0.550971
0.545095
0.45751
0.481277
0.494502
0.498576
0.501279
0.494814
0.49212
0.527346
0.480377
0.457165
0.496244
0.550893
0.563925
0.467023
0.444958
0.530685
0.542435
0.476318
0.458802
0.441815
0.466768
0.478178
0.476712
0.521747
0.525246
0.464045
0.505532
0.565138
0.535365
0.482162
0.470096
0.506154
0.553991
0.523207
0.449888
0.434548
0.432898
0.466325
0.498303
0.511783
0.469049
0.464236
0.493982
0.47199
0.465674
0.497273
0.523154
0.536149
0.532864
0.527621
0.513706
0.459978
0.449191
0.448686
0.484101
0.524107
0.530676
0.535315
0.505653
0.480292
0.463791
0.463824
0.465841
0.490949
0.525078
0.533607
0.502052
0.452889
0.491519
0.498557
0.494179
0.525799
0.560957
0.555935
0.500717
0.465058
0.427705
0.413043
0.471686
0.53974
0.524929
0.499883
0.495648
0.501775
0.502741
0.516274
0.50455
0.485358
0.515369
0.514089
0.47154
0.472848
0.492094
0.489459
0.484426
0.481805
0.477836
0.515645
0.542605
0.523961
0.40543
0.343729
0.389997
0.427135
0.489056
0.521139
0.524424
0.523333
0.517482
0.501034
0.48113
0.47335
0.478091
0.480683
0.474586
0.470106
0.479547
0.500327
0.516288
0.514343
0.494834
0.467826
0.453803
0.469077
0.496914
0.508244
0.499775
0.493094
0.50179
0.511871
0.511575
0.512371
0.520343
0.521577
0.513447
0.514638
0.5289
0.53604
0.530077
0.521652
0.511775
0.501953
0.498522
0.511499
0.538387
0.559893
0.567572
0.568825
0.552607
0.517565
0.494627
0.496473
0.501072
0.487451
0.451744
0.422905
0.430847
0.453495
0.45542
0.439144
0.420243
0.418198
0.442346
0.479989
0.520399
0.551304
0.564378
0.56179
0.552105
0.543137
0.535905
0.525588
0.51061
0.497526
0.493162
0.494495
0.493967
0.494284
0.503283
0.511477
0.498801
0.467011
0.440896
0.443786
0.475499
0.51349
0.538611
0.54506
0.544926
0.539256
0.517502
0.484076
0.462504
0.465091
0.482091
0.495336
0.503256
0.515202
0.527463
0.530755
0.527598
0.529
0.537319
0.543641
0.540067
0.530255
0.521248
0.491832
0.425744
0.380804
0.389813
0.439277
0.50763
0.531341
0.52766
0.517087
0.505198
0.495803
0.497897
0.510005
0.518655
0.517335
0.513764
0.51415
0.508694
0.489408
0.473005
0.479939
0.50355
0.524259
0.535535
0.538513
0.530349
0.515082
0.50768
0.508759
0.506645
0.498781
0.492361
0.494314
0.503244
0.509269
0.504794
0.490884
0.474361
0.464847
0.468761
0.486165
0.505986
0.515815
0.518517
0.51878
0.508693
0.492609
0.497692
0.525136
0.53482
0.516438
0.50741
0.522242
0.538005
0.541488
0.544227
0.556453
0.566474
0.550679
0.510325
0.485978
0.502979
0.528706
0.538929
0.539889
0.527568
0.515731
0.522671
0.530125
0.517738
0.506766
0.501869
0.508677
0.503438
0.479803
0.474534
0.497113
0.508057
0.516761
0.538833
0.543187
0.531276
0.524892
0.519563
0.539569
0.582369
0.574744
0.522203
0.489615
0.49585
0.542874
0.569578
0.554623
0.498893
0.546919
0.564332
0.496718
0.442409
0.466299
0.496964
0.533817
0.500287
0.551329
0.558231
0.594475
0.505956
0.519536
0.478896
0.569182
0.453507
0.552528
0.496727
0.577012
0.468951
0.472591
0.508901
0.490564
0.449625
0.466615
0.529964
0.540008
0.616945
0.480384
0.522594
0.505833
0.562173
0.449233
0.46605
0.528802
0.579037
0.498717
0.525045
0.488815
0.509832
0.501505
0.47011
0.386038
0.495165
0.489177
0.465471
0.503304
0.53404
0.505802
0.463872
0.492447
0.517334
0.533163
0.555315
0.504923
0.520671
0.499442
0.463982
0.46638
0.475054
0.43248
0.46962
0.457915
0.458591
0.441717
0.485911
0.491341
0.478303
0.498356
0.533835
0.509802
0.535935
0.497957
0.506253
0.492826
0.459984
0.488176
0.483026
0.461011
0.488628
0.509421
0.483704
0.445449
0.447769
0.490736
0.498195
0.460614
0.444691
0.514008
0.554755
0.543779
0.506126
0.496117
0.537546
0.519495
0.500592
0.500817
0.493435
0.470502
0.506409
0.505789
0.524085
0.491357
0.464992
0.516546
0.560038
0.542743
0.510632
0.489691
0.487679
0.476329
0.480534
0.503373
0.480449
0.454062
0.471279
0.51739
0.530421
0.516699
0.543375
0.541144
0.510184
0.5076
0.473409
0.454971
0.496138
0.525409
0.568448
0.582609
0.561768
0.533991
0.502999
0.46665
0.46356
0.506281
0.504922
0.500863
0.519856
0.488043
0.439327
0.489468
0.565559
0.54987
0.474454
0.438372
0.493855
0.566369
0.555455
0.480961
0.436132
0.451558
0.4792
0.472365
0.510276
0.544215
0.520901
0.487879
0.497424
0.499062
0.463401
0.46773
0.524685
0.555882
0.514914
0.494774
0.502953
0.510163
0.514748
0.473101
0.471189
0.536915
0.564734
0.546376
0.519422
0.495574
0.458162
0.466632
0.526359
0.543504
0.486264
0.471568
0.501323
0.508036
0.459651
0.442092
0.497167
0.541348
0.49931
0.461659
0.488403
0.548128
0.552871
0.519669
0.501832
0.530357
0.5478
0.533308
0.478527
0.388253
0.345757
0.376265
0.42502
0.50284
0.534063
0.526557
0.516333
0.521215
0.53094
0.524949
0.501699
0.48069
0.476321
0.482243
0.484689
0.482446
0.485612
0.497431
0.507698
0.50568
0.490393
0.465226
0.437726
0.430026
0.453032
0.487411
0.516265
0.537232
0.546467
0.541465
0.526878
0.510339
0.495972
0.485256
0.482168
0.489681
0.504362
0.51765
0.5176
0.494882
0.459764
0.449105
0.483532
0.52267
0.529711
0.520733
0.520168
0.527972
0.520051
0.495198
0.486412
0.500579
0.512419
0.501211
0.489783
0.494259
0.495429
0.488476
0.479458
0.473455
0.479293
0.488793
0.491632
0.49939
0.518203
0.53685
0.549092
0.557178
0.558105
0.546752
0.524209
0.499923
0.487242
0.489082
0.494224
0.4965
0.501741
0.513829
0.526654
0.525824
0.501162
0.46714
0.456893
0.482272
0.516676
0.530895
0.526274
0.527494
0.546212
0.565577
0.561882
0.536856
0.515005
0.510402
0.519389
0.528131
0.529663
0.526432
0.522595
0.520715
0.523981
0.52714
0.515055
0.488041
0.471511
0.481837
0.49362
0.469792
0.427239
0.396707
0.405048
0.476476
0.546096
0.577272
0.568296
0.534812
0.50211
0.490488
0.505711
0.534345
0.551976
0.543745
0.517152
0.492976
0.484573
0.49063
0.505298
0.524634
0.540442
0.541301
0.526792
0.515641
0.526138
0.549385
0.556728
0.534284
0.499797
0.478505
0.475993
0.486307
0.500116
0.503712
0.493149
0.479781
0.479858
0.503245
0.537013
0.548201
0.528237
0.506043
0.50012
0.499093
0.487785
0.471287
0.469914
0.484567
0.497747
0.506967
0.526001
0.554296
0.570738
0.575176
0.58344
0.590066
0.573468
0.54445
0.537628
0.548505
0.550381
0.544443
0.530209
0.500073
0.47397
0.477081
0.503714
0.530699
0.549889
0.54933
0.535852
0.530213
0.536615
0.55096
0.567011
0.569233
0.538336
0.515391
0.528121
0.544029
0.532848
0.502635
0.49392
0.519868
0.56159
0.577261
0.544028
0.524043
0.56105
0.578299
0.524462
0.466605
0.503708
0.492369
0.455542
0.471966
0.465034
0.533101
0.506861
0.494061
0.499802
0.527109
0.541241
0.44471
0.472862
0.542161
0.583467
0.496184
0.42053
0.490563
0.495229
0.439723
0.426986
0.484835
0.363233
0.475177
0.450534
0.489983
0.470042
0.430198
0.467228
0.455996
0.486268
0.568195
0.517848
0.455335
0.544972
0.529745
0.517278
0.500843
0.529568
0.485245
0.479539
0.528932
0.473214
0.476077
0.532682
0.507188
0.498124
0.518925
0.523402
0.499646
0.448606
0.501366
0.541396
0.52472
0.524186
0.411739
0.431914
0.483664
0.542201
0.526586
0.504089
0.50446
0.517617
0.512666
0.541098
0.486803
0.485177
0.532279
0.522767
0.457047
0.4896
0.526042
0.493841
0.485296
0.487372
0.457294
0.445635
0.481434
0.486682
0.469996
0.465904
0.461439
0.470966
0.470946
0.440261
0.46697
0.49769
0.488215
0.488725
0.520468
0.526401
0.490018
0.50933
0.556273
0.568394
0.527128
0.458732
0.459504
0.497845
0.516624
0.516059
0.513211
0.513314
0.476699
0.479024
0.487107
0.515911
0.547741
0.545794
0.517856
0.519303
0.494062
0.519731
0.560932
0.537207
0.523702
0.525342