/*--------------------------------*- C++ -*----------------------------------*\
  =========                 |
  \\      /  F ield         | OpenFOAM: The Open Source CFD Toolbox
   \\    /   O peration     | Website:  https://openfoam.org
    \\  /    A nd           | Version:  7
     \\/     M anipulation  |
\*---------------------------------------------------------------------------*/
FoamFile
{
    version     2.0;
    format      ascii;
    class       volScalarField;
    location    "5000";
    object      k1Write;
}
// * * * * * * * * * * * * * * * * * * * * * * * * * * * * * * * * * * * * * //

dimensions      [0 2 0 0 0 0 0];

internalField   nonuniform List<scalar> 
160000
(
1.55508e-18
2.18417e-18
1.57816e-18
2.33296e-18
2.96458e-18
1.45003e-18
3.2713e-18
1.63782e-18
2.02099e-18
3.96699e-18
2.82788e-18
1.85621e-18
3.47317e-18
3.18632e-18
1.09204e-18
1.7584e-18
1.31194e-18
1.39702e-18
2.9493e-18
2.71701e-18
2.31239e-18
1.69146e-18
2.11813e-18
3.31783e-18
2.74916e-18
3.26205e-18
3.26667e-18
2.03221e-18
2.43856e-18
1.37075e-18
1.48854e-18
2.58622e-18
5.58663e-18
2.73231e-18
2.29837e-18
2.60415e-18
2.9266e-18
4.21198e-18
1.19511e-18
2.1607e-18
2.20734e-18
2.17938e-18
2.52532e-18
1.35292e-18
2.53126e-18
2.45438e-18
2.50957e-18
1.44572e-18
2.6967e-18
1.59167e-18
1.96965e-18
4.04307e-18
2.59717e-18
1.93138e-18
3.51093e-18
1.24511e-18
3.98106e-18
1.16952e-18
9.19676e-19
1.43135e-18
6.21418e-18
1.83856e-18
1.72297e-18
1.34026e-18
1.01908e-18
3.78813e-18
2.52145e-18
3.08283e-18
7.99654e-19
3.4311e-19
2.99504e-18
9.82719e-19
2.56599e-18
1.27345e-18
2.37639e-18
2.0227e-18
2.768e-18
1.82472e-18
3.56878e-18
2.1246e-18
3.91615e-18
5.0619e-18
2.58497e-18
1.89493e-18
1.76086e-18
1.54129e-18
1.51398e-18
9.83129e-19
1.52123e-18
2.41335e-18
9.68977e-19
3.24493e-18
3.91063e-18
3.27843e-18
2.1926e-18
1.04678e-18
1.87017e-18
1.51224e-18
1.57193e-18
1.03063e-18
1.83369e-18
7.27169e-19
2.72724e-18
1.47857e-18
8.47896e-19
1.95837e-18
7.86499e-19
1.90278e-18
2.32739e-18
2.55318e-18
3.29756e-18
1.17745e-18
3.41359e-18
1.69346e-18
1.35055e-18
1.84753e-18
1.08716e-18
1.55027e-18
3.02332e-18
2.40966e-18
1.8366e-18
1.24453e-18
2.24307e-18
2.72922e-18
3.45e-18
5.54641e-18
3.90976e-18
1.65929e-18
2.16377e-18
2.23918e-18
1.56332e-18
1.1849e-18
2.15219e-18
4.38768e-18
2.48461e-18
1.98933e-18
1.211e-18
1.6415e-18
1.05116e-18
7.14758e-19
2.09057e-18
2.68924e-18
5.50287e-19
2.02326e-18
3.99259e-18
2.01949e-18
2.16104e-18
2.08749e-18
1.83449e-18
1.11575e-18
7.95819e-19
1.34356e-18
8.54348e-19
2.03627e-18
7.14785e-19
1.71112e-18
1.77317e-18
3.49469e-18
2.24798e-18
2.49338e-18
1.27449e-18
1.54856e-18
1.17797e-18
2.79755e-18
7.94925e-19
2.01774e-18
1.95018e-18
1.00482e-18
1.38561e-18
9.73286e-19
3.1316e-18
5.11106e-18
1.95709e-18
5.12062e-18
2.73944e-18
1.19699e-18
1.6846e-18
1.91462e-18
4.41774e-18
3.71643e-18
8.78564e-19
2.95117e-18
1.20286e-18
7.916e-19
8.63958e-19
9.89573e-19
1.20234e-18
1.058e-18
5.9171e-19
1.0716e-18
1.49783e-18
1.06091e-18
1.42225e-18
2.76275e-18
3.56158e-18
6.10759e-19
9.12039e-19
5.35291e-18
1.6055e-17
1.06362e-17
5.80619e-18
3.10004e-18
1.70975e-18
9.82077e-19
1.12317e-18
2.17863e-18
2.84181e-18
2.22836e-18
1.66936e-18
1.55758e-18
1.687e-18
1.61976e-18
1.32937e-18
1.34706e-18
1.63301e-18
1.40813e-18
1.15029e-18
2.09403e-18
5.00435e-18
6.63364e-18
5.04559e-18
2.30268e-18
6.77684e-19
4.72884e-19
6.13389e-19
9.25093e-19
1.68969e-18
6.96336e-19
1.806e-18
1.43652e-18
4.80068e-19
1.26473e-18
9.11961e-19
1.70538e-18
1.63104e-18
1.94254e-18
9.85144e-19
1.79536e-18
9.86375e-19
1.69057e-18
1.20668e-18
8.35302e-19
1.28161e-18
9.50427e-19
1.29891e-18
8.6275e-19
9.98092e-19
1.01351e-18
4.20589e-18
9.39877e-18
6.79367e-18
3.57109e-18
1.75266e-18
1.01338e-18
8.36353e-19
1.29791e-18
1.10184e-18
5.37405e-19
1.19536e-18
6.74706e-18
1.26586e-17
3.70081e-18
1.19974e-18
5.44879e-19
7.71876e-19
2.03623e-18
1.93248e-18
6.15516e-19
1.00863e-18
3.91961e-18
1.98792e-18
1.29571e-18
1.89752e-18
1.52556e-18
8.84164e-19
5.34438e-19
1.20209e-18
4.04632e-18
2.3952e-18
1.6014e-18
1.0024e-18
9.69061e-19
1.25702e-18
1.7518e-18
1.91529e-18
2.16533e-18
2.77521e-18
1.52858e-18
1.54944e-18
1.95834e-18
1.69095e-18
4.87657e-19
1.06667e-18
1.57079e-18
2.01188e-18
2.29865e-18
2.68776e-18
4.76642e-19
9.1561e-19
3.98959e-19
1.29795e-18
8.4054e-18
2.96432e-17
1.81293e-17
9.13507e-18
4.84612e-18
3.10684e-18
2.12111e-18
1.47302e-18
1.16849e-18
1.12298e-18
8.64089e-19
8.15198e-19
1.61144e-18
3.12927e-18
5.94128e-18
4.93237e-18
1.6948e-18
7.03256e-19
6.64303e-19
4.5814e-19
4.10254e-19
3.98936e-19
1.58336e-18
3.96063e-18
4.21404e-18
4.14475e-18
4.32403e-18
3.7496e-18
2.83914e-18
1.93732e-18
1.91057e-18
1.95008e-18
1.74984e-18
1.73156e-18
1.52843e-18
1.12001e-18
1.43623e-18
3.30097e-18
2.78989e-18
8.77997e-19
8.59967e-19
1.22803e-18
9.47897e-19
2.22028e-18
1.63727e-18
1.92849e-18
4.02318e-18
5.07626e-18
3.85869e-18
2.5143e-18
1.41215e-18
1.2102e-18
1.23068e-18
1.72676e-18
1.85251e-18
2.26806e-18
2.32558e-18
2.13686e-18
1.32165e-18
9.79884e-19
8.55934e-19
1.25426e-18
1.08539e-18
2.28241e-18
2.97527e-18
1.97976e-18
4.90471e-18
5.40933e-18
2.61787e-18
1.71006e-18
2.05647e-18
2.11278e-18
4.55173e-18
1.69643e-18
3.00047e-18
1.35505e-18
1.19166e-18
8.84538e-19
1.04975e-18
1.4125e-18
1.34439e-18
1.17393e-18
2.05492e-18
2.41214e-18
2.45167e-18
2.91567e-18
2.6338e-18
1.76638e-18
1.32149e-18
1.68826e-18
1.14865e-18
1.71007e-18
1.21761e-18
5.62961e-19
1.94401e-18
1.53637e-18
4.9385e-19
3.7365e-18
2.23873e-18
5.34834e-18
1.20536e-18
2.38737e-18
1.46798e-18
1.21108e-18
1.5853e-18
2.62931e-18
2.02714e-18
2.19593e-18
2.59964e-18
2.98763e-18
1.7735e-18
2.02789e-18
2.45969e-18
3.66387e-18
1.55198e-18
1.73091e-18
5.10113e-18
4.46417e-18
2.86355e-18
1.71457e-18
1.94655e-18
3.36844e-18
3.15963e-18
1.23669e-18
1.85783e-18
5.15284e-18
4.12973e-18
2.10663e-18
3.56874e-18
2.63598e-18
1.76636e-18
2.33396e-18
1.80399e-18
1.31542e-18
2.91654e-18
3.91457e-18
4.74553e-19
2.59445e-18
4.74486e-18
2.31254e-18
1.54969e-18
2.64597e-18
1.05824e-18
2.54497e-18
3.84416e-18
1.84862e-18
1.12817e-18
2.56349e-18
4.05183e-18
1.71981e-18
1.99056e-18
1.80416e-18
5.16773e-18
9.40096e-19
2.10372e-18
2.83144e-18
1.337e-18
1.62707e-18
1.70002e-18
1.85985e-18
2.38611e-18
1.35914e-18
1.23088e-18
2.0689e-18
1.74204e-18
1.05176e-18
3.08135e-18
2.98872e-18
4.48639e-18
3.84555e-18
2.34146e-18
9.48744e-19
1.59887e-18
1.70973e-18
2.56532e-18
1.66943e-18
1.633e-18
1.46711e-18
3.01357e-18
2.71042e-18
1.99103e-18
2.02692e-18
2.13983e-18
4.90172e-18
4.34482e-18
1.29485e-18
1.51907e-18
1.79269e-18
2.62018e-18
3.21004e-18
2.41968e-18
4.48202e-18
2.93256e-18
1.33236e-18
2.17449e-18
1.94952e-18
2.3885e-18
2.0497e-18
1.25435e-18
2.47805e-18
1.78259e-18
1.01846e-18
3.89096e-18
2.15928e-18
1.19733e-18
2.77536e-18
3.5583e-18
2.43856e-18
2.67429e-18
2.10454e-18
1.01283e-18
1.2391e-18
1.18477e-18
1.47331e-18
1.64166e-18
1.65972e-18
2.02494e-18
2.60534e-18
4.53823e-18
3.92058e-18
2.02715e-18
1.92977e-18
1.93144e-18
1.80808e-18
2.08969e-18
1.90249e-18
1.47369e-18
2.06043e-18
1.57556e-18
1.23692e-18
7.40007e-19
3.7282e-18
4.72178e-18
2.53789e-18
1.20546e-18
4.07704e-18
1.40546e-18
8.73484e-19
1.26079e-18
2.05315e-18
2.69231e-18
2.22098e-18
2.73628e-18
2.76823e-18
1.29188e-18
2.08914e-18
1.61522e-18
1.33023e-18
9.48191e-19
3.13183e-18
9.05103e-19
9.83312e-19
1.54683e-18
1.65392e-18
2.40656e-18
1.45037e-18
2.18268e-18
1.1741e-18
2.04645e-18
1.84768e-18
2.33958e-18
1.83903e-18
1.50064e-18
1.22066e-18
1.99919e-18
2.9479e-18
1.4026e-18
1.73019e-18
1.69039e-18
1.98845e-18
1.80702e-18
9.72849e-19
3.54871e-18
1.91818e-18
2.13238e-18
2.29327e-18
1.71021e-18
2.15402e-18
1.6259e-18
1.40053e-18
1.90157e-18
1.08996e-18
5.17597e-19
1.57634e-18
1.35166e-18
1.24851e-18
4.41635e-19
6.22168e-19
1.68258e-18
3.91355e-18
3.66634e-18
2.67402e-18
2.65027e-18
1.99749e-18
1.98448e-18
4.3691e-18
8.57481e-18
1.20795e-17
7.93737e-18
4.65527e-18
2.63317e-18
1.63517e-18
1.50101e-18
2.22036e-18
3.2575e-18
3.50485e-18
2.43771e-18
1.79633e-18
1.64086e-18
1.46884e-18
1.1381e-18
1.00402e-18
1.15379e-18
1.19031e-18
1.05535e-18
1.22038e-18
1.83846e-18
2.10666e-18
1.7179e-18
1.24549e-18
7.13302e-19
5.44325e-19
6.642e-19
1.02688e-18
1.39877e-18
1.74081e-18
1.11581e-18
1.75723e-18
1.53677e-18
1.84613e-18
2.13286e-18
4.7741e-18
4.17907e-18
1.29359e-18
1.11565e-18
1.60208e-18
1.87056e-18
1.06556e-18
1.29284e-18
9.02964e-19
7.3199e-19
1.6717e-18
1.57176e-18
4.24664e-19
1.0796e-18
1.64913e-18
1.21798e-17
2.01471e-17
1.15021e-17
6.40581e-18
3.57602e-18
2.24955e-18
1.67682e-18
1.36404e-18
1.13878e-18
8.65168e-19
1.11993e-18
3.03642e-18
5.52451e-18
3.07916e-18
1.30136e-18
7.81009e-19
9.69863e-19
1.70078e-18
1.88913e-18
7.94744e-19
7.47639e-19
2.69789e-18
5.01654e-18
1.96966e-18
1.69151e-18
1.99407e-18
1.17274e-18
7.47174e-19
9.04828e-19
2.14874e-18
3.15335e-18
1.71352e-18
1.13571e-18
1.1624e-18
1.45645e-18
2.17313e-18
3.86665e-18
3.32782e-18
2.00439e-18
1.22192e-18
8.65533e-19
8.61179e-19
9.18353e-19
6.44504e-19
9.74711e-19
1.86883e-18
2.00003e-18
6.06929e-19
1.25055e-18
2.02487e-18
1.02162e-18
6.53773e-19
3.55255e-18
9.11662e-18
1.53785e-17
1.38424e-17
6.16594e-18
3.22067e-18
1.74209e-18
1.14267e-18
9.59466e-19
9.11695e-19
8.83706e-19
8.65922e-19
9.25352e-19
1.27565e-18
2.18471e-18
3.3036e-18
2.51073e-18
1.25783e-18
6.49922e-19
5.34196e-19
5.64443e-19
4.72496e-19
5.10891e-19
1.50018e-18
9.55387e-18
1.51264e-17
7.61931e-18
4.30368e-18
3.38574e-18
2.91313e-18
1.95656e-18
1.39475e-18
1.4131e-18
1.37374e-18
1.43348e-18
1.6102e-18
1.42565e-18
1.20976e-18
1.50396e-18
1.62769e-18
1.13837e-18
1.03762e-18
1.58978e-18
1.66175e-18
1.49493e-18
1.89348e-18
2.27186e-18
2.65745e-18
3.02271e-18
2.4569e-18
1.89357e-18
1.26645e-18
9.14992e-19
9.23036e-19
1.39695e-18
1.46421e-18
1.13889e-18
1.02762e-18
1.14974e-18
1.26925e-18
1.22357e-18
1.15307e-18
1.23721e-18
1.28434e-18
1.60052e-18
3.78488e-18
3.72829e-18
3.31828e-18
3.51567e-18
1.80732e-18
9.82521e-19
9.64089e-19
8.5728e-19
1.06879e-18
9.37674e-19
1.25852e-18
9.40419e-19
1.18263e-18
1.63354e-18
1.01757e-18
1.46927e-18
2.80119e-18
7.61265e-19
3.15636e-18
1.85178e-18
8.12187e-19
2.08628e-18
1.468e-18
9.78603e-19
1.397e-18
2.36418e-18
1.11365e-18
1.64336e-18
2.34827e-18
1.11229e-18
6.47487e-19
2.07424e-18
4.94763e-19
1.29234e-18
7.06822e-19
1.95254e-18
9.55699e-19
7.92853e-19
3.27641e-18
1.20921e-18
4.18906e-18
9.8492e-19
2.0713e-18
3.68606e-18
1.40876e-18
3.52557e-18
5.64235e-18
3.10742e-18
1.83572e-18
3.59786e-18
6.05849e-18
3.02209e-18
6.28417e-18
4.02985e-18
1.73702e-18
3.22092e-18
2.02879e-18
2.60289e-18
1.6598e-18
1.1915e-18
1.32297e-18
1.82224e-18
2.18735e-18
2.35275e-18
5.66935e-18
2.36696e-18
1.77653e-18
2.65163e-18
2.79212e-18
2.99646e-18
1.14876e-18
1.63258e-18
2.28677e-18
1.54323e-18
1.51889e-18
1.74183e-18
2.13846e-18
2.06425e-18
2.13237e-18
2.00749e-18
5.16864e-18
1.52047e-18
1.08041e-18
1.17927e-18
2.47364e-18
4.88649e-18
2.14769e-18
1.20955e-18
1.27397e-18
1.77221e-18
2.22944e-18
2.47703e-18
4.43745e-18
3.86343e-18
5.16107e-18
1.64876e-18
1.39095e-18
1.71902e-18
2.91772e-18
1.13893e-18
1.41082e-18
2.84684e-18
1.19806e-18
1.02134e-18
7.04117e-19
1.51647e-18
7.99048e-19
2.41368e-18
1.89763e-18
7.67536e-19
1.1152e-18
1.82678e-18
1.89386e-18
2.662e-18
3.71332e-18
2.17969e-18
2.90938e-18
3.30042e-18
2.93037e-18
1.38947e-18
2.1785e-18
1.52544e-18
2.71986e-18
2.71704e-18
1.29518e-18
1.08948e-18
2.24086e-18
1.29577e-18
8.85347e-19
1.4687e-18
7.42207e-19
6.23035e-19
1.18743e-18
1.47068e-18
1.62033e-18
1.22177e-18
1.2118e-18
2.33356e-18
1.4053e-18
1.89773e-18
2.84334e-18
2.07577e-18
1.7803e-18
1.16166e-18
1.83956e-18
2.58145e-18
1.66958e-18
1.78537e-18
1.33561e-18
9.85343e-19
1.6995e-18
1.45194e-18
1.61563e-18
1.98772e-18
1.92985e-18
1.60011e-18
1.10642e-18
1.15161e-18
1.3989e-18
1.24259e-18
1.17151e-18
1.16077e-18
1.03683e-18
1.45999e-18
1.47121e-18
1.0602e-18
1.52442e-18
2.98197e-18
3.10163e-18
2.05359e-18
1.82157e-18
1.52712e-18
1.899e-18
1.97504e-18
1.34568e-18
1.42275e-18
2.72989e-18
4.8092e-18
2.41113e-18
2.19603e-18
2.81374e-18
1.68069e-18
1.6162e-18
1.82864e-18
1.60181e-18
1.25816e-18
1.95007e-18
1.28075e-18
1.63488e-18
3.81246e-18
3.18894e-18
1.16845e-18
1.83764e-18
1.69361e-18
1.36939e-18
1.24045e-18
9.06415e-19
1.72766e-18
1.6574e-18
1.77076e-18
1.67923e-18
1.71913e-18
1.61527e-18
1.25805e-18
1.89743e-18
2.76766e-18
3.00187e-18
2.8538e-18
2.15432e-18
1.28366e-18
6.77086e-19
1.48151e-18
2.69782e-18
2.30185e-18
1.31969e-18
1.47686e-18
1.17012e-18
7.9754e-19
9.4989e-19
1.33077e-18
8.83494e-19
7.23e-19
6.41643e-19
1.03963e-18
2.24866e-18
7.10085e-18
6.62287e-18
4.00194e-18
3.00436e-18
2.53396e-18
2.2e-18
1.99771e-18
2.31699e-18
3.13014e-18
4.01294e-18
3.26633e-18
2.07861e-18
1.39629e-18
1.33767e-18
1.71515e-18
2.12115e-18
2.12137e-18
1.77979e-18
1.41953e-18
1.32202e-18
1.18331e-18
9.73963e-19
8.34843e-19
9.34492e-19
9.871e-19
9.37366e-19
9.95881e-19
1.26371e-18
1.27473e-18
9.63059e-19
7.4723e-19
9.11516e-19
1.29071e-18
1.4509e-18
1.46689e-18
1.54771e-18
1.49083e-18
1.12865e-18
1.27059e-18
2.06549e-18
1.62869e-18
1.32257e-18
2.0455e-18
2.3622e-18
1.13036e-18
1.10816e-18
1.60373e-18
1.06801e-18
8.30536e-19
1.06087e-18
1.91554e-18
2.39232e-18
1.72538e-18
1.45969e-18
6.63341e-19
8.59249e-19
1.26778e-18
4.68262e-18
1.90712e-17
1.1309e-17
5.31303e-18
2.49856e-18
1.55693e-18
1.30892e-18
1.11915e-18
9.4463e-19
8.50312e-19
8.80493e-19
1.1481e-18
1.77183e-18
1.74876e-18
1.2177e-18
9.49896e-19
1.16523e-18
1.52524e-18
1.66593e-18
1.22051e-18
9.87753e-19
1.43041e-18
2.40791e-18
1.64859e-18
1.18448e-18
1.59622e-18
2.01513e-18
1.75053e-18
1.49014e-18
1.47474e-18
2.25932e-18
2.45319e-18
1.75912e-18
1.73276e-18
2.34678e-18
2.73818e-18
2.47523e-18
1.69037e-18
1.03253e-18
8.73986e-19
9.6258e-19
1.05623e-18
1.14333e-18
1.19342e-18
1.05821e-18
7.47069e-19
4.51442e-19
4.1822e-19
9.74778e-19
3.42302e-18
2.36164e-18
1.02944e-18
3.03977e-18
5.61543e-18
1.28772e-17
8.35755e-18
3.68245e-18
1.89981e-18
1.37527e-18
1.32963e-18
1.31532e-18
1.25549e-18
1.03242e-18
9.5501e-19
1.07682e-18
1.2446e-18
1.43449e-18
1.674e-18
1.43911e-18
9.3657e-19
6.87965e-19
8.46441e-19
1.06983e-18
8.77846e-19
8.74696e-19
1.72549e-18
7.38303e-18
9.1689e-18
5.52977e-18
2.65956e-18
1.73217e-18
1.38737e-18
1.24717e-18
1.13128e-18
1.19337e-18
1.37303e-18
1.38065e-18
1.13399e-18
1.02193e-18
9.5508e-19
1.03798e-18
1.36301e-18
1.60161e-18
1.61169e-18
1.58127e-18
1.41513e-18
1.4434e-18
1.93576e-18
2.29211e-18
2.49864e-18
2.77404e-18
2.47466e-18
1.46848e-18
9.12188e-19
8.93931e-19
1.31818e-18
2.0224e-18
2.21468e-18
1.4264e-18
1.03158e-18
1.19224e-18
1.60638e-18
1.34532e-18
8.03534e-19
7.65933e-19
1.22983e-18
1.98499e-18
2.41623e-18
2.7381e-18
1.4674e-18
1.29144e-18
1.59044e-18
1.17697e-18
1.06257e-18
1.63212e-18
2.25701e-18
2.23416e-18
2.38008e-18
2.20063e-18
1.78793e-18
1.52082e-18
9.66398e-19
7.94175e-19
1.33579e-18
9.41739e-19
1.13473e-18
1.67481e-18
2.29259e-18
1.46041e-18
9.62883e-19
1.72738e-18
1.99355e-18
2.15879e-18
1.54974e-18
8.37445e-19
1.88609e-18
1.91059e-18
1.3518e-18
1.78463e-18
1.29446e-18
5.3976e-19
1.329e-18
1.42222e-18
9.49995e-19
4.53755e-18
4.36857e-18
4.83281e-18
5.28526e-18
5.69665e-18
5.23167e-18
3.38133e-18
5.25763e-18
3.13209e-18
4.24828e-18
1.8983e-18
2.09353e-18
2.27279e-18
1.76103e-18
5.07566e-18
2.90536e-18
3.93284e-18
3.29237e-18
2.62826e-18
2.7958e-18
1.4731e-18
4.75078e-18
1.3558e-18
2.54068e-18
5.27905e-18
1.36533e-18
1.86096e-18
2.99763e-18
1.59437e-18
5.13548e-19
1.05649e-18
1.42282e-18
2.20029e-18
2.8011e-18
3.15041e-18
2.87529e-18
3.06277e-18
8.24016e-19
1.81638e-18
4.55006e-18
4.40409e-18
2.6457e-18
2.15615e-18
2.36265e-18
3.08874e-18
2.18966e-18
2.20791e-18
1.63334e-18
1.94823e-18
1.529e-18
3.78059e-18
2.4621e-18
8.54368e-19
2.37494e-18
1.87728e-18
1.34091e-18
1.19875e-18
1.73386e-18
1.60114e-18
2.53468e-18
1.98676e-18
3.2195e-18
1.75196e-18
1.30634e-18
1.61428e-18
1.96414e-18
1.73888e-18
1.4723e-18
2.61218e-18
2.50194e-18
8.35562e-19
8.7758e-19
1.27012e-18
2.79254e-18
4.46354e-18
2.74685e-18
1.3633e-18
2.59754e-18
1.52576e-18
7.66754e-19
2.94848e-18
2.25863e-18
1.66564e-18
1.55542e-18
3.44955e-18
3.46521e-18
3.2079e-18
3.26984e-18
2.04546e-18
3.29773e-18
1.37548e-18
2.42354e-18
1.76327e-18
1.49671e-18
1.25447e-18
2.36013e-18
9.96502e-19
1.0104e-18
1.83071e-18
3.06987e-18
1.57938e-18
1.76852e-18
2.13194e-18
1.88098e-18
2.96949e-18
3.42926e-18
2.42539e-18
1.95184e-18
2.14557e-18
2.09431e-18
1.50827e-18
2.49908e-18
1.74118e-18
1.14764e-18
1.37128e-18
1.87151e-18
2.11655e-18
2.76834e-18
2.52082e-18
1.45487e-18
1.31069e-18
1.39746e-18
1.52602e-18
8.89399e-19
1.85923e-18
2.31198e-18
2.21687e-18
1.40789e-18
1.25487e-18
1.52772e-18
1.52542e-18
2.12535e-18
1.68934e-18
1.83374e-18
1.72812e-18
1.32349e-18
1.91341e-18
1.82543e-18
1.51508e-18
1.81616e-18
2.15656e-18
1.02654e-18
1.56956e-18
2.37639e-18
2.63575e-18
2.91357e-18
1.81623e-18
1.33559e-18
1.21935e-18
2.40222e-18
1.54859e-18
1.51571e-18
1.08456e-18
1.10382e-18
1.44118e-18
1.56657e-18
2.6129e-18
2.13598e-18
1.25615e-18
1.70625e-18
1.87804e-18
2.09918e-18
2.34161e-18
1.98655e-18
1.18894e-18
1.29887e-18
1.7921e-18
2.63028e-18
3.73897e-18
5.3456e-18
3.26108e-18
1.70627e-18
1.93172e-18
2.46671e-18
1.94861e-18
2.08863e-18
2.05772e-18
1.22593e-18
1.00615e-18
1.50857e-18
1.57506e-18
6.49041e-19
5.47563e-19
1.0032e-18
9.57711e-19
8.39287e-19
9.36468e-19
2.77048e-18
8.16049e-18
6.41596e-18
4.97556e-18
3.14706e-18
2.68982e-18
2.62916e-18
2.12038e-18
1.50974e-18
1.30502e-18
1.58914e-18
2.11983e-18
2.25278e-18
1.68311e-18
1.16728e-18
1.2042e-18
1.44776e-18
1.93613e-18
2.07388e-18
1.74483e-18
1.5297e-18
1.44566e-18
1.2806e-18
1.1381e-18
1.27486e-18
1.52146e-18
1.58378e-18
1.38789e-18
1.19233e-18
1.02782e-18
8.8208e-19
7.99752e-19
9.25967e-19
1.39863e-18
2.04283e-18
2.56539e-18
2.44756e-18
1.86786e-18
1.4711e-18
1.10567e-18
9.34221e-19
9.04007e-19
9.47263e-19
1.11804e-18
1.11301e-18
6.98946e-19
6.01246e-19
7.54057e-19
1.03568e-18
1.37852e-18
1.58328e-18
1.24851e-18
1.1653e-18
1.01415e-18
7.1738e-19
7.79232e-19
7.49776e-19
1.30978e-18
3.32058e-18
6.41863e-18
1.02106e-17
5.13716e-18
2.19178e-18
1.25372e-18
1.09557e-18
1.04935e-18
9.14703e-19
9.30649e-19
1.11735e-18
1.4325e-18
1.88184e-18
1.82462e-18
1.35188e-18
9.89893e-19
1.00952e-18
1.49268e-18
2.08652e-18
1.97807e-18
1.38127e-18
1.00507e-18
1.24985e-18
1.70709e-18
2.56603e-18
3.19472e-18
3.20831e-18
1.83387e-18
9.04199e-19
7.11753e-19
1.28393e-18
2.01333e-18
2.17735e-18
2.09098e-18
2.16461e-18
1.81105e-18
1.40896e-18
1.13171e-18
1.1168e-18
1.16425e-18
1.02698e-18
8.65378e-19
1.01166e-18
1.44687e-18
1.45333e-18
7.74586e-19
3.90793e-19
4.50787e-19
1.2186e-18
3.75052e-18
3.92352e-18
5.52233e-18
5.10229e-18
5.68127e-18
5.88576e-18
3.84815e-18
1.77347e-18
1.54689e-18
1.63976e-18
1.92842e-18
2.04047e-18
1.84929e-18
1.60505e-18
1.42147e-18
1.39334e-18
1.38403e-18
1.2681e-18
1.32257e-18
1.43985e-18
1.46398e-18
1.18926e-18
9.73947e-19
7.47331e-19
6.47954e-19
9.72071e-19
1.59838e-18
3.32687e-18
3.81796e-18
2.85303e-18
1.71945e-18
1.12142e-18
9.18341e-19
9.68288e-19
1.19918e-18
1.37432e-18
1.26357e-18
1.12053e-18
1.1e-18
1.26344e-18
1.63372e-18
2.52744e-18
3.05026e-18
3.66464e-18
3.57199e-18
2.45059e-18
1.68049e-18
1.29827e-18
1.19541e-18
1.49346e-18
2.11563e-18
2.73968e-18
1.86166e-18
1.16177e-18
8.91057e-19
8.00562e-19
8.12276e-19
8.81092e-19
9.86112e-19
1.22294e-18
1.29726e-18
1.31029e-18
1.21784e-18
1.20615e-18
1.41394e-18
1.96921e-18
1.78276e-18
1.62691e-18
1.50703e-18
1.32673e-18
1.55027e-18
1.06189e-18
8.68449e-19
1.05308e-18
1.21823e-18
1.53831e-18
1.77983e-18
1.44191e-18
1.56244e-18
1.70191e-18
1.70969e-18
1.72652e-18
1.04292e-18
6.0913e-19
9.70438e-19
1.67263e-18
1.5392e-18
6.50161e-19
2.12264e-18
3.20127e-18
2.02277e-18
1.18429e-18
1.37497e-18
2.00587e-18
1.07294e-18
1.99225e-18
1.41082e-18
8.35068e-19
5.8519e-19
1.16898e-18
9.44715e-19
7.54024e-19
6.41164e-19
1.02374e-18
1.54769e-18
1.90055e-18
3.67366e-18
4.31085e-18
5.2243e-18
2.7666e-18
2.37076e-18
2.20572e-18
1.3157e-18
2.97735e-18
2.46462e-18
1.33826e-18
1.5204e-18
5.19173e-19
4.07035e-18
6.2938e-18
1.78891e-18
1.15785e-18
3.33968e-18
3.17039e-18
4.71602e-18
5.59805e-18
1.92798e-18
1.51103e-18
9.66041e-19
1.54203e-18
1.52506e-18
8.45581e-19
2.57521e-18
3.69987e-18
1.96451e-18
3.21257e-18
2.55757e-18
1.32478e-18
2.29931e-18
3.7721e-18
1.93948e-18
8.62714e-19
1.40649e-18
2.17058e-18
4.38957e-18
3.22814e-18
1.86099e-18
3.52894e-18
1.8459e-18
1.28702e-18
1.47833e-18
2.10463e-18
1.6123e-18
3.09891e-18
5.13795e-18
2.29477e-18
2.39337e-18
2.31298e-18
1.79647e-18
1.31148e-18
1.92732e-18
2.11156e-18
1.30383e-18
2.18703e-18
2.02083e-18
1.14385e-18
1.491e-18
1.65714e-18
1.7944e-18
1.18794e-18
1.56302e-18
3.07856e-18
2.61331e-18
2.02805e-18
1.42329e-18
1.73579e-18
1.05189e-18
1.15415e-18
2.09512e-18
2.00905e-18
3.06734e-18
3.25118e-18
1.76144e-18
2.01384e-18
2.37011e-18
3.75963e-18
1.23312e-18
1.46317e-18
1.78779e-18
1.68624e-18
2.33005e-18
2.79997e-18
1.85902e-18
1.78214e-18
1.71534e-18
1.68994e-18
1.409e-18
1.26137e-18
1.6232e-18
1.49934e-18
1.33127e-18
2.27852e-18
2.04282e-18
1.39987e-18
1.40326e-18
2.94324e-18
3.34691e-18
1.50464e-18
9.50889e-19
2.10159e-18
2.08213e-18
2.76859e-18
2.98274e-18
1.93265e-18
1.94849e-18
1.84351e-18
1.43193e-18
1.7638e-18
3.34028e-18
4.09938e-18
2.33373e-18
9.79896e-19
1.41497e-18
2.93534e-18
1.94304e-18
1.4659e-18
1.8547e-18
1.49853e-18
1.5532e-18
1.86986e-18
2.78861e-18
1.81844e-18
1.06351e-18
1.12155e-18
1.40263e-18
1.70965e-18
1.58343e-18
2.48834e-18
2.50068e-18
2.16241e-18
1.28204e-18
1.28304e-18
1.00738e-18
1.34801e-18
2.23121e-18
2.81347e-18
2.6101e-18
2.28733e-18
2.67777e-18
1.6706e-18
1.99533e-18
2.18856e-18
1.32858e-18
1.18991e-18
1.60762e-18
1.44689e-18
1.29904e-18
1.53758e-18
2.08944e-18
2.53026e-18
2.51138e-18
2.72407e-18
2.20533e-18
1.08055e-18
8.56731e-19
1.57335e-18
2.11181e-18
2.1869e-18
2.0361e-18
1.49382e-18
1.03631e-18
1.4379e-18
3.5446e-18
2.68828e-18
2.16699e-18
2.08377e-18
1.68853e-18
1.81977e-18
1.64735e-18
1.39726e-18
1.91197e-18
1.82278e-18
1.6135e-18
1.46922e-18
1.32463e-18
1.36846e-18
1.67703e-18
1.71434e-18
1.08914e-18
6.14064e-19
5.47484e-19
3.27759e-18
1.14471e-17
1.03206e-17
6.82381e-18
4.55302e-18
2.43626e-18
1.81326e-18
1.66837e-18
1.52012e-18
1.18412e-18
9.3821e-19
1.09587e-18
1.83758e-18
2.77236e-18
2.70824e-18
2.3227e-18
1.53065e-18
1.55427e-18
1.72117e-18
1.83356e-18
2.00962e-18
1.60368e-18
1.40324e-18
1.48874e-18
1.80242e-18
2.28717e-18
2.71928e-18
2.58126e-18
1.86614e-18
1.34499e-18
1.09248e-18
1.10145e-18
1.26053e-18
1.44974e-18
1.65643e-18
1.83167e-18
1.82219e-18
1.93596e-18
1.89939e-18
1.43305e-18
1.03008e-18
9.48957e-19
1.05449e-18
1.12781e-18
1.21031e-18
1.34163e-18
1.11823e-18
8.35665e-19
1.02821e-18
1.15479e-18
1.35897e-18
1.16547e-18
8.85701e-19
8.37062e-19
1.35927e-18
1.94185e-18
1.79125e-18
1.38525e-18
1.55244e-18
3.60872e-18
7.08242e-18
7.90757e-18
5.52767e-18
2.56944e-18
1.30063e-18
9.12919e-19
9.11094e-19
9.88342e-19
1.07042e-18
1.25726e-18
1.54918e-18
1.73897e-18
1.73841e-18
1.55628e-18
1.2055e-18
9.1137e-19
8.56775e-19
1.01882e-18
1.37482e-18
1.4707e-18
1.40516e-18
1.89836e-18
2.72217e-18
3.14195e-18
2.60313e-18
2.2174e-18
1.44634e-18
9.41039e-19
9.45359e-19
1.61548e-18
2.43615e-18
3.44749e-18
2.90166e-18
2.04174e-18
1.45915e-18
1.11005e-18
1.04813e-18
1.082e-18
9.87177e-19
9.03497e-19
1.15567e-18
1.61756e-18
1.72275e-18
1.33547e-18
8.71963e-19
5.01596e-19
4.07561e-19
9.7764e-19
2.80725e-18
8.59102e-18
8.82629e-18
5.57112e-18
3.70324e-18
3.0512e-18
2.07182e-18
1.49333e-18
1.33839e-18
1.59988e-18
2.2177e-18
2.4118e-18
1.88561e-18
1.38965e-18
1.04964e-18
9.80503e-19
1.25822e-18
1.69007e-18
2.26379e-18
2.93171e-18
3.35329e-18
2.93379e-18
2.01348e-18
1.49852e-18
1.38975e-18
1.50346e-18
2.15741e-18
3.73164e-18
4.29086e-18
3.27426e-18
2.06778e-18
1.27969e-18
9.0462e-19
9.98313e-19
1.29475e-18
1.70182e-18
1.75197e-18
1.33167e-18
1.13531e-18
1.21636e-18
1.56983e-18
1.42243e-18
1.27548e-18
1.53642e-18
2.42933e-18
2.38893e-18
1.73035e-18
1.52925e-18
2.06301e-18
2.66299e-18
2.61541e-18
1.87341e-18
1.19265e-18
9.07882e-19
8.32141e-19
8.13397e-19
7.94853e-19
1.00976e-18
1.4057e-18
1.69904e-18
1.52264e-18
1.26982e-18
1.17265e-18
1.32368e-18
1.42833e-18
1.3134e-18
1.33387e-18
1.39197e-18
1.36282e-18
1.42169e-18
1.61199e-18
2.01454e-18
2.17877e-18
2.1077e-18
1.38685e-18
1.38241e-18
1.29737e-18
1.40546e-18
1.70251e-18
1.82622e-18
1.24053e-18
6.23e-19
6.26541e-19
1.32401e-18
1.07693e-18
1.23392e-18
1.81254e-18
2.0579e-18
1.90508e-18
2.65073e-18
2.38078e-18
9.89094e-19
9.08203e-19
1.53099e-18
3.00375e-18
2.14095e-18
1.46307e-18
1.74582e-18
1.61936e-18
2.03259e-18
9.36131e-19
4.33141e-19
1.04001e-18
1.12729e-18
1.44761e-18
3.10551e-19
1.58906e-18
1.25586e-18
1.29344e-18
4.64418e-18
3.05005e-18
1.80165e-18
2.79013e-18
1.23203e-18
1.42764e-18
7.49453e-19
1.73779e-18
3.03966e-18
1.60262e-18
4.28587e-18
3.70741e-18
4.23453e-18
5.68338e-18
1.77758e-18
1.85655e-18
2.41234e-18
3.83245e-18
3.44776e-18
4.0916e-18
1.96233e-18
9.39245e-19
1.5883e-18
1.6333e-18
7.03897e-19
1.59698e-18
1.18561e-18
4.78048e-18
2.16753e-18
2.22188e-18
2.52303e-18
2.64287e-18
2.72925e-18
1.40229e-18
1.48397e-18
2.18676e-18
3.10385e-18
3.63176e-18
2.41184e-18
2.50595e-18
1.42177e-18
1.4934e-18
2.12555e-18
2.16374e-18
1.85356e-18
1.94428e-18
2.57268e-18
4.8735e-18
2.75359e-18
1.38904e-18
2.21289e-18
2.31153e-18
1.54169e-18
2.17193e-18
2.58068e-18
1.89581e-18
1.43403e-18
1.83722e-18
1.48614e-18
1.27449e-18
2.61014e-18
1.68846e-18
2.6854e-18
4.91315e-18
3.09601e-18
1.70077e-18
2.34538e-18
3.12864e-18
2.60856e-18
3.80516e-18
3.36839e-18
1.77052e-18
2.10617e-18
3.82185e-18
2.41086e-18
1.69934e-18
1.31982e-18
1.38464e-18
2.13164e-18
2.12587e-18
1.57175e-18
1.70828e-18
2.49571e-18
2.76355e-18
2.8151e-18
4.36067e-18
3.30354e-18
2.00583e-18
1.24082e-18
2.12769e-18
2.96563e-18
1.67621e-18
1.41125e-18
1.47669e-18
7.41866e-19
9.37882e-19
1.49744e-18
9.82614e-19
1.3143e-18
1.37825e-18
2.13182e-18
2.23929e-18
1.61834e-18
1.48191e-18
1.26842e-18
2.10065e-18
3.01007e-18
2.74199e-18
1.59868e-18
1.0872e-18
1.19664e-18
1.76558e-18
1.43288e-18
1.06881e-18
1.05716e-18
1.3512e-18
2.64775e-18
2.40402e-18
2.17548e-18
2.8764e-18
2.16043e-18
3.02887e-18
2.61836e-18
2.05243e-18
2.22394e-18
2.1165e-18
1.96755e-18
2.04502e-18
2.5394e-18
2.75294e-18
1.6871e-18
1.29622e-18
1.37764e-18
2.01217e-18
1.37317e-18
1.44315e-18
1.83697e-18
2.02041e-18
1.7798e-18
1.80252e-18
2.6129e-18
2.55532e-18
1.66331e-18
1.55806e-18
2.28131e-18
2.54977e-18
1.95733e-18
1.29005e-18
1.27076e-18
1.48718e-18
1.93284e-18
1.62937e-18
1.88298e-18
1.3764e-18
1.18976e-18
1.52557e-18
1.80746e-18
2.57838e-18
2.70995e-18
2.48434e-18
2.04451e-18
2.14283e-18
2.00053e-18
1.86787e-18
1.88686e-18
1.1101e-18
8.77787e-19
1.04542e-18
1.06449e-18
1.12885e-18
2.00367e-18
2.43616e-18
1.88866e-18
1.45888e-18
1.78778e-18
1.70168e-18
1.85552e-18
2.53743e-18
1.94018e-18
8.93282e-19
4.14616e-19
3.38396e-19
2.82994e-18
1.43121e-17
1.01884e-17
6.91083e-18
3.92955e-18
2.07921e-18
1.58329e-18
1.58231e-18
1.60529e-18
1.60048e-18
1.51636e-18
1.37123e-18
1.51444e-18
2.17451e-18
2.75299e-18
2.74621e-18
2.37919e-18
1.58454e-18
1.53621e-18
1.61803e-18
1.75956e-18
1.97466e-18
1.71168e-18
1.61e-18
1.71307e-18
1.92375e-18
2.10936e-18
2.2585e-18
2.02711e-18
1.70765e-18
1.51941e-18
1.43241e-18
1.50535e-18
1.62661e-18
1.51542e-18
1.20566e-18
9.2347e-19
8.50048e-19
1.07694e-18
1.44674e-18
1.40056e-18
1.11152e-18
1.01159e-18
1.1329e-18
1.46401e-18
1.4457e-18
9.8068e-19
7.17241e-19
8.40294e-19
1.52212e-18
1.23878e-18
1.02059e-18
8.70766e-19
8.69934e-19
1.28282e-18
1.81047e-18
1.55772e-18
1.2637e-18
1.80305e-18
3.48142e-18
5.38735e-18
6.08448e-18
4.50506e-18
2.62773e-18
1.64243e-18
1.08398e-18
9.07962e-19
1.02517e-18
1.21757e-18
1.48427e-18
1.64333e-18
1.53827e-18
1.40423e-18
1.26803e-18
1.06557e-18
9.81911e-19
1.24755e-18
1.623e-18
1.69739e-18
1.67564e-18
1.76262e-18
2.28382e-18
3.74473e-18
3.75888e-18
2.54915e-18
2.10024e-18
1.39625e-18
1.12915e-18
1.10527e-18
1.46348e-18
2.25004e-18
2.99155e-18
3.24343e-18
2.3017e-18
1.56971e-18
1.37466e-18
1.58418e-18
1.86619e-18
1.98524e-18
1.88215e-18
1.75018e-18
1.59161e-18
1.43954e-18
1.31804e-18
1.23997e-18
9.97603e-19
7.18448e-19
8.84606e-19
2.07696e-18
7.35604e-18
7.35974e-18
4.45914e-18
2.59218e-18
2.00036e-18
1.58593e-18
1.07447e-18
1.102e-18
1.21736e-18
1.47442e-18
1.84983e-18
2.03133e-18
1.65223e-18
1.3608e-18
1.14866e-18
1.39431e-18
2.0151e-18
2.69596e-18
3.63326e-18
4.17645e-18
3.33444e-18
2.06243e-18
1.19906e-18
8.14688e-19
8.8062e-19
1.18004e-18
1.58447e-18
1.78346e-18
1.71127e-18
1.38359e-18
1.07736e-18
9.83479e-19
1.17971e-18
1.42501e-18
1.41853e-18
1.34087e-18
1.45012e-18
1.1911e-18
9.91161e-19
9.56746e-19
1.25977e-18
1.35077e-18
1.38878e-18
1.52822e-18
2.04797e-18
1.70862e-18
1.39924e-18
1.6013e-18
1.77594e-18
1.62797e-18
1.65084e-18
1.91559e-18
1.81816e-18
1.42768e-18
1.126e-18
1.26874e-18
1.63965e-18
1.72738e-18
1.81998e-18
2.36178e-18
2.31591e-18
1.80359e-18
1.51438e-18
1.44295e-18
1.54085e-18
1.42637e-18
1.11525e-18
9.93334e-19
1.24694e-18
1.5785e-18
1.90791e-18
2.18578e-18
1.87142e-18
1.25129e-18
7.10987e-19
9.1566e-19
1.63252e-18
2.73713e-18
1.97338e-18
1.90757e-18
1.98944e-18
1.81942e-18
1.86531e-18
2.57381e-18
1.55588e-18
1.17246e-18
1.4909e-18
1.80936e-18
1.49647e-18
6.65889e-19
8.65656e-19
8.19533e-19
4.32806e-19
8.57115e-19
1.52001e-18
1.33687e-18
1.81351e-18
2.0422e-18
1.17309e-18
1.59537e-18
7.24032e-19
8.71092e-19
3.19824e-18
3.64687e-18
1.96496e-18
1.09079e-18
1.40251e-18
1.96766e-18
1.81868e-18
2.3571e-18
3.20846e-18
3.75364e-18
8.58489e-18
3.92354e-18
3.08684e-18
1.94338e-18
2.32201e-18
1.54226e-18
3.06771e-18
4.21474e-18
3.2077e-18
2.10405e-18
2.23286e-18
1.42758e-18
2.16875e-18
1.6563e-18
4.62716e-18
7.26557e-18
2.31884e-18
1.49243e-18
1.69896e-18
3.51011e-18
3.6534e-18
1.68014e-18
2.79032e-18
1.74761e-18
3.57086e-18
3.02198e-18
2.84075e-18
1.31322e-18
2.16353e-18
1.53476e-18
3.51507e-18
3.21914e-18
3.27306e-18
1.70909e-18
2.17672e-18
4.07625e-18
3.57706e-18
1.75839e-18
1.72013e-18
2.49885e-18
1.57542e-18
1.21342e-18
1.78205e-18
1.69604e-18
2.86074e-18
3.23749e-18
1.629e-18
2.3474e-18
2.82738e-18
1.82131e-18
1.80375e-18
2.4919e-18
1.65337e-18
1.50133e-18
1.26129e-18
1.06573e-18
1.77065e-18
3.61952e-18
3.09541e-18
1.26356e-18