/*--------------------------------*- C++ -*----------------------------------*\
  =========                 |
  \\      /  F ield         | OpenFOAM: The Open Source CFD Toolbox
   \\    /   O peration     | Website:  https://openfoam.org
    \\  /    A nd           | Version:  7
     \\/     M anipulation  |
\*---------------------------------------------------------------------------*/
FoamFile
{
    version     2.0;
    format      ascii;
    class       volScalarField;
    location    "5000";
    object      k2Write;
}
// * * * * * * * * * * * * * * * * * * * * * * * * * * * * * * * * * * * * * //

dimensions      [0 2 0 0 0 0 0];

internalField   nonuniform List<scalar> 
160000
(
1.43215e-18
2.02127e-18
1.70581e-18
2.5343e-18
3.65365e-18
1.72962e-18
2.79181e-18
1.20808e-18
1.86942e-18
3.94716e-18
3.03647e-18
2.09076e-18
3.89208e-18
3.60866e-18
1.24239e-18
1.74481e-18
1.19066e-18
1.27331e-18
2.70327e-18
2.50135e-18
2.13791e-18
2.05379e-18
2.58251e-18
3.48032e-18
2.65022e-18
4.19254e-18
4.37306e-18
2.73182e-18
3.29117e-18
1.8575e-18
1.63447e-18
2.43967e-18
5.28964e-18
2.59727e-18
2.19253e-18
3.32137e-18
3.74679e-18
5.41276e-18
1.54137e-18
2.31025e-18
2.25436e-18
2.23361e-18
3.46329e-18
1.96226e-18
3.6841e-18
3.58502e-18
2.42222e-18
1.38147e-18
2.58532e-18
1.53071e-18
2.74954e-18
6.3099e-18
4.06693e-18
3.03358e-18
5.53298e-18
1.96785e-18
4.52725e-18
1.33389e-18
1.20281e-18
1.89249e-18
7.68175e-18
2.17087e-18
2.0401e-18
1.5913e-18
1.22822e-18
4.57812e-18
3.05539e-18
3.74654e-18
9.74388e-19
5.82417e-19
5.09756e-18
1.67712e-18
4.39055e-18
2.18448e-18
3.22078e-18
2.41765e-18
3.25275e-18
2.17117e-18
4.15909e-18
2.4819e-18
4.58548e-18
5.94122e-18
3.04107e-18
2.43258e-18
2.42026e-18
2.12321e-18
2.09021e-18
1.36017e-18
2.10876e-18
3.35293e-18
1.35278e-18
4.54008e-18
5.4822e-18
4.40172e-18
2.9493e-18
1.49853e-18
2.66917e-18
1.85684e-18
1.92649e-18
1.26555e-18
2.25555e-18
9.66158e-19
3.63047e-18
1.97169e-18
1.29001e-18
2.98498e-18
1.20065e-18
2.90976e-18
3.56468e-18
3.19081e-18
3.97063e-18
1.42079e-18
4.12511e-18
2.04952e-18
1.82614e-18
2.5017e-18
1.59587e-18
2.43871e-18
4.50203e-18
2.82608e-18
2.1572e-18
1.60473e-18
2.89584e-18
3.52867e-18
4.46561e-18
6.9554e-18
4.74876e-18
2.01784e-18
2.63439e-18
2.72945e-18
1.90776e-18
1.64015e-18
3.19054e-18
6.51234e-18
3.69207e-18
2.95935e-18
1.80334e-18
2.4351e-18
1.56092e-18
1.08136e-18
3.10362e-18
3.99716e-18
8.3496e-19
3.07358e-18
6.06934e-18
3.07364e-18
3.29104e-18
2.9591e-18
2.40885e-18
1.46626e-18
1.2587e-18
2.12671e-18
1.35354e-18
3.22819e-18
1.14241e-18
2.73672e-18
2.83845e-18
4.92007e-18
3.16746e-18
3.51548e-18
2.04565e-18
2.49555e-18
1.87614e-18
3.81327e-18
1.15382e-18
3.34037e-18
3.23039e-18
1.9244e-18
2.65521e-18
1.86603e-18
5.37299e-18
5.59094e-18
2.14195e-18
5.60672e-18
3.01599e-18
1.79006e-18
2.52035e-18
2.76481e-18
5.69817e-18
4.79408e-18
1.13411e-18
3.81086e-18
1.55396e-18
1.18595e-18
1.35829e-18
1.52162e-18
1.84929e-18
1.64887e-18
1.37915e-18
2.84702e-18
3.22718e-18
2.03091e-18
2.27482e-18
3.47168e-18
4.47618e-18
1.1485e-18
3.0444e-18
1.1702e-17
9.02857e-18
5.97916e-18
3.26626e-18
1.74397e-18
1.30885e-18
1.57576e-18
2.38268e-18
4.62266e-18
4.43569e-18
2.5707e-18
1.92678e-18
1.79772e-18
1.94751e-18
1.87e-18
1.58135e-18
1.67565e-18
2.06604e-18
1.88579e-18
1.73584e-18
3.16009e-18
7.02297e-18
7.93747e-18
6.03546e-18
2.75527e-18
8.10884e-19
7.75359e-19
1.03285e-18
1.55758e-18
2.84561e-18
1.17233e-18
2.9018e-18
1.96199e-18
6.55659e-19
1.81793e-18
1.43776e-18
2.68824e-18
2.57126e-18
3.06161e-18
1.55284e-18
2.42359e-18
1.19182e-18
2.04249e-18
1.45772e-18
1.20274e-18
1.89368e-18
1.6039e-18
2.71502e-18
2.83824e-18
4.28218e-18
4.3476e-18
1.46235e-17
6.48116e-18
3.63411e-18
1.90943e-18
9.37285e-19
7.9174e-19
1.07712e-18
1.91551e-18
1.69438e-18
1.07857e-18
2.39875e-18
1.35366e-17
1.66509e-17
4.81959e-18
1.56212e-18
8.52538e-19
1.32423e-18
3.24159e-18
3.07574e-18
1.10511e-18
2.37839e-18
9.24074e-18
2.52005e-18
1.38942e-18
2.03485e-18
1.63529e-18
9.92967e-19
9.70359e-19
2.18206e-18
7.34518e-18
3.44423e-18
2.30307e-18
1.4421e-18
1.87906e-18
2.4526e-18
3.41678e-18
3.51699e-18
2.47799e-18
3.17607e-18
1.74898e-18
2.15235e-18
2.73395e-18
2.36011e-18
7.15452e-19
1.56448e-18
2.29657e-18
2.36297e-18
2.69922e-18
3.15548e-18
1.0837e-18
3.75977e-18
2.84107e-18
9.23771e-18
3.24655e-17
1.33082e-17
8.12556e-18
4.09952e-18
2.17297e-18
1.39396e-18
1.38935e-18
1.5467e-18
1.9129e-18
2.13752e-18
1.70701e-18
1.69464e-18
3.34909e-18
5.92619e-18
7.29686e-18
6.05898e-18
2.08068e-18
8.95421e-19
1.16422e-18
1.01479e-18
1.18907e-18
1.40707e-18
5.5813e-18
1.39654e-17
1.48463e-17
8.37615e-18
4.74799e-18
3.96954e-18
3.00518e-18
2.17003e-18
2.29748e-18
2.34468e-18
2.10365e-18
2.17236e-18
2.20358e-18
2.17259e-18
3.13949e-18
7.21487e-18
4.41294e-18
1.25342e-18
1.22744e-18
1.75258e-18
1.9071e-18
4.46628e-18
3.29295e-18
3.87806e-18
5.95925e-18
5.48466e-18
4.16419e-18
2.71583e-18
1.54232e-18
1.85904e-18
1.99828e-18
2.80338e-18
2.94923e-18
2.7121e-18
2.78192e-18
2.55456e-18
1.58059e-18
1.18814e-18
1.34909e-18
2.01331e-18
1.76765e-18
3.71777e-18
4.84437e-18
3.22517e-18
7.98417e-18
7.72542e-18
3.06806e-18
2.00397e-18
2.40968e-18
2.54382e-18
5.4787e-18
2.17456e-18
3.84569e-18
1.82619e-18
1.87045e-18
1.38831e-18
1.64752e-18
1.96987e-18
1.65425e-18
1.5807e-18
2.7664e-18
3.24832e-18
3.30027e-18
3.9264e-18
3.54581e-18
2.3997e-18
2.19944e-18
2.92429e-18
2.34258e-18
3.65361e-18
2.83784e-18
1.91371e-18
6.60877e-18
3.64455e-18
1.08655e-18
7.42358e-18
4.44651e-18
5.36433e-18
1.21484e-18
1.94028e-18
1.53168e-18
1.38334e-18
1.88747e-18
3.14544e-18
2.19918e-18
2.25226e-18
2.55601e-18
2.95133e-18
1.83762e-18
2.28585e-18
2.78525e-18
4.16809e-18
1.52141e-18
1.57091e-18
5.8503e-18
5.14289e-18
3.31346e-18
1.84288e-18
2.3568e-18
3.22109e-18
3.03388e-18
1.1922e-18
2.47642e-18
6.89742e-18
5.55099e-18
2.84351e-18
3.82646e-18
2.82216e-18
1.89827e-18
2.34436e-18
1.71476e-18
1.25495e-18
3.71979e-18
5.0121e-18
6.09811e-19
3.2758e-18
4.82866e-18
2.36198e-18
1.58827e-18
3.05085e-18
1.5349e-18
3.70407e-18
5.61505e-18
2.70962e-18
1.36777e-18
2.45733e-18
3.89722e-18
2.02067e-18
2.96979e-18
2.10519e-18
6.02127e-18
1.0988e-18
2.84513e-18
3.21966e-18
1.64245e-18
2.14517e-18
2.24794e-18
2.46657e-18
2.81726e-18
1.61918e-18
1.54399e-18
2.60241e-18
2.14106e-18
1.45209e-18
4.26578e-18
4.14883e-18
5.98154e-18
5.14085e-18
3.13843e-18
1.45843e-18
2.30987e-18
2.02128e-18
3.00724e-18
1.9617e-18
2.02871e-18
2.15685e-18
4.21333e-18
3.22306e-18
2.59477e-18
2.71712e-18
2.87493e-18
6.60047e-18
5.86403e-18
1.75143e-18
2.10759e-18
2.49283e-18
3.65048e-18
4.4824e-18
3.38514e-18
6.00047e-18
3.9335e-18
1.9037e-18
3.11297e-18
2.38037e-18
2.9218e-18
2.51198e-18
1.54395e-18
3.04831e-18
2.19664e-18
1.58105e-18
6.05142e-18
2.95681e-18
1.82479e-18
3.55981e-18
4.26342e-18
2.92696e-18
3.21471e-18
2.53418e-18
1.37214e-18
1.82599e-18
1.78721e-18
2.25814e-18
2.51991e-18
2.60729e-18
3.18564e-18
3.54144e-18
5.32166e-18
4.60442e-18
2.3836e-18
2.27238e-18
2.27727e-18
2.1901e-18
2.53485e-18
2.3107e-18
1.84563e-18
2.50862e-18
1.9205e-18
1.50947e-18
1.09576e-18
5.52684e-18
7.00821e-18
3.53539e-18
1.79417e-18
5.99381e-18
2.06819e-18
1.32029e-18
1.90746e-18
3.10981e-18
4.08117e-18
3.3706e-18
4.08196e-18
3.68838e-18
1.72289e-18
2.73836e-18
2.11889e-18
1.74663e-18
1.43397e-18
4.74014e-18
1.37099e-18
1.56914e-18
2.47059e-18
2.64333e-18
3.84976e-18
2.32144e-18
3.49637e-18
1.90791e-18
3.32757e-18
3.00656e-18
3.77036e-18
2.50523e-18
2.04543e-18
1.97466e-18
3.30961e-18
4.73674e-18
2.56328e-18
3.32958e-18
2.7886e-18
2.5371e-18
1.97676e-18
1.38539e-18
5.05594e-18
2.59314e-18
2.79985e-18
2.95536e-18
2.20497e-18
2.77816e-18
2.09801e-18
1.80782e-18
2.45559e-18
1.40931e-18
9.83677e-19
2.99703e-18
2.39262e-18
2.71174e-18
1.74891e-18
3.52813e-18
9.54467e-18
7.75805e-18
2.22065e-18
1.70397e-18
2.93726e-18
4.47649e-18
6.62271e-18
1.45844e-17
1.84473e-17
6.79035e-18
4.46473e-18
2.6187e-18
2.20419e-18
2.31622e-18
3.06801e-18
4.71056e-18
5.70679e-18
4.04278e-18
2.81332e-18
2.07293e-18
1.89408e-18
1.74018e-18
1.53193e-18
1.5254e-18
1.67444e-18
1.66913e-18
1.61061e-18
1.84172e-18
2.32453e-18
2.52071e-18
2.05543e-18
1.49058e-18
1.02966e-18
9.0553e-19
1.11833e-18
1.72896e-18
2.35565e-18
2.93088e-18
1.87909e-18
2.95812e-18
2.58786e-18
2.22443e-18
2.46595e-18
5.51856e-18
4.83108e-18
1.49527e-18
1.75847e-18
2.3675e-18
2.26037e-18
1.28749e-18
1.56198e-18
1.1507e-18
1.30877e-18
3.15599e-18
3.39915e-18
1.85268e-18
5.958e-18
9.09775e-18
1.20432e-17
1.07768e-17
6.15352e-18
3.42555e-18
2.04819e-18
2.23359e-18
1.98321e-18
1.77747e-18
1.84318e-18
1.73653e-18
2.24775e-18
4.88674e-18
7.19647e-18
4.01041e-18
1.6946e-18
1.3158e-18
1.66421e-18
2.91795e-18
3.24055e-18
1.35248e-18
1.76366e-18
6.36303e-18
5.53248e-18
2.11251e-18
1.81429e-18
2.13786e-18
1.25737e-18
1.07855e-18
1.64278e-18
3.90139e-18
5.72261e-18
3.1099e-18
1.95435e-18
2.18605e-18
2.82409e-18
3.98391e-18
4.42743e-18
3.80891e-18
2.29425e-18
1.39825e-18
1.07961e-18
1.18493e-18
1.31364e-18
1.03169e-18
1.43024e-18
2.04762e-18
2.19072e-18
1.03477e-18
2.83225e-18
4.51403e-18
3.46489e-18
4.65684e-18
2.52904e-17
6.49028e-17
2.93901e-17
6.20563e-18
2.76794e-18
1.65153e-18
1.62122e-18
1.57364e-18
1.55338e-18
1.5591e-18
1.6776e-18
1.80094e-18
1.92416e-18
2.65194e-18
3.9907e-18
4.05818e-18
3.08494e-18
1.54464e-18
8.73107e-19
1.05349e-18
1.40246e-18
1.47222e-18
1.80142e-18
5.2892e-18
1.75817e-17
1.3732e-17
6.91732e-18
3.90537e-18
3.56171e-18
3.08371e-18
2.34257e-18
2.28485e-18
2.42542e-18
2.22938e-18
2.16077e-18
2.28733e-18
2.05709e-18
2.13825e-18
2.76095e-18
2.55829e-18
1.66803e-18
1.55338e-18
2.37965e-18
2.47156e-18
3.00767e-18
3.8089e-18
4.56927e-18
4.33975e-18
3.2664e-18
2.65177e-18
2.04561e-18
1.36779e-18
1.22315e-18
1.49896e-18
2.26825e-18
2.37713e-18
1.67763e-18
1.53294e-18
1.68409e-18
1.55177e-18
1.46322e-18
1.46529e-18
1.85329e-18
2.09231e-18
2.60795e-18
4.28622e-18
4.224e-18
3.75652e-18
3.98237e-18
2.04642e-18
1.19308e-18
1.3045e-18
1.21183e-18
1.50633e-18
1.46384e-18
1.97372e-18
1.47619e-18
1.85629e-18
2.56407e-18
1.49043e-18
1.9557e-18
3.36472e-18
9.14372e-19
3.79092e-18
2.22393e-18
1.08496e-18
2.78688e-18
1.96087e-18
1.57849e-18
2.32586e-18
3.93611e-18
1.85402e-18
2.96997e-18
4.24426e-18
2.41742e-18
2.2012e-18
5.73746e-18
1.37284e-18
2.85608e-18
1.40387e-18
3.87691e-18
9.58481e-19
7.98993e-19
2.66278e-18
1.03058e-18
3.58742e-18
1.0507e-18
2.27191e-18
3.52178e-18
1.46504e-18
3.6832e-18
5.92246e-18
3.22082e-18
2.06914e-18
4.07368e-18
6.71833e-18
3.0624e-18
5.70381e-18
3.67395e-18
2.00114e-18
3.7269e-18
2.35761e-18
2.47898e-18
1.58732e-18
1.28235e-18
1.46199e-18
2.02183e-18
2.40779e-18
2.83233e-18
5.88422e-18
2.46645e-18
2.23872e-18
3.02159e-18
2.76594e-18
2.84835e-18
1.27066e-18
2.05458e-18
2.42361e-18
1.64152e-18
1.67513e-18
2.18507e-18
2.8175e-18
2.68725e-18
2.52097e-18
2.32412e-18
5.87336e-18
1.73378e-18
1.41882e-18
1.5536e-18
3.26939e-18
5.52963e-18
2.43851e-18
1.58548e-18
1.70667e-18
2.38166e-18
3.0057e-18
3.34965e-18
5.46198e-18
4.16012e-18
5.57416e-18
1.78595e-18
2.01846e-18
2.52839e-18
3.49227e-18
1.36698e-18
1.70268e-18
3.44536e-18
1.45396e-18
1.24286e-18
9.775e-19
2.11091e-18
1.11785e-18
3.38555e-18
2.5902e-18
1.05028e-18
1.62386e-18
2.66644e-18
2.77162e-18
3.90441e-18
5.46058e-18
2.618e-18
3.47478e-18
3.95108e-18
3.51622e-18
1.71007e-18
2.90284e-18
2.24424e-18
3.8039e-18
3.52964e-18
1.68619e-18
1.51806e-18
3.12861e-18
1.77534e-18
1.25224e-18
2.08157e-18
1.05397e-18
1.01789e-18
1.94367e-18
2.4118e-18
2.45307e-18
1.81293e-18
1.85991e-18
2.98079e-18
1.97463e-18
3.04845e-18
3.89357e-18
2.51004e-18
2.10543e-18
1.57247e-18
2.4941e-18
3.50585e-18
2.27092e-18
2.37246e-18
1.76844e-18
1.40326e-18
2.4239e-18
2.09816e-18
2.53811e-18
2.89961e-18
2.39063e-18
1.93871e-18
1.56417e-18
1.72558e-18
2.09885e-18
1.79852e-18
1.54179e-18
1.59848e-18
1.55855e-18
2.19735e-18
2.21693e-18
1.5805e-18
2.15649e-18
3.6608e-18
3.81213e-18
2.52692e-18
2.52737e-18
2.27303e-18
2.86437e-18
2.98251e-18
2.03394e-18
2.15281e-18
3.85386e-18
6.3115e-18
3.16716e-18
3.36985e-18
4.32212e-18
2.58388e-18
2.42003e-18
2.39895e-18
2.10311e-18
1.97596e-18
3.06516e-18
2.01465e-18
2.57379e-18
5.58253e-18
4.67314e-18
1.71352e-18
2.746e-18
2.34625e-18
1.89835e-18
1.7276e-18
1.47482e-18
2.81309e-18
2.7002e-18
2.41367e-18
2.29004e-18
2.34576e-18
2.47856e-18
2.52278e-18
3.90736e-18
5.19236e-18
3.36276e-18
3.12198e-18
2.35795e-18
1.40563e-18
9.62545e-19
2.2515e-18
4.10185e-18
3.50139e-18
2.00832e-18
1.96395e-18
1.51047e-18
1.0945e-18
1.5227e-18
2.44616e-18
2.43241e-18
3.20393e-18
3.63778e-18
5.89603e-18
1.27571e-17
1.40121e-17
2.47774e-18
1.58493e-18
2.05404e-18
3.15434e-18
4.78356e-18
6.41179e-18
7.73421e-18
8.10812e-18
5.50234e-18
3.52033e-18
2.77484e-18
2.68258e-18
2.9772e-18
3.21514e-18
2.88088e-18
2.44781e-18
2.05382e-18
1.88551e-18
1.84904e-18
1.65508e-18
1.29959e-18
1.28841e-18
1.44231e-18
1.52361e-18
1.44692e-18
1.5258e-18
1.63814e-18
1.52541e-18
1.1524e-18
1.09743e-18
1.53463e-18
2.17291e-18
2.44291e-18
2.46969e-18
2.13526e-18
1.89323e-18
1.68877e-18
2.07793e-18
2.86196e-18
1.98009e-18
1.56882e-18
2.36458e-18
2.73094e-18
1.61134e-18
2.10438e-18
2.46956e-18
1.46048e-18
1.1934e-18
1.52424e-18
2.75194e-18
3.12895e-18
2.3569e-18
3.38534e-18
2.99034e-18
4.74257e-18
6.99612e-18
2.58388e-17
1.73691e-17
6.05104e-18
2.84158e-18
1.40298e-18
1.89363e-18
2.17123e-18
1.96899e-18
1.71615e-18
1.65203e-18
1.76734e-18
2.30404e-18
2.66171e-18
2.27804e-18
1.58609e-18
1.62194e-18
2.04792e-18
2.59874e-18
2.70917e-18
2.39851e-18
2.3365e-18
3.37474e-18
3.13876e-18
1.76389e-18
1.42836e-18
2.01495e-18
2.54334e-18
2.20886e-18
2.21397e-18
2.67758e-18
4.10106e-18
4.45318e-18
3.19163e-18
2.74037e-18
2.68834e-18
3.13593e-18
2.83448e-18
1.93523e-18
1.2966e-18
1.29906e-18
1.42397e-18
1.33697e-18
1.4506e-18
1.67161e-18
1.98591e-18
2.13056e-18
2.09612e-18
2.75127e-18
6.4124e-18
2.25143e-17
1.55299e-17
7.33305e-18
2.16448e-17
3.92004e-17
1.45057e-17
3.83298e-18
1.68797e-18
1.77769e-18
2.04243e-18
2.20034e-18
2.17625e-18
1.78375e-18
1.61846e-18
1.79894e-18
2.13559e-18
2.34785e-18
2.42032e-18
2.2272e-18
1.76868e-18
1.16914e-18
1.1201e-18
1.64663e-18
2.35054e-18
2.47985e-18
2.90815e-18
5.73858e-18
8.04328e-18
8.32541e-18
5.02127e-18
2.41388e-18
1.79708e-18
1.91952e-18
1.80985e-18
1.73785e-18
2.04868e-18
2.35684e-18
1.83025e-18
1.503e-18
1.36692e-18
1.33573e-18
1.66183e-18
2.19283e-18
2.19989e-18
1.94203e-18
1.9409e-18
2.0706e-18
2.74302e-18
3.69452e-18
3.44445e-18
2.8696e-18
2.99827e-18
2.67162e-18
1.58663e-18
1.00866e-18
1.30312e-18
1.84743e-18
2.60724e-18
2.85472e-18
1.83837e-18
1.4149e-18
1.8934e-18
2.29584e-18
1.64463e-18
9.94723e-19
1.16853e-18
2.00374e-18
3.23524e-18
3.93642e-18
3.10249e-18
1.66197e-18
1.46302e-18
1.80153e-18
1.3965e-18
1.51292e-18
2.32349e-18
3.21256e-18
3.15041e-18
2.44615e-18
2.20764e-18
1.7935e-18
1.52546e-18
1.11344e-18
1.21442e-18
2.04268e-18
1.43988e-18
1.73501e-18
2.53563e-18
2.75349e-18
1.7539e-18
1.33702e-18
2.39899e-18
2.76814e-18
2.99828e-18
2.19685e-18
1.62344e-18
3.65646e-18
3.7039e-18
2.78733e-18
3.74028e-18
2.76511e-18
1.49886e-18
3.29806e-18
2.82393e-18
1.88572e-18
4.52789e-18
3.95209e-18
4.41061e-18
4.84191e-18
5.07035e-18
4.67886e-18
3.31641e-18
5.02348e-18
3.24485e-18
4.21791e-18
1.89342e-18
2.11934e-18
2.34864e-18
1.99385e-18
5.77341e-18
3.31954e-18
4.51348e-18
3.685e-18
3.02097e-18
3.06074e-18
1.74524e-18
5.65237e-18
1.61982e-18
2.91124e-18
5.12384e-18
1.3305e-18
1.95372e-18
3.09859e-18
1.65485e-18
7.01286e-19
1.44998e-18
1.96015e-18
3.04289e-18
3.88857e-18
4.39055e-18
2.90599e-18
3.10694e-18
9.38692e-19
2.37564e-18
5.97307e-18
5.80295e-18
3.49862e-18
2.84003e-18
3.02318e-18
3.50979e-18
2.49674e-18
2.52587e-18
1.87473e-18
2.31203e-18
2.01985e-18
5.01086e-18
3.27414e-18
1.14457e-18
3.1627e-18
2.45488e-18
1.75892e-18
1.65967e-18
2.40776e-18
2.33585e-18
3.70868e-18
2.91547e-18
4.73562e-18
2.00845e-18
1.74036e-18
2.15645e-18
2.63322e-18
2.63671e-18
2.62768e-18
3.16949e-18
3.02871e-18
1.01411e-18
1.38001e-18
2.13322e-18
3.71589e-18
5.41431e-18
3.34102e-18
1.66212e-18
3.17461e-18
1.86902e-18
1.11286e-18
4.28875e-18
3.29372e-18
2.43406e-18
2.27869e-18
5.06343e-18
5.09976e-18
4.72994e-18
4.83303e-18
2.67829e-18
4.32733e-18
1.88605e-18
3.3203e-18
2.42065e-18
2.12068e-18
1.99608e-18
3.19897e-18
1.39572e-18
1.65698e-18
3.00765e-18
5.05295e-18
2.60425e-18
3.52583e-18
4.25766e-18
3.37449e-18
4.16689e-18
3.91797e-18
2.74689e-18
2.25607e-18
2.48398e-18
2.42854e-18
1.99089e-18
3.30381e-18
2.30537e-18
1.72409e-18
2.14795e-18
2.93589e-18
3.325e-18
4.35565e-18
3.2635e-18
1.91552e-18
1.91488e-18
2.04441e-18
2.23548e-18
1.39953e-18
2.92934e-18
3.64745e-18
3.26542e-18
2.07645e-18
1.89097e-18
2.23282e-18
2.2171e-18
3.01384e-18
2.58566e-18
3.09316e-18
3.06611e-18
1.97183e-18
2.6903e-18
2.44306e-18
2.00407e-18
2.15126e-18
2.46246e-18
1.34718e-18
2.40623e-18
3.64731e-18
4.04842e-18
4.48017e-18
2.79488e-18
1.76391e-18
1.7508e-18
3.43149e-18
2.21394e-18
2.16861e-18
1.56558e-18
1.79768e-18
2.39355e-18
2.60384e-18
4.34605e-18
3.55552e-18
2.09235e-18
2.88845e-18
2.92085e-18
3.04038e-18
3.06336e-18
2.39025e-18
1.69933e-18
2.41298e-18
3.66341e-18
5.48536e-18
7.70128e-18
6.75166e-18
3.65346e-18
2.01316e-18
2.51048e-18
3.20732e-18
2.5336e-18
2.71687e-18
2.67787e-18
1.75942e-18
1.70286e-18
2.46758e-18
2.0332e-18
9.64339e-19
1.2596e-18
2.99341e-18
3.75829e-18
4.29784e-18
5.30937e-18
1.25244e-17
5.80111e-18
1.97248e-18
1.58894e-18
1.89382e-18
2.53746e-18
2.69471e-18
2.56435e-18
2.86997e-18
3.62634e-18
4.41665e-18
4.84741e-18
4.02765e-18
2.97288e-18
2.62407e-18
2.70743e-18
3.25574e-18
3.09662e-18
2.39303e-18
2.01357e-18
1.94507e-18
1.87731e-18
1.66316e-18
1.64071e-18
1.96748e-18
2.34822e-18
2.10449e-18
1.72159e-18
1.47917e-18
1.27512e-18
1.13711e-18
1.18646e-18
1.55881e-18
2.35449e-18
3.43943e-18
3.58203e-18
2.76493e-18
2.11003e-18
1.66179e-18
1.40655e-18
1.39457e-18
1.49832e-18
1.56991e-18
1.79191e-18
1.43496e-18
9.86461e-19
1.2086e-18
1.61593e-18
1.58048e-18
1.6683e-18
1.76725e-18
1.39345e-18
1.31857e-18
1.36196e-18
1.5374e-18
2.99707e-18
4.13886e-18
7.22889e-18
1.8325e-17
2.43798e-17
6.04381e-18
2.7479e-18
1.17284e-18
1.42569e-18
1.74768e-18
1.79863e-18
1.72224e-18
1.80833e-18
2.17083e-18
2.6219e-18
2.65089e-18
2.37715e-18
1.76092e-18
1.49915e-18
1.89573e-18
2.62374e-18
3.15617e-18
2.9915e-18
2.43528e-18
2.37747e-18
2.95617e-18
3.24696e-18
2.74567e-18
3.41681e-18
3.43156e-18
1.96057e-18
1.04116e-18
1.29249e-18
2.33101e-18
3.65522e-18
3.9513e-18
3.26777e-18
2.15413e-18
1.8019e-18
1.65009e-18
1.67788e-18
1.79449e-18
1.87033e-18
1.52645e-18
1.2677e-18
1.39453e-18
1.92302e-18
2.13523e-18
1.85336e-18
1.91915e-18
2.96562e-18
8.01583e-18
2.46665e-17
2.58046e-17
7.97842e-18
4.0596e-18
4.08467e-18
4.23e-18
2.80044e-18
2.6911e-18
2.20081e-18
2.49096e-18
2.69307e-18
2.42399e-18
2.06241e-18
1.81748e-18
1.82631e-18
2.00101e-18
2.12367e-18
2.20824e-18
2.30276e-18
2.36531e-18
1.81844e-18
1.47231e-18
1.40151e-18
1.48136e-18
1.96249e-18
3.23175e-18
5.31441e-18
4.98869e-18
3.46746e-18
2.59122e-18
1.56106e-18
1.40976e-18
1.59206e-18
1.83351e-18
2.00751e-18
1.95618e-18
1.93517e-18
2.06093e-18
2.2943e-18
2.66728e-18
3.44952e-18
3.2778e-18
3.17721e-18
3.32003e-18
3.11109e-18
2.134e-18
1.48797e-18
1.59085e-18
1.99764e-18
2.85003e-18
4.03661e-18
3.25268e-18
2.01179e-18
1.33669e-18
1.11348e-18
1.07955e-18
1.22245e-18
1.32158e-18
1.4473e-18
1.69265e-18
1.67735e-18
1.79172e-18
1.93915e-18
2.16097e-18
2.53356e-18
2.59191e-18
2.34618e-18
2.14082e-18
2.16472e-18
2.21748e-18
2.5905e-18
1.69597e-18
1.47701e-18
1.84262e-18
1.67474e-18
2.19045e-18
2.50997e-18
2.05221e-18
2.11265e-18
1.73697e-18
1.71515e-18
1.73189e-18
1.04771e-18
7.99504e-19
1.4842e-18
2.55755e-18
2.23465e-18
9.93999e-19
3.24531e-18
4.3899e-18
2.42946e-18
1.42232e-18
1.68476e-18
2.45785e-18
1.52115e-18
2.82459e-18
1.97089e-18
1.3565e-18
1.27142e-18
2.53991e-18
2.05255e-18
1.90167e-18
1.78049e-18
2.33634e-18
3.07215e-18
3.77141e-18
3.29135e-18
3.702e-18
4.83451e-18
2.57886e-18
2.2768e-18
2.14595e-18
1.40017e-18
3.1643e-18
2.55352e-18
1.4298e-18
1.55858e-18
5.65365e-19
4.45217e-18
6.60403e-18
1.88571e-18
1.32293e-18
3.83233e-18
3.65437e-18
5.45943e-18
6.1288e-18
2.11984e-18
1.70059e-18
1.15417e-18
1.84974e-18
1.83687e-18
1.08135e-18
3.3063e-18
4.76987e-18
2.48837e-18
3.1751e-18
2.53774e-18
1.31935e-18
2.33563e-18
3.78521e-18
2.84975e-18
1.27228e-18
2.08195e-18
3.22425e-18
5.20061e-18
3.20232e-18
2.26267e-18
3.64117e-18
1.91126e-18
1.56969e-18
1.87444e-18
2.6777e-18
2.05815e-18
3.96891e-18
6.30922e-18
2.82736e-18
3.05143e-18
2.9539e-18
2.30153e-18
1.79801e-18
2.65055e-18
2.91301e-18
1.80423e-18
2.73113e-18
2.53116e-18
1.62521e-18
2.16278e-18
1.89149e-18
1.80949e-18
1.20102e-18
1.5847e-18
3.12977e-18
2.66432e-18
3.61966e-18
2.54733e-18
3.11469e-18
1.89274e-18
2.08154e-18
3.69736e-18
2.99675e-18
4.1996e-18
3.95439e-18
2.24381e-18
2.57148e-18
2.90349e-18
4.61593e-18
1.51811e-18
2.13323e-18
2.61294e-18
2.29482e-18
3.09135e-18
3.72295e-18
2.47805e-18
2.62554e-18
2.59998e-18
2.56688e-18
2.14455e-18
2.03209e-18
2.62039e-18
2.42524e-18
2.15768e-18
2.886e-18
2.50411e-18
1.71873e-18
1.72635e-18
3.62707e-18
4.13267e-18
2.99976e-18
1.89932e-18
4.20457e-18
4.17417e-18
5.21001e-18
3.3782e-18
2.28195e-18
2.51352e-18
2.34369e-18
1.90249e-18
2.34698e-18
4.42283e-18
5.43633e-18
3.09951e-18
1.31646e-18
2.2229e-18
4.61805e-18
2.86249e-18
2.31428e-18
2.71649e-18
2.26257e-18
2.48224e-18
2.89715e-18
4.1666e-18
2.72047e-18
1.6955e-18
1.81842e-18
2.27692e-18
2.1053e-18
1.89589e-18
2.98201e-18
3.00087e-18
2.59779e-18
2.64228e-18
2.64754e-18
2.08054e-18
2.7877e-18
4.34435e-18
3.32524e-18
2.98039e-18
2.61428e-18
3.0635e-18
2.26221e-18
3.02344e-18
3.31914e-18
2.08242e-18
1.9867e-18
2.68634e-18
2.41984e-18
2.1743e-18
2.5758e-18
2.98127e-18
3.38689e-18
3.36478e-18
3.65174e-18
2.95901e-18
1.64932e-18
1.65536e-18
3.0427e-18
4.08593e-18
4.23491e-18
3.74154e-18
1.72507e-18
1.19952e-18
2.47592e-18
4.4219e-18
5.60695e-18
4.52179e-18
4.15835e-18
2.29529e-18
2.21109e-18
2.0968e-18
1.96347e-18
2.68786e-18
2.53524e-18
2.24035e-18
2.20069e-18
2.2419e-18
2.52116e-18
3.09115e-18
2.76816e-18
1.9685e-18
1.80883e-18
1.87283e-18
4.09781e-18
3.47969e-18
3.13663e-18
2.07556e-18
1.39946e-18
1.55277e-18
2.17411e-18
2.3175e-18
1.814e-18
1.4525e-18
1.68418e-18
2.42336e-18
3.31997e-18
3.79756e-18
4.01328e-18
3.22969e-18
3.44093e-18
3.49473e-18
3.87034e-18
3.69317e-18
2.3189e-18
1.85072e-18
1.88917e-18
2.20684e-18
2.70481e-18
3.43254e-18
3.84609e-18
3.20154e-18
2.31457e-18
1.66839e-18
1.54769e-18
1.73353e-18
1.98398e-18
2.2818e-18
2.57083e-18
2.48857e-18
2.53654e-18
2.78723e-18
2.48127e-18
1.74037e-18
1.45922e-18
1.57045e-18
1.76356e-18
1.88592e-18
1.71404e-18
1.72987e-18
1.44171e-18
1.14454e-18
1.60731e-18
2.73317e-18
2.08761e-18
1.48163e-18
1.43076e-18
1.75874e-18
3.04821e-18
4.35455e-18
4.31402e-18
5.15937e-18
8.5024e-18
1.45544e-17
1.26525e-17
6.18347e-18
2.9666e-18
1.37843e-18
1.34341e-18
1.5377e-18
1.72672e-18
1.87285e-18
2.02476e-18
2.16211e-18
2.22096e-18
2.26609e-18
2.26517e-18
2.02747e-18
1.65764e-18
1.51819e-18
1.6089e-18
1.91285e-18
2.11844e-18
2.22423e-18
2.50506e-18
3.56137e-18
6.43852e-18
7.4298e-18
4.72264e-18
2.37216e-18
1.54684e-18
1.25752e-18
1.71701e-18
2.93343e-18
4.42297e-18
3.57528e-18
2.88857e-18
2.03178e-18
1.45196e-18
1.38397e-18
1.50809e-18
1.55645e-18
1.41194e-18
1.42266e-18
1.81932e-18
2.54588e-18
2.47276e-18
1.77494e-18
1.41277e-18
1.61131e-18
2.56028e-18
6.43113e-18
1.8463e-17
1.60894e-17
4.92739e-18
3.10795e-18
2.06644e-18
1.70206e-18
2.14083e-18
2.60326e-18
3.34039e-18
3.99203e-18
3.60438e-18
2.68338e-18
2.0979e-18
1.5456e-18
1.4055e-18
1.68233e-18
2.19243e-18
2.94478e-18
3.94286e-18
5.10595e-18
4.76113e-18
2.97519e-18
2.30971e-18
2.57082e-18
3.2676e-18
4.34479e-18
5.38408e-18
5.04638e-18
3.89778e-18
2.97441e-18
1.87759e-18
1.44286e-18
1.62552e-18
2.01285e-18
2.61004e-18
2.91175e-18
2.4863e-18
1.89028e-18
1.61112e-18
2.13419e-18
2.75429e-18
3.00338e-18
2.69259e-18
2.77884e-18
2.54304e-18
2.08067e-18
1.61533e-18
1.75427e-18
2.36555e-18
3.0538e-18
2.99793e-18
2.14766e-18
1.36688e-18
1.19454e-18
1.28887e-18
1.28285e-18
1.26983e-18
1.61979e-18
2.21957e-18
2.12402e-18
1.90302e-18
1.58703e-18
1.73925e-18
2.16371e-18
2.43224e-18
2.35354e-18
2.3902e-18
2.24013e-18
2.14858e-18
2.33616e-18
2.52481e-18
2.787e-18
3.21214e-18
2.91588e-18
2.80233e-18
2.79308e-18
2.05734e-18
1.69015e-18
1.76649e-18
1.76901e-18
1.20154e-18
6.60859e-19
9.58392e-19
2.02489e-18
1.64714e-18
1.88686e-18
2.77217e-18
2.84646e-18
2.36804e-18
3.29472e-18
2.95902e-18
1.30851e-18
1.43264e-18
2.41523e-18
4.12502e-18
2.94009e-18
2.04037e-18
2.42112e-18
2.24576e-18
2.81867e-18
1.32172e-18
1.02779e-18
2.60141e-18
2.56983e-18
2.62128e-18
6.16628e-19
3.15234e-18
1.25105e-18
1.19284e-18
4.54974e-18
3.03732e-18
1.89911e-18
2.95542e-18
1.3113e-18
1.52664e-18
8.05137e-19
1.87535e-18
3.29544e-18
1.74526e-18
4.68847e-18
4.07463e-18
4.48244e-18
5.71446e-18
1.79516e-18
2.13977e-18
2.79255e-18
4.45572e-18
4.00883e-18
4.20151e-18
2.02337e-18
1.12669e-18
1.87599e-18
1.82637e-18
9.03808e-19
2.01697e-18
1.56788e-18
5.70403e-18
2.15061e-18
2.21299e-18
2.52212e-18
2.65196e-18
4.00995e-18
2.06821e-18
2.19643e-18
3.24899e-18
4.62784e-18
3.60315e-18
2.34941e-18
2.49775e-18
1.63806e-18
1.88704e-18
2.69505e-18
2.59094e-18
2.2269e-18
2.49016e-18
3.39389e-18
6.00455e-18
3.40403e-18
1.89237e-18
3.02429e-18
3.16911e-18
2.12027e-18
2.98702e-18
3.06496e-18
2.25838e-18
1.85678e-18
2.38587e-18
1.90514e-18
1.59471e-18
2.63151e-18
1.70731e-18
2.72227e-18
4.99524e-18
3.15621e-18
2.77244e-18
4.1971e-18
5.6147e-18
3.44572e-18
4.18088e-18
3.7103e-18
2.16828e-18
2.88354e-18
4.80729e-18
3.02488e-18
2.13727e-18
1.76788e-18
2.00941e-18
3.10049e-18
3.09978e-18
2.29679e-18
2.50213e-18
3.66338e-18
4.06607e-18
4.08938e-18
5.52482e-18
4.19454e-18
2.55719e-18
1.9797e-18
3.42774e-18
4.27804e-18
2.3216e-18
1.95838e-18
1.97339e-18
1.14747e-18
1.45335e-18
1.84716e-18
1.21111e-18
1.67518e-18
2.74766e-18
4.25746e-18
4.48109e-18
2.52075e-18
1.80261e-18
1.72486e-18
2.86111e-18
4.10576e-18
3.48602e-18
2.03566e-18
1.39221e-18
1.81151e-18
2.6769e-18
2.01131e-18
1.43595e-18
1.45224e-18
2.14447e-18
4.20815e-18
3.82679e-18
3.46743e-18
4.59148e-18
3.45272e-18
4.84743e-18
3.95421e-18
3.26462e-18
3.38675e-18
2.67558e-18
2.34963e-18
2.4458e-18
3.0393e-18
3.29988e-18
2.02428e-18
1.57227e-18
2.83934e-18
4.15144e-18
2.83664e-18
2.87025e-18
2.37197e-18
2.38755e-18
2.18717e-18
2.43541e-18
3.44966e-18
3.37684e-18
2.23876e-18
2.43858e-18
3.57383e-18
3.6474e-18
2.80233e-18
1.86586e-18
2.10327e-18
2.49165e-18
3.24063e-18
2.72303e-18
2.528e-18
1.93359e-18
2.07203e-18
2.94564e-18
3.49275e-18
4.9853e-18
5.24442e-18
3.9123e-18
2.35886e-18
2.47455e-18
2.31092e-18
2.15949e-18
2.18266e-18
2.31565e-18
1.83184e-18
1.86823e-18
1.49396e-18
1.58499e-18
2.81452e-18
3.42351e-18
2.64897e-18
2.02639e-18
2.506e-18
2.61097e-18
3.25705e-18
4.46407e-18
3.60347e-18
2.5964e-18
2.7788e-18
3.6947e-18
8.08758e-18
4.56157e-18
3.09558e-18
2.10143e-18
1.19542e-18
1.54285e-18
2.31822e-18
2.79116e-18
2.83578e-18
2.33998e-18
1.86022e-18
2.0253e-18
2.68409e-18
3.29879e-18
3.77044e-18
3.81546e-18
3.30739e-18
3.56221e-18
3.45401e-18
3.63879e-18
3.43377e-18
2.36503e-18
2.01968e-18
2.14561e-18
2.50455e-18
2.88689e-18
3.1657e-18
2.90183e-18
2.51406e-18
2.11814e-18
1.88474e-18
2.031e-18
2.36926e-18
2.56016e-18
2.26789e-18
1.63392e-18
1.25146e-18
1.31179e-18
1.80142e-18
2.42037e-18
2.34271e-18
1.8595e-18
1.692e-18
1.89502e-18
2.02776e-18
1.86423e-18
1.26447e-18
1.0138e-18
1.77012e-18
2.8435e-18
3.23245e-18
1.9919e-18
1.67107e-18
2.17094e-18
3.08902e-18
3.7794e-18
3.25149e-18
3.61938e-18
5.9126e-18
8.04389e-18
7.23574e-18
5.41367e-18
3.86053e-18
2.51581e-18
1.79246e-18
1.61168e-18
1.71044e-18
1.94292e-18
2.30722e-18
2.36577e-18
2.14233e-18
2.00488e-18
1.83003e-18
1.65223e-18
1.62457e-18
1.84453e-18
2.34315e-18
3.04776e-18
3.18695e-18
2.55786e-18
2.66584e-18
4.51346e-18
7.39839e-18
8.89051e-18
5.59201e-18
2.24805e-18
1.49411e-18
1.43022e-18
1.78591e-18
2.65786e-18
4.08579e-18
4.71185e-18
3.22964e-18
2.29109e-18
1.76596e-18
1.82785e-18
2.16933e-18
2.55531e-18
2.59834e-18
2.46328e-18
2.28969e-18
2.08212e-18
1.90279e-18
1.99275e-18
2.1814e-18
2.41265e-18
3.03843e-18
5.55606e-18
1.28697e-17
1.03378e-17
4.10981e-18
2.48855e-18
1.65171e-18
1.59336e-18
1.62906e-18
2.03236e-18
2.25836e-18
3.03833e-18
3.67903e-18
3.28229e-18
2.26054e-18
1.83798e-18
1.55911e-18
1.82768e-18
2.43009e-18
3.51152e-18
4.69659e-18
4.81559e-18
4.23663e-18
3.38204e-18
2.09121e-18
1.44935e-18
1.59309e-18
2.11098e-18
2.8285e-18
3.02022e-18
2.56004e-18
1.88483e-18
1.50915e-18
1.51618e-18
1.81974e-18
2.37909e-18
2.87318e-18
2.85953e-18
2.5936e-18
2.05883e-18
1.68997e-18
1.40654e-18
1.75995e-18
2.31671e-18
2.85211e-18
2.93178e-18
2.87146e-18
1.83465e-18
1.50098e-18
1.59345e-18
1.92017e-18
2.12927e-18
1.95155e-18
2.02784e-18
2.35267e-18
2.1678e-18
1.59847e-18
1.60417e-18
2.03627e-18
2.63074e-18
2.77259e-18
2.73236e-18
2.95221e-18
2.89478e-18
2.25384e-18
1.90948e-18
2.01425e-18
2.24619e-18
2.27252e-18
2.07639e-18
2.01179e-18
2.52528e-18
2.66314e-18
2.63978e-18
3.02263e-18
2.58858e-18
1.73036e-18
1.43665e-18
1.85003e-18
3.29824e-18
3.10615e-18
2.02514e-18
1.95756e-18
2.01185e-18
1.69036e-18
1.73263e-18
2.39093e-18
1.59754e-18
1.46899e-18
1.91112e-18
2.2493e-18
1.86014e-18
9.16997e-19
1.31238e-18
1.08745e-18
6.40022e-19
1.3523e-18
2.39819e-18
2.10919e-18
2.86111e-18
3.22219e-18
1.85085e-18
2.51702e-18
1.3908e-18
2.06694e-18
6.30969e-18
5.30783e-18
2.6925e-18
1.43965e-18
1.79423e-18
1.71553e-18
1.89153e-18
2.42578e-18
3.36513e-18
3.95622e-18
8.12825e-18
3.73286e-18
3.10757e-18
2.06944e-18
2.29811e-18
1.67207e-18
3.3409e-18
4.25828e-18
3.25596e-18
2.15207e-18
2.245e-18
1.63072e-18
2.48822e-18
1.91721e-18
5.19244e-18
7.4285e-18
2.38103e-18
1.78298e-18
2.0379e-18
4.07928e-18
4.08527e-18
2.15744e-18
3.48952e-18
2.31117e-18
4.29926e-18
2.99858e-18
2.82927e-18
1.33984e-18
2.17106e-18
2.25479e-18
5.18336e-18
4.7655e-18
4.06e-18
2.03398e-18
2.59992e-18
3.96989e-18
3.49618e-18
1.86869e-18
2.02485e-18
2.72497e-18
1.7238e-18
1.60982e-18
2.37208e-18
2.28779e-18
3.87178e-18
4.39637e-18
2.21927e-18
3.20804e-18
3.66154e-18
2.32164e-18
2.30626e-18
2.95944e-18
1.97056e-18
1.88662e-18
1.6542e-18
1.49962e-18
2.3758e-18
3.64981e-18
3.12955e-18