/*--------------------------------*- C++ -*----------------------------------*\
  =========                 |
  \\      /  F ield         | OpenFOAM: The Open Source CFD Toolbox
   \\    /   O peration     | Website:  https://openfoam.org
    \\  /    A nd           | Version:  7
     \\/     M anipulation  |
\*---------------------------------------------------------------------------*/
FoamFile
{
    version     2.0;
    format      ascii;
    class       volScalarField;
    location    "5000";
    object      mu1;
}
// * * * * * * * * * * * * * * * * * * * * * * * * * * * * * * * * * * * * * //

dimensions      [1 -1 -1 0 0 0 0];

internalField   nonuniform List<scalar> 
160000
(
0.000913077
0.0009091
0.000905193
0.000901304
0.000897341
0.000893464
0.000889655
0.000885945
0.000882356
0.000878649
0.000874912
0.000871331
0.000867764
0.000864105
0.000860584
0.000857195
0.000853874
0.00085059
0.000847224
0.000843858
0.000840633
0.000837498
0.000834383
0.000831284
0.000828289
0.000825304
0.000822198
0.000819137
0.00081615
0.000813249
0.000810476
0.000807745
0.000804942
0.000802174
0.000799552
0.000796899
0.000794177
0.000791479
0.000788906
0.000786387
0.00078386
0.000781405
0.000778934
0.000776501
0.000774082
0.000771597
0.000769215
0.000766989
0.000764774
0.000762556
0.00076037
0.0007581
0.00075584
0.000753678
0.000751512
0.000749408
0.000747321
0.000745289
0.000743372
0.000741454
0.000739433
0.000737432
0.000735564
0.000733744
0.000731975
0.000730156
0.000728307
0.000726481
0.000724722
0.000723079
0.000721347
0.000719596
0.000717916
0.000716252
0.000714639
0.000713045
0.000711475
0.000709939
0.000708408
0.000706887
0.000705387
0.000703862
0.000702382
0.00070096
0.000699535
0.000698112
0.000696727
0.000695398
0.000694093
0.000692762
0.000691476
0.000690205
0.000688888
0.000687599
0.000686373
0.000685207
0.000684047
0.000682885
0.000681748
0.000680641
0.000679535
0.00067845
0.000677363
0.000676249
0.000675188
0.00067414
0.000673122
0.000672126
0.00067111
0.000670118
0.000669144
0.000668221
0.000667312
0.0006664
0.000665521
0.000664639
0.000663771
0.000662913
0.000662033
0.000661168
0.000660345
0.000659556
0.000658779
0.000657999
0.000657227
0.00065645
0.000655683
0.000654965
0.000654268
0.000653573
0.0006529
0.000652252
0.000651591
0.000650895
0.000650212
0.00064957
0.000648949
0.00064834
0.000647752
0.000647195
0.000646629
0.000646039
0.000645489
0.000644958
0.000644396
0.000643855
0.000643342
0.000642837
0.00064235
0.000641882
0.000641425
0.000640968
0.000640525
0.000640081
0.000639647
0.000639226
0.000638804
0.000638387
0.000637982
0.000637591
0.00063721
0.00063684
0.00063648
0.000636128
0.000635792
0.000635464
0.000635125
0.0006348
0.000634483
0.000634174
0.000633871
0.000633572
0.000633298
0.000633029
0.000632761
0.00063251
0.000632263
0.00063202
0.000631778
0.000631539
0.00063132
0.000631107
0.000630897
0.000630699
0.000630504
0.000630312
0.000630123
0.000629942
0.000629767
0.000629593
0.000629423
0.000629273
0.000629136
0.000629003
0.000628869
0.000628742
0.000628616
0.00062848
0.000628354
0.000628247
0.000628148
0.000628057
0.000627973
0.000627891
0.000627811
0.000627732
0.000627658
0.000627593
0.000627535
0.000627483
0.000627434
0.00062739
0.000627351
0.000627315
0.000627284
0.000627257
0.000627234
0.000627216
0.0006272
0.000627188
0.000627181
0.000627178
0.000627179
0.000627183
0.00062719
0.000627201
0.000627217
0.000627235
0.000627257
0.000627282
0.00062731
0.00062734
0.000627375
0.000627413
0.000627455
0.0006275
0.000627547
0.000627596
0.000627647
0.000627701
0.000627759
0.000627818
0.000627882
0.00062795
0.000628022
0.0006281
0.000628184
0.00062827
0.000628358
0.000628444
0.000628522
0.000628602
0.000628683
0.000628765
0.00062885
0.00062894
0.000629033
0.000629126
0.000629221
0.000629327
0.000629441
0.000629549
0.000629651
0.000629751
0.000629854
0.000629965
0.000630081
0.000630192
0.000630305
0.000630431
0.000630553
0.000630664
0.000630777
0.000630891
0.000631004
0.000631117
0.000631236
0.000631367
0.0006315
0.000631623
0.000631743
0.000631864
0.000631989
0.000632117
0.000632247
0.000632373
0.000632498
0.000632621
0.000632745
0.000632872
0.000633003
0.00063313
0.000633258
0.000633393
0.00063353
0.000633668
0.000633809
0.000633942
0.000634078
0.000634223
0.000634379
0.00063455
0.000634694
0.000634817
0.000634939
0.000635059
0.000635179
0.000635298
0.000635419
0.000635543
0.000635669
0.000635795
0.000635919
0.000636045
0.000636176
0.000636306
0.000636433
0.000636554
0.000636669
0.000636785
0.000636904
0.000637022
0.000637142
0.000637267
0.000637402
0.000637537
0.000637663
0.000637778
0.00063789
0.000638002
0.000638112
0.000638222
0.000638331
0.00063844
0.000638546
0.000638652
0.000638757
0.000638862
0.00063897
0.000639078
0.000639175
0.000639269
0.000639363
0.000639459
0.000639557
0.000639656
0.000639752
0.000639846
0.000639938
0.000640026
0.000640111
0.000640193
0.000640274
0.000640356
0.000640438
0.000640519
0.000640597
0.000640674
0.00064075
0.000640822
0.000640892
0.00064096
0.000641028
0.000641096
0.000641163
0.00064123
0.000641294
0.000641356
0.000641418
0.000641475
0.000641528
0.000641579
0.000641629
0.000641679
0.000641726
0.000641771
0.000641814
0.000641855
0.000641894
0.000641931
0.000641968
0.000642002
0.000642034
0.000642065
0.000642095
0.000642123
0.000642148
0.000642173
0.000642194
0.000642214
0.000642233
0.000642249
0.000642264
0.000642277
0.000642288
0.000642298
0.000642306
0.000642311
0.000642315
0.000642317
0.000912996
0.000909029
0.000905161
0.000901251
0.000897371
0.000893538
0.00088971
0.000885931
0.000882279
0.000878615
0.00087491
0.000871311
0.00086779
0.000864229
0.000860633
0.00085719
0.00085393
0.000850584
0.000847147
0.000843796
0.00084059
0.000837462
0.000834332
0.000831234
0.000828268
0.000825344
0.000822266
0.000819149
0.000816163
0.000813275
0.000810457
0.0008077
0.000804932
0.000802185
0.000799558
0.000796902
0.000794112
0.000791515
0.000789012
0.000786393
0.000783828
0.000781376
0.000778921
0.000776505
0.000774096
0.000771611
0.000769226
0.000767001
0.000764796
0.000762523
0.000760282
0.000758057
0.000755866
0.000753672
0.000751531
0.000749464
0.000747352
0.000745321
0.000743358
0.000741398
0.00073943
0.000737463
0.00073557
0.000733758
0.000731956
0.000730122
0.000728329
0.000726545
0.000724768
0.000723037
0.000721288
0.000719563
0.000717897
0.000716264
0.000714651
0.000713048
0.000711471
0.000709937
0.000708411
0.00070688
0.000705362
0.000703871
0.00070241
0.000700993
0.000699562
0.000698104
0.00069672
0.000695392
0.000694077
0.000692766
0.000691458
0.000690171
0.000688883
0.000687602
0.000686395
0.000685223
0.000684057
0.000682902
0.000681755
0.000680647
0.000679544
0.00067844
0.000677368
0.000676265
0.000675165
0.000674129
0.000673116
0.000672103
0.000671103
0.000670117
0.000669148
0.000668221
0.000667314
0.000666414
0.000665528
0.000664644
0.000663771
0.000662901
0.000662033
0.000661178
0.000660344
0.000659545
0.000658765
0.000657987
0.000657218
0.000656452
0.000655699
0.000654976
0.000654269
0.000653574
0.000652903
0.000652254
0.000651588
0.000650887
0.000650212
0.000649583
0.000648955
0.000648334
0.000647755
0.000647194
0.000646626
0.000646047
0.000645488
0.000644941
0.000644387
0.000643856
0.000643345
0.000642841
0.000642358
0.000641893
0.000641423
0.000640962
0.000640525
0.000640084
0.000639646
0.000639217
0.000638797
0.000638384
0.000637984
0.000637596
0.000637214
0.000636839
0.000636475
0.000636128
0.000635794
0.000635464
0.000635128
0.000634801
0.000634482
0.000634166
0.000633863
0.000633573
0.000633301
0.000633031
0.000632765
0.000632512
0.000632262
0.000632017
0.000631777
0.000631544
0.000631323
0.000631108
0.000630901
0.000630704
0.000630506
0.00063031
0.000630122
0.000629941
0.000629766
0.000629585
0.000629414
0.000629268
0.000629136
0.000629006
0.000628875
0.000628745
0.000628612
0.000628476
0.000628354
0.000628248
0.000628151
0.00062806
0.000627973
0.00062789
0.000627809
0.00062773
0.000627658
0.000627594
0.000627536
0.000627483
0.000627434
0.00062739
0.000627351
0.000627315
0.000627284
0.000627257
0.000627234
0.000627215
0.0006272
0.000627189
0.000627181
0.000627178
0.000627179
0.000627183
0.00062719
0.000627201
0.000627216
0.000627235
0.000627257
0.000627282
0.000627309
0.00062734
0.000627375
0.000627414
0.000627455
0.000627499
0.000627546
0.000627596
0.000627647
0.000627701
0.000627758
0.000627817
0.000627881
0.00062795
0.000628022
0.0006281
0.000628189
0.000628276
0.000628359
0.000628441
0.00062852
0.000628599
0.000628681
0.000628765
0.000628852
0.000628941
0.000629033
0.000629127
0.000629226
0.000629331
0.00062944
0.000629544
0.000629646
0.000629748
0.000629855
0.000629968
0.00063008
0.000630191
0.00063031
0.000630433
0.00063055
0.000630663
0.000630776
0.00063089
0.000631003
0.000631117
0.000631239
0.00063137
0.0006315
0.000631622
0.000631743
0.000631865
0.000631991
0.000632119
0.000632247
0.000632373
0.000632497
0.00063262
0.000632744
0.000632871
0.000632999
0.000633127
0.000633258
0.000633394
0.000633529
0.000633668
0.000633811
0.000633947
0.000634079
0.000634227
0.000634396
0.000634558
0.000634691
0.000634813
0.000634934
0.000635055
0.000635177
0.000635298
0.00063542
0.000635544
0.000635669
0.000635795
0.000635921
0.00063605
0.000636179
0.000636306
0.000636429
0.000636548
0.000636665
0.000636784
0.000636904
0.000637024
0.000637147
0.000637278
0.00063741
0.000637537
0.000637657
0.000637773
0.000637887
0.000637999
0.00063811
0.000638221
0.000638331
0.00063844
0.000638547
0.000638653
0.000638759
0.000638865
0.000638972
0.000639075
0.000639172
0.000639268
0.000639364
0.00063946
0.000639559
0.000639657
0.000639754
0.000639847
0.000639937
0.000640025
0.000640109
0.000640191
0.000640273
0.000640356
0.000640439
0.000640519
0.000640597
0.000640674
0.000640749
0.000640821
0.000640891
0.00064096
0.000641029
0.000641097
0.000641165
0.000641231
0.000641295
0.000641357
0.000641417
0.000641473
0.000641527
0.000641579
0.00064163
0.000641679
0.000641726
0.000641771
0.000641813
0.000641855
0.000641894
0.000641931
0.000641968
0.000642002
0.000642034
0.000642066
0.000642095
0.000642123
0.000642148
0.000642172
0.000642194
0.000642215
0.000642233
0.000642249
0.000642264
0.000642277
0.000642288
0.000642298
0.000642305
0.000642311
0.000642315
0.000642317
0.000913061
0.000909124
0.00090517
0.000901248
0.000897345
0.000893487
0.000889739
0.000885917
0.000882239
0.000878621
0.000874902
0.000871288
0.000867814
0.000864314
0.000860703
0.000857231
0.00085387
0.000850463
0.000847136
0.000843819
0.000840561
0.000837386
0.00083427
0.000831242
0.000828246
0.000825267
0.000822259
0.000819229
0.000816199
0.00081329
0.000810511
0.000807734
0.000804957
0.000802192
0.000799508
0.000796849
0.000794143
0.000791543
0.000789017
0.00078644
0.000783857
0.000781339
0.000778885
0.000776488
0.000774037
0.000771599
0.000769296
0.000767058
0.000764812
0.000762494
0.000760211
0.000758007
0.000755857
0.000753713
0.000751573
0.000749482
0.000747394
0.000745348
0.000743331
0.000741361
0.000739436
0.000737493
0.00073557
0.000733741
0.000731962
0.000730122
0.000728297
0.000726521
0.000724768
0.000723013
0.000721295
0.000719602
0.000717892
0.00071626
0.000714662
0.000713051
0.000711475
0.00070993
0.000708372
0.000706859
0.000705376
0.000703879
0.000702407
0.000700991
0.000699577
0.000698148
0.000696748
0.000695365
0.000694037
0.000692747
0.000691441
0.000690141
0.00068888
0.000687626
0.00068641
0.000685243
0.000684082
0.000682925
0.000681777
0.000680653
0.00067955
0.000678445
0.000677353
0.000676262
0.000675163
0.000674105
0.000673087
0.000672095
0.000671112
0.000670124
0.00066916
0.000668227
0.000667309
0.000666417
0.00066553
0.000664646
0.000663771
0.00066289
0.00066202
0.000661176
0.000660356
0.000659556
0.000658763
0.000657981
0.000657213
0.000656453
0.000655707
0.000654981
0.000654268
0.000653579
0.00065291
0.000652241
0.000651562
0.000650886
0.000650227
0.000649589
0.000648962
0.000648343
0.000647754
0.000647187
0.00064662
0.000646045
0.000645486
0.000644942
0.000644392
0.000643857
0.000643344
0.000642846
0.000642365
0.000641895
0.000641424
0.000640965
0.000640525
0.000640081
0.000639635
0.00063921
0.000638795
0.000638381
0.000637983
0.000637596
0.000637217
0.000636842
0.000636474
0.000636125
0.000635791
0.000635462
0.000635134
0.000634808
0.000634484
0.000634162
0.000633857
0.000633572
0.000633296
0.000633028
0.000632771
0.000632519
0.000632265
0.000632017
0.000631778
0.000631548
0.000631325
0.000631112
0.000630908
0.000630705
0.000630504
0.000630308
0.000630118
0.000629934
0.000629749
0.000629568
0.000629411
0.000629272
0.000629138
0.000629006
0.000628874
0.000628743
0.000628611
0.00062848
0.000628359
0.000628252
0.000628154
0.000628062
0.000627973
0.000627887
0.000627806
0.000627729
0.00062766
0.000627596
0.000627537
0.000627483
0.000627435
0.000627391
0.000627351
0.000627315
0.000627284
0.000627257
0.000627234
0.000627215
0.0006272
0.000627189
0.000627182
0.000627178
0.000627179
0.000627183
0.00062719
0.000627202
0.000627216
0.000627235
0.000627257
0.000627282
0.000627309
0.00062734
0.000627375
0.000627413
0.000627455
0.0006275
0.000627547
0.000627595
0.000627646
0.0006277
0.000627758
0.000627817
0.000627881
0.00062795
0.000628024
0.000628103
0.000628193
0.000628282
0.000628361
0.000628438
0.000628516
0.000628595
0.000628679
0.000628765
0.000628852
0.000628942
0.000629035
0.000629131
0.00062923
0.000629333
0.000629436
0.000629538
0.000629642
0.000629747
0.000629856
0.000629966
0.000630079
0.000630195
0.000630315
0.000630433
0.000630548
0.000630661
0.000630775
0.000630889
0.000631003
0.00063112
0.000631243
0.000631372
0.000631499
0.000631623
0.000631744
0.000631867
0.000631992
0.000632119
0.000632245
0.000632369
0.000632494
0.000632618
0.000632742
0.000632868
0.000632995
0.000633124
0.000633256
0.000633391
0.00063353
0.000633679
0.000633828
0.00063396
0.000634094
0.000634251
0.000634407
0.000634547
0.000634678
0.000634803
0.000634928
0.000635052
0.000635176
0.000635298
0.00063542
0.000635544
0.000635669
0.000635797
0.000635925
0.000636053
0.00063618
0.000636304
0.000636424
0.000636543
0.000636663
0.000636785
0.000636907
0.000637033
0.000637159
0.000637286
0.000637412
0.000637534
0.000637651
0.000637768
0.000637884
0.000637997
0.000638108
0.00063822
0.000638331
0.00063844
0.000638548
0.000638655
0.00063876
0.000638867
0.000638972
0.000639074
0.000639171
0.000639267
0.000639364
0.000639463
0.000639562
0.000639659
0.000639754
0.000639846
0.000639936
0.000640022
0.000640106
0.00064019
0.000640274
0.000640357
0.000640439
0.000640518
0.000640596
0.000640673
0.000640749
0.000640821
0.000640891
0.00064096
0.00064103
0.000641099
0.000641167
0.000641233
0.000641295
0.000641356
0.000641416
0.000641472
0.000641526
0.000641579
0.000641631
0.00064168
0.000641726
0.000641771
0.000641813
0.000641854
0.000641893
0.000641931
0.000641968
0.000642002
0.000642035
0.000642067
0.000642096
0.000642123
0.000642148
0.000642172
0.000642195
0.000642215
0.000642233
0.000642249
0.000642264
0.000642277
0.000642288
0.000642298
0.000642305
0.000642311
0.000642315
0.000642317
0.000913073
0.000909113
0.00090516
0.000901209
0.000897295
0.000893428
0.000889665
0.000885893
0.000882165
0.000878492
0.000874866
0.000871362
0.000867851
0.000864323
0.000860752
0.000857263
0.000853875
0.000850471
0.000847127
0.000843793
0.000840573
0.000837371
0.000834248
0.000831255
0.000828171
0.000825183
0.000822253
0.000819206
0.000816187
0.000813338
0.000810561
0.00080779
0.000805031
0.000802254
0.000799486
0.000796795
0.00079414
0.000791575
0.000789058
0.000786441
0.00078382
0.000781291
0.00077885
0.000776452
0.000774036
0.000771646
0.00076933
0.000767059
0.000764783
0.000762509
0.000760228
0.000757958
0.000755827
0.000753711
0.000751557
0.000749463
0.000747414
0.000745382
0.000743372
0.000741389
0.000739436
0.000737481
0.000735572
0.000733763
0.00073197
0.000730148
0.000728328
0.000726528
0.000724741
0.000722962
0.000721258
0.000719607
0.000717935
0.000716278
0.000714628
0.000712995
0.000711439
0.000709899
0.000708356
0.000706877
0.000705392
0.000703884
0.000702427
0.000701019
0.0006996
0.000698159
0.000696751
0.000695365
0.00069403
0.000692719
0.000691426
0.000690151
0.000688878
0.000687637
0.000686429
0.000685235
0.000684069
0.000682942
0.000681814
0.000680671
0.000679552
0.000678453
0.000677344
0.000676245
0.000675157
0.000674093
0.00067307
0.000672082
0.000671102
0.000670126
0.000669178
0.000668243
0.000667315
0.000666413
0.000665525
0.000664648
0.000663776
0.000662892
0.000662015
0.000661177
0.000660362
0.000659559
0.000658763
0.000657988
0.00065722
0.000656448
0.000655695
0.000654971
0.000654269
0.000653579
0.000652904
0.000652231
0.000651559
0.000650893
0.000650231
0.000649589
0.000648963
0.000648346
0.00064775
0.000647173
0.000646603
0.000646045
0.000645497
0.000644947
0.0006444
0.000643862
0.000643343
0.00064285
0.000642372
0.000641895
0.000641422
0.000640963
0.000640517
0.000640077
0.000639639
0.000639214
0.000638794
0.000638381
0.000637986
0.000637599
0.000637213
0.000636836
0.000636468
0.00063612
0.00063579
0.000635467
0.00063514
0.00063481
0.000634479
0.000634156
0.000633855
0.000633573
0.000633301
0.000633032
0.00063277
0.000632516
0.000632265
0.000632022
0.000631787
0.000631555
0.000631328
0.000631114
0.000630909
0.000630703
0.000630496
0.000630295
0.000630104
0.000629913
0.000629731
0.00062957
0.000629419
0.000629276
0.000629137
0.000629001
0.000628869
0.000628741
0.000628612
0.000628486
0.000628366
0.000628257
0.000628157
0.000628063
0.000627974
0.000627887
0.000627805
0.000627729
0.00062766
0.000627597
0.000627538
0.000627484
0.000627435
0.000627391
0.00062735
0.000627314
0.000627283
0.000627256
0.000627234
0.000627215
0.0006272
0.000627189
0.000627182
0.000627178
0.000627178
0.000627183
0.00062719
0.000627202
0.000627217
0.000627235
0.000627257
0.000627282
0.00062731
0.000627341
0.000627375
0.000627413
0.000627455
0.0006275
0.000627546
0.000627595
0.000627647
0.000627701
0.000627758
0.000627817
0.000627882
0.000627952
0.000628027
0.000628109
0.0006282
0.000628283
0.000628359
0.000628434
0.000628512
0.000628593
0.000628677
0.000628764
0.000628852
0.000628943
0.000629037
0.000629133
0.000629232
0.000629333
0.000629433
0.000629535
0.00062964
0.000629747
0.000629855
0.000629965
0.000630078
0.000630196
0.000630316
0.000630434
0.000630548
0.000630662
0.000630776
0.000630888
0.000631002
0.000631122
0.000631247
0.000631374
0.0006315
0.000631623
0.000631744
0.000631866
0.000631991
0.000632116
0.000632242
0.000632367
0.000632492
0.000632616
0.000632741
0.000632866
0.000632993
0.000633123
0.000633256
0.000633397
0.000633547
0.000633705
0.000633847
0.000633975
0.000634107
0.000634249
0.000634393
0.000634532
0.000634667
0.000634797
0.000634925
0.00063505
0.000635174
0.000635296
0.000635419
0.000635544
0.00063567
0.000635797
0.000635926
0.000636055
0.000636181
0.000636302
0.000636421
0.000636541
0.000636662
0.000636786
0.000636914
0.000637042
0.000637166
0.000637289
0.00063741
0.000637528
0.000637646
0.000637765
0.000637882
0.000637996
0.000638107
0.000638218
0.000638328
0.000638437
0.000638548
0.000638657
0.000638764
0.00063887
0.000638973
0.000639074
0.000639171
0.000639268
0.000639365
0.000639463
0.000639563
0.00063966
0.000639754
0.000639844
0.000639933
0.000640019
0.000640105
0.00064019
0.000640274
0.000640357
0.000640438
0.000640517
0.000640595
0.000640672
0.000640748
0.000640821
0.000640892
0.000640962
0.000641031
0.0006411
0.000641168
0.000641233
0.000641295
0.000641356
0.000641415
0.000641472
0.000641527
0.00064158
0.000641631
0.00064168
0.000641726
0.000641771
0.000641813
0.000641853
0.000641892
0.000641931
0.000641968
0.000642002
0.000642035
0.000642067
0.000642096
0.000642123
0.000642148
0.000642172
0.000642195
0.000642215
0.000642234
0.00064225
0.000642265
0.000642277
0.000642289
0.000642298
0.000642306
0.000642311
0.000642315
0.000642317
0.000913102
0.000909161
0.000905153
0.000901154
0.000897261
0.000893388
0.000889622
0.00088587
0.000882111
0.000878475
0.000874878
0.000871437
0.000867954
0.000864234
0.000860658
0.000857287
0.000853921
0.000850539
0.000847187
0.000843786
0.000840497
0.000837326
0.000834248
0.000831231
0.000828176
0.000825212
0.000822273
0.000819218
0.000816235
0.000813346
0.000810496
0.000807758
0.000805052
0.000802283
0.000799493
0.000796816
0.000794219
0.000791609
0.00078897
0.000786346
0.000783806
0.000781286
0.000778826
0.000776448
0.000774072
0.000771693
0.000769381
0.000767103
0.000764766
0.000762457
0.000760201
0.000757973
0.000755811
0.00075369
0.000751575
0.000749464
0.000747406
0.00074538
0.000743361
0.000741388
0.000739437
0.0007375
0.000735605
0.000733778
0.000731992
0.000730169
0.000728348
0.000726539
0.000724737
0.000722961
0.000721242
0.000719582
0.000717903
0.000716245
0.000714614
0.000712982
0.000711412
0.000709884
0.000708368
0.000706851
0.000705364
0.000703906
0.000702448
0.000701022
0.000699601
0.000698163
0.000696757
0.000695383
0.000694033
0.000692715
0.000691428
0.000690161
0.00068889
0.00068764
0.000686431
0.00068524
0.000684067
0.000682929
0.000681813
0.000680691
0.000679567
0.000678448
0.000677347
0.000676248
0.000675152
0.000674086
0.000673062
0.00067208
0.0006711
0.000670124
0.00066918
0.000668261
0.000667339
0.000666408
0.000665499
0.000664637
0.000663789
0.000662908
0.000662029
0.000661188
0.000660366
0.00065956
0.00065877
0.000657988
0.000657205
0.000656433
0.000655692
0.000654973
0.000654265
0.000653572
0.000652899
0.000652227
0.000651556
0.0006509
0.000650246
0.000649593
0.000648961
0.000648349
0.000647744
0.00064716
0.000646596
0.000646041
0.00064549
0.000644944
0.000644405
0.00064387
0.000643354
0.000642859
0.000642373
0.000641894
0.000641426
0.000640966
0.000640513
0.000640068
0.000639632
0.000639207
0.00063879
0.000638386
0.000637995
0.000637604
0.000637211
0.000636828
0.000636459
0.000636113
0.000635788
0.000635466
0.000635139
0.000634808
0.000634477
0.000634158
0.000633859
0.000633578
0.000633304
0.000633035
0.000632772
0.000632517
0.000632269
0.000632029
0.000631794
0.000631563
0.000631336
0.000631116
0.000630904
0.000630691
0.000630478
0.000630273
0.000630083
0.000629904
0.000629734
0.000629576
0.000629425
0.000629279
0.000629135
0.000628997
0.000628865
0.000628738
0.000628612
0.000628489
0.000628371
0.000628262
0.000628161
0.000628066
0.000627975
0.000627888
0.000627805
0.000627729
0.000627661
0.000627598
0.000627539
0.000627485
0.000627436
0.00062739
0.00062735
0.000627314
0.000627283
0.000627257
0.000627234
0.000627215
0.0006272
0.000627189
0.000627181
0.000627178
0.000627178
0.000627183
0.00062719
0.000627202
0.000627217
0.000627235
0.000627257
0.000627282
0.00062731
0.000627341
0.000627375
0.000627412
0.000627455
0.0006275
0.000627546
0.000627595
0.000627646
0.000627701
0.000627759
0.00062782
0.000627885
0.000627956
0.000628034
0.000628117
0.000628199
0.000628278
0.000628354
0.00062843
0.000628509
0.000628591
0.000628676
0.000628763
0.000628853
0.000628944
0.000629038
0.000629134
0.000629232
0.000629332
0.000629432
0.000629535
0.00062964
0.000629746
0.000629854
0.000629963
0.000630077
0.000630196
0.000630319
0.000630438
0.000630551
0.000630662
0.000630773
0.000630886
0.000631004
0.000631127
0.000631252
0.000631376
0.0006315
0.000631621
0.000631742
0.000631865
0.00063199
0.000632115
0.000632239
0.000632364
0.00063249
0.000632616
0.000632741
0.000632866
0.000632993
0.000633124
0.000633265
0.00063342
0.000633576
0.000633716
0.000633848
0.000633978
0.000634109
0.000634244
0.000634383
0.000634522
0.00063466
0.000634794
0.000634922
0.000635048
0.000635171
0.000635294
0.000635417
0.000635543
0.00063567
0.000635798
0.000635927
0.000636056
0.000636181
0.000636301
0.00063642
0.000636541
0.000636665
0.000636793
0.000636921
0.000637046
0.000637168
0.000637288
0.000637406
0.000637524
0.000637643
0.000637762
0.000637881
0.000637996
0.000638108
0.000638217
0.000638326
0.000638436
0.000638547
0.000638658
0.000638767
0.000638873
0.000638974
0.000639074
0.000639171
0.000639269
0.000639367
0.000639466
0.000639564
0.000639659
0.000639751
0.000639841
0.00063993
0.000640017
0.000640104
0.00064019
0.000640275
0.000640358
0.000640438
0.000640517
0.000640595
0.000640672
0.000640747
0.000640821
0.000640893
0.000640963
0.000641033
0.000641101
0.000641168
0.000641233
0.000641296
0.000641356
0.000641416
0.000641473
0.000641528
0.000641581
0.000641632
0.00064168
0.000641726
0.000641769
0.000641812
0.000641853
0.000641892
0.000641931
0.000641968
0.000642002
0.000642035
0.000642067
0.000642096
0.000642123
0.000642148
0.000642172
0.000642195
0.000642215
0.000642234
0.00064225
0.000642265
0.000642278
0.000642289
0.000642298
0.000642306
0.000642312
0.000642315
0.000642317
0.000913118
0.000909237
0.000905255
0.000901194
0.000897286
0.000893371
0.000889531
0.000885789
0.000882129
0.00087855
0.000874924
0.000871413
0.000867875
0.000864225
0.00086069
0.00085721
0.000853839
0.000850551
0.000847245
0.000843897
0.000840558
0.000837315
0.000834204
0.000831214
0.000828201
0.000825159
0.000822207
0.000819247
0.000816313
0.000813372
0.000810474
0.000807739
0.000805025
0.00080231
0.000799549
0.000796833
0.000794213
0.00079159
0.000788936
0.000786318
0.000783786
0.000781284
0.000778842
0.000776464
0.000774071
0.000771691
0.00076938
0.000767098
0.000764799
0.000762469
0.000760168
0.000757981
0.000755833
0.000753672
0.000751563
0.000749482
0.000747404
0.000745368
0.000743376
0.0007414
0.000739446
0.000737535
0.000735637
0.000733788
0.000731994
0.000730165
0.000728336
0.000726539
0.000724745
0.000722956
0.000721225
0.000719536
0.000717845
0.000716211
0.000714611
0.000712988
0.000711397
0.000709862
0.000708358
0.000706868
0.000705378
0.000703899
0.000702454
0.000701031
0.000699602
0.000698174
0.000696772
0.000695387
0.000694023
0.00069271
0.000691444
0.000690177
0.000688887
0.000687632
0.000686429
0.000685244
0.000684079
0.000682931
0.000681792
0.000680681
0.000679587
0.000678474
0.000677343
0.000676213
0.000675122
0.000674087
0.000673088
0.000672103
0.000671106
0.000670117
0.000669169
0.000668257
0.000667344
0.000666416
0.000665504
0.000664636
0.000663787
0.000662926
0.000662053
0.000661195
0.00066037
0.000659562
0.00065877
0.000657982
0.000657196
0.000656434
0.000655691
0.000654965
0.000654258
0.000653569
0.000652893
0.000652219
0.000651554
0.00065091
0.00065026
0.000649594
0.000648949
0.00064833
0.000647734
0.00064716
0.000646598
0.000646045
0.000645491
0.000644939
0.000644403
0.000643881
0.000643366
0.000642862
0.000642373
0.000641897
0.00064143
0.000640967
0.000640508
0.000640057
0.000639622
0.000639204
0.000638798
0.000638396
0.000637997
0.000637598
0.0006372
0.000636817
0.000636458
0.000636116
0.000635784
0.000635457
0.000635133
0.000634805
0.000634479
0.000634164
0.000633866
0.000633585
0.000633309
0.000633036
0.000632771
0.000632519
0.000632275
0.000632036
0.000631803
0.00063157
0.000631343
0.000631123
0.000630906
0.000630682
0.000630453
0.000630248
0.000630069
0.000629898
0.000629736
0.000629581
0.000629429
0.00062928
0.000629134
0.000628994
0.000628862
0.000628735
0.00062861
0.000628489
0.000628374
0.000628265
0.000628164
0.000628068
0.000627977
0.000627889
0.000627806
0.00062773
0.000627661
0.000627598
0.000627539
0.000627485
0.000627435
0.00062739
0.00062735
0.000627314
0.000627283
0.000627257
0.000627234
0.000627215
0.000627199
0.000627188
0.000627181
0.000627178
0.000627178
0.000627182
0.00062719
0.000627202
0.000627217
0.000627235
0.000627257
0.000627282
0.000627309
0.00062734
0.000627374
0.000627412
0.000627455
0.0006275
0.000627546
0.000627595
0.000627648
0.000627704
0.000627762
0.000627823
0.000627889
0.000627962
0.000628038
0.000628117
0.000628195
0.000628273
0.00062835
0.000628427
0.000628507
0.000628589
0.000628675
0.000628763
0.000628853
0.000628944
0.000629038
0.000629134
0.000629232
0.000629331
0.000629432
0.000629535
0.00062964
0.000629746
0.000629852
0.000629962
0.000630078
0.000630199
0.000630323
0.000630439
0.00063055
0.00063066
0.000630772
0.000630886
0.000631006
0.00063113
0.000631254
0.000631376
0.000631498
0.000631619
0.000631741
0.000631864
0.000631989
0.000632114
0.000632239
0.000632364
0.000632489
0.000632614
0.000632739
0.000632866
0.000632995
0.000633133
0.000633287
0.000633443
0.000633585
0.000633717
0.000633847
0.000633976
0.000634107
0.000634242
0.000634379
0.000634517
0.000634655
0.000634789
0.000634918
0.000635044
0.000635168
0.000635291
0.000635417
0.000635543
0.000635672
0.000635801
0.000635929
0.000636055
0.00063618
0.0006363
0.000636421
0.000636543
0.000636668
0.000636795
0.000636922
0.000637046
0.000637167
0.000637285
0.000637403
0.000637522
0.000637642
0.000637762
0.000637881
0.000637996
0.000638107
0.000638217
0.000638326
0.000638436
0.000638547
0.000638659
0.000638769
0.000638874
0.000638975
0.000639073
0.000639172
0.00063927
0.000639369
0.000639466
0.000639562
0.000639657
0.000639749
0.000639838
0.000639927
0.000640016
0.000640104
0.000640191
0.000640275
0.000640358
0.000640439
0.000640517
0.000640595
0.000640672
0.000640747
0.000640821
0.000640893
0.000640964
0.000641034
0.000641102
0.000641168
0.000641234
0.000641296
0.000641356
0.000641415
0.000641473
0.000641529
0.000641581
0.000641632
0.00064168
0.000641726
0.00064177
0.000641812
0.000641853
0.000641893
0.000641931
0.000641968
0.000642003
0.000642036
0.000642067
0.000642096
0.000642123
0.000642148
0.000642173
0.000642195
0.000642216
0.000642234
0.000642251
0.000642266
0.000642278
0.000642289
0.000642298
0.000642306
0.000642312
0.000642316
0.000642318
0.000913126
0.00090921
0.000905276
0.000901309
0.000897366
0.000893398
0.000889508
0.000885752
0.000882071
0.000878465
0.00087491
0.00087139
0.000867783
0.000864161
0.000860661
0.00085724
0.000853874
0.000850532
0.00084725
0.000843972
0.000840592
0.000837342
0.000834266
0.000831257
0.000828225
0.000825154
0.000822162
0.0008192
0.000816279
0.000813363
0.000810482
0.000807711
0.000805007
0.000802317
0.000799599
0.000796878
0.000794174
0.000791521
0.000788922
0.000786365
0.000783816
0.000781288
0.000778843
0.000776458
0.00077405
0.000771679
0.00076938
0.000767082
0.000764785
0.000762485
0.000760187
0.000757986
0.000755835
0.000753669
0.000751556
0.000749493
0.000747425
0.000745386
0.000743391
0.000741413
0.000739475
0.000737564
0.000735649
0.000733764
0.00073196