/*--------------------------------*- C++ -*----------------------------------*\
  =========                 |
  \\      /  F ield         | OpenFOAM: The Open Source CFD Toolbox
   \\    /   O peration     | Website:  https://openfoam.org
    \\  /    A nd           | Version:  7
     \\/     M anipulation  |
\*---------------------------------------------------------------------------*/
FoamFile
{
    version     2.0;
    format      ascii;
    class       volScalarField;
    location    "5000";
    object      mu2;
}
// * * * * * * * * * * * * * * * * * * * * * * * * * * * * * * * * * * * * * //

dimensions      [1 -1 -1 0 0 0 0];

internalField   nonuniform List<scalar> 
160000
(
1.84587e-05
1.84677e-05
1.84767e-05
1.84856e-05
1.84947e-05
1.85037e-05
1.85125e-05
1.85211e-05
1.85295e-05
1.85381e-05
1.85469e-05
1.85553e-05
1.85637e-05
1.85724e-05
1.85807e-05
1.85888e-05
1.85967e-05
1.86046e-05
1.86126e-05
1.86207e-05
1.86285e-05
1.86361e-05
1.86437e-05
1.86512e-05
1.86585e-05
1.86658e-05
1.86734e-05
1.8681e-05
1.86883e-05
1.86955e-05
1.87024e-05
1.87092e-05
1.87162e-05
1.87231e-05
1.87297e-05
1.87364e-05
1.87432e-05
1.875e-05
1.87566e-05
1.8763e-05
1.87694e-05
1.87757e-05
1.8782e-05
1.87882e-05
1.87944e-05
1.88008e-05
1.8807e-05
1.88128e-05
1.88185e-05
1.88243e-05
1.883e-05
1.88359e-05
1.88419e-05
1.88475e-05
1.88532e-05
1.88588e-05
1.88643e-05
1.88697e-05
1.88748e-05
1.88799e-05
1.88853e-05
1.88906e-05
1.88956e-05
1.89005e-05
1.89053e-05
1.89102e-05
1.89152e-05
1.89201e-05
1.89249e-05
1.89294e-05
1.89341e-05
1.89389e-05
1.89435e-05
1.8948e-05
1.89525e-05
1.89568e-05
1.89612e-05
1.89654e-05
1.89696e-05
1.89739e-05
1.8978e-05
1.89823e-05
1.89864e-05
1.89904e-05
1.89943e-05
1.89983e-05
1.90022e-05
1.9006e-05
1.90096e-05
1.90134e-05
1.9017e-05
1.90206e-05
1.90243e-05
1.9028e-05
1.90315e-05
1.90348e-05
1.90381e-05
1.90414e-05
1.90447e-05
1.90479e-05
1.9051e-05
1.90541e-05
1.90573e-05
1.90605e-05
1.90635e-05
1.90666e-05
1.90695e-05
1.90724e-05
1.90753e-05
1.90782e-05
1.90811e-05
1.90837e-05
1.90864e-05
1.90891e-05
1.90916e-05
1.90942e-05
1.90967e-05
1.90993e-05
1.91018e-05
1.91044e-05
1.91068e-05
1.91091e-05
1.91114e-05
1.91137e-05
1.9116e-05
1.91183e-05
1.91206e-05
1.91227e-05
1.91248e-05
1.91268e-05
1.91288e-05
1.91308e-05
1.91327e-05
1.91348e-05
1.91369e-05
1.91388e-05
1.91406e-05
1.91425e-05
1.91442e-05
1.91459e-05
1.91476e-05
1.91494e-05
1.9151e-05
1.91526e-05
1.91543e-05
1.91559e-05
1.91575e-05
1.9159e-05
1.91605e-05
1.91619e-05
1.91633e-05
1.91647e-05
1.9166e-05
1.91673e-05
1.91687e-05
1.91699e-05
1.91712e-05
1.91725e-05
1.91737e-05
1.91749e-05
1.91761e-05
1.91772e-05
1.91783e-05
1.91794e-05
1.91804e-05
1.91814e-05
1.91824e-05
1.91834e-05
1.91844e-05
1.91853e-05
1.91863e-05
1.91872e-05
1.9188e-05
1.91888e-05
1.91897e-05
1.91904e-05
1.91912e-05
1.91919e-05
1.91927e-05
1.91934e-05
1.91941e-05
1.91947e-05
1.91954e-05
1.9196e-05
1.91966e-05
1.91972e-05
1.91977e-05
1.91983e-05
1.91988e-05
1.91994e-05
1.91999e-05
1.92004e-05
1.92008e-05
1.92012e-05
1.92016e-05
1.9202e-05
1.92024e-05
1.92028e-05
1.92032e-05
1.92035e-05
1.92038e-05
1.92041e-05
1.92044e-05
1.92046e-05
1.92049e-05
1.92051e-05
1.92053e-05
1.92055e-05
1.92057e-05
1.92059e-05
1.9206e-05
1.92062e-05
1.92063e-05
1.92064e-05
1.92065e-05
1.92066e-05
1.92067e-05
1.92067e-05
1.92068e-05
1.92068e-05
1.92068e-05
1.92068e-05
1.92068e-05
1.92068e-05
1.92068e-05
1.92068e-05
1.92067e-05
1.92067e-05
1.92066e-05
1.92065e-05
1.92064e-05
1.92063e-05
1.92062e-05
1.92061e-05
1.9206e-05
1.92058e-05
1.92057e-05
1.92055e-05
1.92054e-05
1.92052e-05
1.9205e-05
1.92049e-05
1.92047e-05
1.92044e-05
1.92042e-05
1.9204e-05
1.92037e-05
1.92035e-05
1.92032e-05
1.92029e-05
1.92027e-05
1.92024e-05
1.92022e-05
1.92019e-05
1.92017e-05
1.92014e-05
1.92011e-05
1.92008e-05
1.92005e-05
1.92002e-05
1.91999e-05
1.91995e-05
1.91992e-05
1.91989e-05
1.91986e-05
1.91982e-05
1.91979e-05
1.91975e-05
1.91972e-05
1.91968e-05
1.91964e-05
1.91961e-05
1.91957e-05
1.91954e-05
1.9195e-05
1.91947e-05
1.91943e-05
1.91939e-05
1.91935e-05
1.91931e-05
1.91928e-05
1.91924e-05
1.9192e-05
1.91916e-05
1.91912e-05
1.91908e-05
1.91905e-05
1.91901e-05
1.91897e-05
1.91893e-05
1.91889e-05
1.91885e-05
1.91881e-05
1.91877e-05
1.91873e-05
1.91869e-05
1.91864e-05
1.9186e-05
1.91856e-05
1.91852e-05
1.91847e-05
1.91842e-05
1.91837e-05
1.91834e-05
1.9183e-05
1.91826e-05
1.91823e-05
1.91819e-05
1.91815e-05
1.91811e-05
1.91808e-05
1.91804e-05
1.918e-05
1.91796e-05
1.91792e-05
1.91788e-05
1.91784e-05
1.91781e-05
1.91777e-05
1.91774e-05
1.9177e-05
1.91766e-05
1.91763e-05
1.91759e-05
1.91755e-05
1.91751e-05
1.91747e-05
1.91743e-05
1.9174e-05
1.91737e-05
1.91733e-05
1.9173e-05
1.91727e-05
1.91723e-05
1.9172e-05
1.91717e-05
1.91714e-05
1.9171e-05
1.91707e-05
1.91704e-05
1.91701e-05
1.91698e-05
1.91695e-05
1.91692e-05
1.91689e-05
1.91686e-05
1.91683e-05
1.91681e-05
1.91678e-05
1.91675e-05
1.91673e-05
1.9167e-05
1.91668e-05
1.91665e-05
1.91663e-05
1.9166e-05
1.91658e-05
1.91655e-05
1.91653e-05
1.91651e-05
1.91649e-05
1.91647e-05
1.91645e-05
1.91643e-05
1.91641e-05
1.91639e-05
1.91637e-05
1.91635e-05
1.91633e-05
1.91631e-05
1.9163e-05
1.91628e-05
1.91627e-05
1.91625e-05
1.91624e-05
1.91622e-05
1.91621e-05
1.9162e-05
1.91619e-05
1.91617e-05
1.91616e-05
1.91615e-05
1.91614e-05
1.91613e-05
1.91612e-05
1.91612e-05
1.91611e-05
1.9161e-05
1.91609e-05
1.91609e-05
1.91608e-05
1.91608e-05
1.91607e-05
1.91607e-05
1.91607e-05
1.91606e-05
1.91606e-05
1.91606e-05
1.91606e-05
1.91606e-05
1.84589e-05
1.84679e-05
1.84768e-05
1.84857e-05
1.84947e-05
1.85035e-05
1.85124e-05
1.85211e-05
1.85296e-05
1.85382e-05
1.85469e-05
1.85553e-05
1.85636e-05
1.85721e-05
1.85806e-05
1.85888e-05
1.85966e-05
1.86046e-05
1.86128e-05
1.86209e-05
1.86286e-05
1.86362e-05
1.86438e-05
1.86513e-05
1.86586e-05
1.86657e-05
1.86733e-05
1.86809e-05
1.86883e-05
1.86955e-05
1.87025e-05
1.87093e-05
1.87162e-05
1.87231e-05
1.87297e-05
1.87364e-05
1.87434e-05
1.87499e-05
1.87563e-05
1.87629e-05
1.87695e-05
1.87757e-05
1.8782e-05
1.87882e-05
1.87944e-05
1.88008e-05
1.8807e-05
1.88127e-05
1.88185e-05
1.88244e-05
1.88302e-05
1.8836e-05
1.88418e-05
1.88475e-05
1.88532e-05
1.88586e-05
1.88642e-05
1.88696e-05
1.88748e-05
1.888e-05
1.88853e-05
1.88906e-05
1.88956e-05
1.89005e-05
1.89053e-05
1.89103e-05
1.89151e-05
1.892e-05
1.89248e-05
1.89295e-05
1.89343e-05
1.8939e-05
1.89435e-05
1.8948e-05
1.89524e-05
1.89568e-05
1.89612e-05
1.89654e-05
1.89696e-05
1.89739e-05
1.89781e-05
1.89822e-05
1.89863e-05
1.89903e-05
1.89943e-05
1.89984e-05
1.90022e-05
1.9006e-05
1.90097e-05
1.90134e-05
1.90171e-05
1.90207e-05
1.90244e-05
1.9028e-05
1.90314e-05
1.90348e-05
1.90381e-05
1.90414e-05
1.90447e-05
1.90478e-05
1.9051e-05
1.90542e-05
1.90573e-05
1.90604e-05
1.90636e-05
1.90666e-05
1.90695e-05
1.90725e-05
1.90754e-05
1.90782e-05
1.9081e-05
1.90837e-05
1.90864e-05
1.9089e-05
1.90916e-05
1.90942e-05
1.90967e-05
1.90993e-05
1.91018e-05
1.91044e-05
1.91068e-05
1.91092e-05
1.91115e-05
1.91138e-05
1.9116e-05
1.91183e-05
1.91205e-05
1.91227e-05
1.91248e-05
1.91268e-05
1.91288e-05
1.91308e-05
1.91328e-05
1.91348e-05
1.91369e-05
1.91387e-05
1.91406e-05
1.91425e-05
1.91442e-05
1.91459e-05
1.91476e-05
1.91493e-05
1.9151e-05
1.91527e-05
1.91543e-05
1.91559e-05
1.91575e-05
1.9159e-05
1.91605e-05
1.91619e-05
1.91633e-05
1.91647e-05
1.9166e-05
1.91673e-05
1.91687e-05
1.917e-05
1.91712e-05
1.91725e-05
1.91737e-05
1.91749e-05
1.91761e-05
1.91772e-05
1.91783e-05
1.91794e-05
1.91804e-05
1.91814e-05
1.91824e-05
1.91834e-05
1.91844e-05
1.91854e-05
1.91863e-05
1.91872e-05
1.9188e-05
1.91888e-05
1.91896e-05
1.91904e-05
1.91912e-05
1.91919e-05
1.91927e-05
1.91934e-05
1.91941e-05
1.91947e-05
1.91954e-05
1.9196e-05
1.91966e-05
1.91972e-05
1.91978e-05
1.91983e-05
1.91989e-05
1.91994e-05
1.91999e-05
1.92004e-05
1.92008e-05
1.92012e-05
1.92016e-05
1.9202e-05
1.92024e-05
1.92028e-05
1.92032e-05
1.92035e-05
1.92038e-05
1.92041e-05
1.92044e-05
1.92046e-05
1.92049e-05
1.92051e-05
1.92053e-05
1.92055e-05
1.92057e-05
1.92059e-05
1.9206e-05
1.92062e-05
1.92063e-05
1.92064e-05
1.92065e-05
1.92066e-05
1.92067e-05
1.92067e-05
1.92068e-05
1.92068e-05
1.92068e-05
1.92068e-05
1.92068e-05
1.92068e-05
1.92068e-05
1.92068e-05
1.92067e-05
1.92067e-05
1.92066e-05
1.92065e-05
1.92064e-05
1.92063e-05
1.92062e-05
1.92061e-05
1.9206e-05
1.92058e-05
1.92057e-05
1.92055e-05
1.92054e-05
1.92052e-05
1.9205e-05
1.92049e-05
1.92047e-05
1.92044e-05
1.92042e-05
1.9204e-05
1.92037e-05
1.92034e-05
1.92032e-05
1.92029e-05
1.92027e-05
1.92024e-05
1.92022e-05
1.92019e-05
1.92017e-05
1.92014e-05
1.92011e-05
1.92008e-05
1.92005e-05
1.92002e-05
1.91999e-05
1.91995e-05
1.91992e-05
1.91989e-05
1.91986e-05
1.91982e-05
1.91979e-05
1.91975e-05
1.91972e-05
1.91968e-05
1.91964e-05
1.91961e-05
1.91957e-05
1.91954e-05
1.9195e-05
1.91947e-05
1.91943e-05
1.91939e-05
1.91935e-05
1.91931e-05
1.91928e-05
1.91924e-05
1.9192e-05
1.91916e-05
1.91912e-05
1.91908e-05
1.91905e-05
1.91901e-05
1.91897e-05
1.91893e-05
1.91889e-05
1.91885e-05
1.91881e-05
1.91877e-05
1.91873e-05
1.91869e-05
1.91864e-05
1.9186e-05
1.91856e-05
1.91852e-05
1.91846e-05
1.91842e-05
1.91837e-05
1.91834e-05
1.9183e-05
1.91826e-05
1.91823e-05
1.91819e-05
1.91815e-05
1.91811e-05
1.91808e-05
1.91804e-05
1.918e-05
1.91796e-05
1.91792e-05
1.91788e-05
1.91784e-05
1.91781e-05
1.91777e-05
1.91774e-05
1.9177e-05
1.91766e-05
1.91763e-05
1.91759e-05
1.91755e-05
1.91751e-05
1.91747e-05
1.91744e-05
1.9174e-05
1.91737e-05
1.91733e-05
1.9173e-05
1.91727e-05
1.91723e-05
1.9172e-05
1.91717e-05
1.91714e-05
1.9171e-05
1.91707e-05
1.91704e-05
1.91701e-05
1.91698e-05
1.91695e-05
1.91692e-05
1.91689e-05
1.91686e-05
1.91683e-05
1.91681e-05
1.91678e-05
1.91675e-05
1.91673e-05
1.9167e-05
1.91668e-05
1.91665e-05
1.91663e-05
1.9166e-05
1.91658e-05
1.91655e-05
1.91653e-05
1.91651e-05
1.91649e-05
1.91647e-05
1.91645e-05
1.91643e-05
1.91641e-05
1.91639e-05
1.91637e-05
1.91635e-05
1.91633e-05
1.91631e-05
1.9163e-05
1.91628e-05
1.91627e-05
1.91625e-05
1.91624e-05
1.91622e-05
1.91621e-05
1.9162e-05
1.91619e-05
1.91617e-05
1.91616e-05
1.91615e-05
1.91614e-05
1.91613e-05
1.91612e-05
1.91612e-05
1.91611e-05
1.9161e-05
1.9161e-05
1.91609e-05
1.91608e-05
1.91608e-05
1.91607e-05
1.91607e-05
1.91607e-05
1.91606e-05
1.91606e-05
1.91606e-05
1.91606e-05
1.91606e-05
1.84587e-05
1.84677e-05
1.84767e-05
1.84857e-05
1.84947e-05
1.85036e-05
1.85123e-05
1.85212e-05
1.85297e-05
1.85382e-05
1.85469e-05
1.85554e-05
1.85636e-05
1.85719e-05
1.85804e-05
1.85887e-05
1.85967e-05
1.86049e-05
1.86128e-05
1.86208e-05
1.86287e-05
1.86364e-05
1.86439e-05
1.86513e-05
1.86586e-05
1.86659e-05
1.86733e-05
1.86807e-05
1.86882e-05
1.86954e-05
1.87023e-05
1.87092e-05
1.87162e-05
1.87231e-05
1.87298e-05
1.87365e-05
1.87433e-05
1.87499e-05
1.87563e-05
1.87628e-05
1.87694e-05
1.87758e-05
1.87821e-05
1.87882e-05
1.87946e-05
1.88008e-05
1.88068e-05
1.88126e-05
1.88184e-05
1.88245e-05
1.88304e-05
1.88362e-05
1.88418e-05
1.88474e-05
1.88531e-05
1.88586e-05
1.88641e-05
1.88695e-05
1.88749e-05
1.88801e-05
1.88853e-05
1.88905e-05
1.88956e-05
1.89005e-05
1.89053e-05
1.89103e-05
1.89152e-05
1.892e-05
1.89248e-05
1.89296e-05
1.89342e-05
1.89389e-05
1.89435e-05
1.8948e-05
1.89524e-05
1.89568e-05
1.89612e-05
1.89654e-05
1.89697e-05
1.89739e-05
1.89781e-05
1.89822e-05
1.89863e-05
1.89903e-05
1.89942e-05
1.89982e-05
1.90022e-05
1.9006e-05
1.90098e-05
1.90134e-05
1.90171e-05
1.90208e-05
1.90244e-05
1.90279e-05
1.90314e-05
1.90347e-05
1.9038e-05
1.90413e-05
1.90446e-05
1.90478e-05
1.9051e-05
1.90542e-05
1.90573e-05
1.90604e-05
1.90636e-05
1.90667e-05
1.90696e-05
1.90725e-05
1.90753e-05
1.90782e-05
1.9081e-05
1.90837e-05
1.90864e-05
1.9089e-05
1.90916e-05
1.90942e-05
1.90967e-05
1.90993e-05
1.91019e-05
1.91044e-05
1.91068e-05
1.91091e-05
1.91115e-05
1.91138e-05
1.91161e-05
1.91183e-05
1.91205e-05
1.91227e-05
1.91248e-05
1.91268e-05
1.91288e-05
1.91308e-05
1.91328e-05
1.91349e-05
1.91368e-05
1.91387e-05
1.91406e-05
1.91425e-05
1.91442e-05
1.91459e-05
1.91476e-05
1.91493e-05
1.9151e-05
1.91527e-05
1.91543e-05
1.91559e-05
1.91575e-05
1.9159e-05
1.91604e-05
1.91619e-05
1.91633e-05
1.91647e-05
1.9166e-05
1.91673e-05
1.91687e-05
1.917e-05
1.91712e-05
1.91725e-05
1.91737e-05
1.91749e-05
1.9176e-05
1.91772e-05
1.91783e-05
1.91794e-05
1.91804e-05
1.91814e-05
1.91824e-05
1.91834e-05
1.91844e-05
1.91854e-05
1.91863e-05
1.91872e-05
1.9188e-05
1.91888e-05
1.91896e-05
1.91904e-05
1.91912e-05
1.91919e-05
1.91927e-05
1.91934e-05
1.91941e-05
1.91947e-05
1.91953e-05
1.9196e-05
1.91966e-05
1.91972e-05
1.91978e-05
1.91983e-05
1.91989e-05
1.91995e-05
1.91999e-05
1.92004e-05
1.92008e-05
1.92012e-05
1.92016e-05
1.9202e-05
1.92024e-05
1.92028e-05
1.92032e-05
1.92035e-05
1.92038e-05
1.92041e-05
1.92044e-05
1.92046e-05
1.92049e-05
1.92051e-05
1.92053e-05
1.92055e-05
1.92057e-05
1.92059e-05
1.9206e-05
1.92062e-05
1.92063e-05
1.92064e-05
1.92065e-05
1.92066e-05
1.92067e-05
1.92067e-05
1.92068e-05
1.92068e-05
1.92068e-05
1.92068e-05
1.92068e-05
1.92068e-05
1.92068e-05
1.92068e-05
1.92067e-05
1.92067e-05
1.92066e-05
1.92065e-05
1.92064e-05
1.92063e-05
1.92062e-05
1.92061e-05
1.9206e-05
1.92058e-05
1.92057e-05
1.92055e-05
1.92054e-05
1.92052e-05
1.9205e-05
1.92049e-05
1.92047e-05
1.92044e-05
1.92042e-05
1.9204e-05
1.92037e-05
1.92034e-05
1.92032e-05
1.92029e-05
1.92027e-05
1.92025e-05
1.92022e-05
1.92019e-05
1.92017e-05
1.92014e-05
1.92011e-05
1.92008e-05
1.92005e-05
1.92002e-05
1.91999e-05
1.91995e-05
1.91992e-05
1.91989e-05
1.91986e-05
1.91982e-05
1.91979e-05
1.91975e-05
1.91972e-05
1.91968e-05
1.91964e-05
1.91961e-05
1.91957e-05
1.91954e-05
1.9195e-05
1.91947e-05
1.91943e-05
1.91939e-05
1.91935e-05
1.91931e-05
1.91928e-05
1.91924e-05
1.9192e-05
1.91916e-05
1.91912e-05
1.91909e-05
1.91905e-05
1.91901e-05
1.91897e-05
1.91893e-05
1.91889e-05
1.91885e-05
1.91881e-05
1.91877e-05
1.91873e-05
1.91868e-05
1.91864e-05
1.9186e-05
1.91856e-05
1.91851e-05
1.91846e-05
1.91842e-05
1.91838e-05
1.91834e-05
1.9183e-05
1.91826e-05
1.91823e-05
1.91819e-05
1.91815e-05
1.91811e-05
1.91808e-05
1.91804e-05
1.918e-05
1.91796e-05
1.91792e-05
1.91788e-05
1.91785e-05
1.91781e-05
1.91777e-05
1.91774e-05
1.9177e-05
1.91766e-05
1.91762e-05
1.91758e-05
1.91755e-05
1.91751e-05
1.91747e-05
1.91744e-05
1.9174e-05
1.91737e-05
1.91733e-05
1.9173e-05
1.91727e-05
1.91723e-05
1.9172e-05
1.91717e-05
1.91714e-05
1.9171e-05
1.91707e-05
1.91704e-05
1.91701e-05
1.91698e-05
1.91695e-05
1.91692e-05
1.91689e-05
1.91686e-05
1.91683e-05
1.91681e-05
1.91678e-05
1.91675e-05
1.91673e-05
1.9167e-05
1.91668e-05
1.91665e-05
1.91663e-05
1.9166e-05
1.91658e-05
1.91656e-05
1.91653e-05
1.91651e-05
1.91649e-05
1.91647e-05
1.91645e-05
1.91643e-05
1.91641e-05
1.91639e-05
1.91637e-05
1.91635e-05
1.91633e-05
1.91631e-05
1.9163e-05
1.91628e-05
1.91627e-05
1.91625e-05
1.91624e-05
1.91622e-05
1.91621e-05
1.9162e-05
1.91619e-05
1.91617e-05
1.91616e-05
1.91615e-05
1.91614e-05
1.91613e-05
1.91612e-05
1.91612e-05
1.91611e-05
1.9161e-05
1.91609e-05
1.91609e-05
1.91608e-05
1.91608e-05
1.91607e-05
1.91607e-05
1.91607e-05
1.91606e-05
1.91606e-05
1.91606e-05
1.91606e-05
1.91606e-05
1.84587e-05
1.84677e-05
1.84768e-05
1.84858e-05
1.84948e-05
1.85038e-05
1.85125e-05
1.85212e-05
1.85299e-05
1.85385e-05
1.8547e-05
1.85552e-05
1.85635e-05
1.85718e-05
1.85803e-05
1.85886e-05
1.85967e-05
1.86048e-05
1.86129e-05
1.86209e-05
1.86287e-05
1.86364e-05
1.8644e-05
1.86513e-05
1.86588e-05
1.86661e-05
1.86733e-05
1.86808e-05
1.86883e-05
1.86953e-05
1.87022e-05
1.87091e-05
1.8716e-05
1.87229e-05
1.87299e-05
1.87366e-05
1.87433e-05
1.87498e-05
1.87562e-05
1.87628e-05
1.87695e-05
1.87759e-05
1.87822e-05
1.87883e-05
1.87946e-05
1.88007e-05
1.88067e-05
1.88126e-05
1.88185e-05
1.88244e-05
1.88304e-05
1.88363e-05
1.88419e-05
1.88474e-05
1.88531e-05
1.88586e-05
1.88641e-05
1.88694e-05
1.88748e-05
1.88801e-05
1.88853e-05
1.88905e-05
1.88956e-05
1.89005e-05
1.89053e-05
1.89102e-05
1.89151e-05
1.892e-05
1.89249e-05
1.89297e-05
1.89343e-05
1.89388e-05
1.89434e-05
1.8948e-05
1.89525e-05
1.8957e-05
1.89613e-05
1.89655e-05
1.89698e-05
1.89739e-05
1.8978e-05
1.89822e-05
1.89863e-05
1.89902e-05
1.89942e-05
1.89982e-05
1.90021e-05
1.9006e-05
1.90098e-05
1.90135e-05
1.90172e-05
1.90208e-05
1.90244e-05
1.90279e-05
1.90313e-05
1.90347e-05
1.9038e-05
1.90413e-05
1.90445e-05
1.90478e-05
1.9051e-05
1.90541e-05
1.90573e-05
1.90605e-05
1.90636e-05
1.90667e-05
1.90697e-05
1.90725e-05
1.90754e-05
1.90782e-05
1.9081e-05
1.90837e-05
1.90864e-05
1.9089e-05
1.90916e-05
1.90942e-05
1.90967e-05
1.90993e-05
1.91019e-05
1.91044e-05
1.91068e-05
1.91091e-05
1.91115e-05
1.91138e-05
1.9116e-05
1.91183e-05
1.91205e-05
1.91227e-05
1.91248e-05
1.91268e-05
1.91288e-05
1.91308e-05
1.91328e-05
1.91348e-05
1.91368e-05
1.91387e-05
1.91406e-05
1.91424e-05
1.91442e-05
1.9146e-05
1.91477e-05
1.91493e-05
1.9151e-05
1.91526e-05
1.91543e-05
1.91559e-05
1.91575e-05
1.9159e-05
1.91604e-05
1.91619e-05
1.91633e-05
1.91647e-05
1.9166e-05
1.91674e-05
1.91687e-05
1.917e-05
1.91712e-05
1.91725e-05
1.91737e-05
1.91749e-05
1.91761e-05
1.91772e-05
1.91783e-05
1.91794e-05
1.91804e-05
1.91814e-05
1.91824e-05
1.91834e-05
1.91844e-05
1.91854e-05
1.91863e-05
1.91872e-05
1.9188e-05
1.91888e-05
1.91896e-05
1.91904e-05
1.91912e-05
1.91919e-05
1.91926e-05
1.91934e-05
1.9194e-05
1.91947e-05
1.91953e-05
1.9196e-05
1.91966e-05
1.91972e-05
1.91978e-05
1.91984e-05
1.9199e-05
1.91995e-05
1.91999e-05
1.92004e-05
1.92008e-05
1.92012e-05
1.92016e-05
1.9202e-05
1.92024e-05
1.92028e-05
1.92032e-05
1.92035e-05
1.92038e-05
1.92041e-05
1.92044e-05
1.92046e-05
1.92049e-05
1.92051e-05
1.92053e-05
1.92055e-05
1.92057e-05
1.92059e-05
1.9206e-05
1.92062e-05
1.92063e-05
1.92064e-05
1.92065e-05
1.92066e-05
1.92067e-05
1.92067e-05
1.92068e-05
1.92068e-05
1.92068e-05
1.92068e-05
1.92068e-05
1.92068e-05
1.92068e-05
1.92068e-05
1.92067e-05
1.92067e-05
1.92066e-05
1.92065e-05
1.92064e-05
1.92063e-05
1.92062e-05
1.92061e-05
1.9206e-05
1.92058e-05
1.92057e-05
1.92055e-05
1.92054e-05
1.92052e-05
1.9205e-05
1.92049e-05
1.92047e-05
1.92044e-05
1.92042e-05
1.9204e-05
1.92037e-05
1.92034e-05
1.92032e-05
1.9203e-05
1.92027e-05
1.92025e-05
1.92022e-05
1.92019e-05
1.92017e-05
1.92014e-05
1.92011e-05
1.92008e-05
1.92005e-05
1.92002e-05
1.91999e-05
1.91996e-05
1.91992e-05
1.91989e-05
1.91986e-05
1.91982e-05
1.91979e-05
1.91975e-05
1.91972e-05
1.91968e-05
1.91964e-05
1.91961e-05
1.91957e-05
1.91954e-05
1.9195e-05
1.91947e-05
1.91943e-05
1.91939e-05
1.91935e-05
1.91931e-05
1.91928e-05
1.91924e-05
1.9192e-05
1.91916e-05
1.91912e-05
1.91909e-05
1.91905e-05
1.91901e-05
1.91897e-05
1.91893e-05
1.91889e-05
1.91885e-05
1.91881e-05
1.91877e-05
1.91872e-05
1.91868e-05
1.91863e-05
1.91859e-05
1.91855e-05
1.91851e-05
1.91847e-05
1.91842e-05
1.91838e-05
1.91834e-05
1.9183e-05
1.91826e-05
1.91823e-05
1.91819e-05
1.91815e-05
1.91811e-05
1.91808e-05
1.91804e-05
1.918e-05
1.91796e-05
1.91792e-05
1.91788e-05
1.91785e-05
1.91781e-05
1.91777e-05
1.91774e-05
1.9177e-05
1.91766e-05
1.91762e-05
1.91758e-05
1.91755e-05
1.91751e-05
1.91747e-05
1.91744e-05
1.9174e-05
1.91737e-05
1.91733e-05
1.9173e-05
1.91727e-05
1.91723e-05
1.9172e-05
1.91717e-05
1.91713e-05
1.9171e-05
1.91707e-05
1.91704e-05
1.91701e-05
1.91698e-05
1.91695e-05
1.91692e-05
1.91689e-05
1.91686e-05
1.91683e-05
1.91681e-05
1.91678e-05
1.91675e-05
1.91673e-05
1.9167e-05
1.91668e-05
1.91665e-05
1.91663e-05
1.9166e-05
1.91658e-05
1.91656e-05
1.91653e-05
1.91651e-05
1.91649e-05
1.91647e-05
1.91645e-05
1.91643e-05
1.91641e-05
1.91639e-05
1.91637e-05
1.91635e-05
1.91633e-05
1.91631e-05
1.9163e-05
1.91628e-05
1.91627e-05
1.91625e-05
1.91624e-05
1.91622e-05
1.91621e-05
1.9162e-05
1.91619e-05
1.91617e-05
1.91616e-05
1.91615e-05
1.91614e-05
1.91613e-05
1.91612e-05
1.91612e-05
1.91611e-05
1.9161e-05
1.91609e-05
1.91609e-05
1.91608e-05
1.91608e-05
1.91607e-05
1.91607e-05
1.91607e-05
1.91606e-05
1.91606e-05
1.91606e-05
1.91606e-05
1.91606e-05
1.84586e-05
1.84676e-05
1.84768e-05
1.84859e-05
1.84949e-05
1.85038e-05
1.85126e-05
1.85213e-05
1.853e-05
1.85385e-05
1.8547e-05
1.8555e-05
1.85633e-05
1.85721e-05
1.85805e-05
1.85886e-05
1.85966e-05
1.86047e-05
1.86127e-05
1.86209e-05
1.86288e-05
1.86365e-05
1.8644e-05
1.86513e-05
1.86588e-05
1.8666e-05
1.86733e-05
1.86808e-05
1.86881e-05
1.86953e-05
1.87024e-05
1.87092e-05
1.87159e-05
1.87228e-05
1.87298e-05
1.87366e-05
1.87431e-05
1.87497e-05
1.87564e-05
1.87631e-05
1.87695e-05
1.8776e-05
1.87823e-05
1.87884e-05
1.87945e-05
1.88006e-05
1.88066e-05
1.88125e-05
1.88185e-05
1.88245e-05
1.88304e-05
1.88363e-05
1.88419e-05
1.88475e-05
1.88531e-05
1.88586e-05
1.88641e-05
1.88695e-05
1.88748e-05
1.88801e-05
1.88853e-05
1.88905e-05
1.88955e-05
1.89004e-05
1.89052e-05
1.89102e-05
1.89151e-05
1.892e-05
1.89249e-05
1.89297e-05
1.89344e-05
1.89389e-05
1.89435e-05
1.89481e-05
1.89525e-05
1.8957e-05
1.89613e-05
1.89656e-05
1.89698e-05
1.8974e-05
1.89781e-05
1.89821e-05
1.89862e-05
1.89902e-05
1.89942e-05
1.89982e-05
1.90021e-05
1.9006e-05
1.90098e-05
1.90135e-05
1.90171e-05
1.90207e-05
1.90243e-05
1.90279e-05
1.90313e-05
1.90347e-05
1.90381e-05
1.90413e-05
1.90445e-05
1.90477e-05
1.90509e-05
1.90541e-05
1.90573e-05
1.90605e-05
1.90636e-05
1.90667e-05
1.90697e-05
1.90725e-05
1.90754e-05
1.90782e-05
1.9081e-05
1.90836e-05
1.90863e-05
1.9089e-05
1.90917e-05
1.90942e-05
1.90967e-05
1.90993e-05
1.91019e-05
1.91043e-05
1.91067e-05
1.91091e-05
1.91115e-05
1.91138e-05
1.91161e-05
1.91184e-05
1.91206e-05
1.91227e-05
1.91248e-05
1.91269e-05
1.91289e-05
1.91309e-05
1.91329e-05
1.91348e-05
1.91368e-05
1.91387e-05
1.91406e-05
1.91424e-05
1.91442e-05
1.9146e-05
1.91477e-05
1.91494e-05
1.9151e-05
1.91527e-05
1.91543e-05
1.91559e-05
1.91574e-05
1.91589e-05
1.91604e-05
1.91619e-05
1.91633e-05
1.91647e-05
1.9166e-05
1.91674e-05
1.91687e-05
1.917e-05
1.91713e-05
1.91725e-05
1.91737e-05
1.91749e-05
1.91761e-05
1.91772e-05
1.91784e-05
1.91794e-05
1.91804e-05
1.91814e-05
1.91824e-05
1.91834e-05
1.91844e-05
1.91854e-05
1.91863e-05
1.91872e-05
1.9188e-05
1.91888e-05
1.91896e-05
1.91904e-05
1.91912e-05
1.91919e-05
1.91926e-05
1.91933e-05
1.9194e-05
1.91947e-05
1.91954e-05
1.9196e-05
1.91967e-05
1.91973e-05
1.91979e-05
1.91984e-05
1.91989e-05
1.91994e-05
1.91999e-05
1.92003e-05
1.92008e-05
1.92012e-05
1.92016e-05
1.9202e-05
1.92024e-05
1.92028e-05
1.92031e-05
1.92035e-05
1.92038e-05
1.92041e-05
1.92044e-05
1.92046e-05
1.92049e-05
1.92051e-05
1.92053e-05
1.92055e-05
1.92057e-05
1.92059e-05
1.9206e-05
1.92062e-05
1.92063e-05
1.92064e-05
1.92065e-05
1.92066e-05
1.92067e-05
1.92067e-05
1.92068e-05
1.92068e-05
1.92068e-05
1.92068e-05
1.92068e-05
1.92068e-05
1.92068e-05
1.92068e-05
1.92067e-05
1.92067e-05
1.92066e-05
1.92065e-05
1.92064e-05
1.92063e-05
1.92062e-05
1.92061e-05
1.9206e-05
1.92058e-05
1.92057e-05
1.92055e-05
1.92054e-05
1.92052e-05
1.9205e-05
1.92048e-05
1.92046e-05
1.92044e-05
1.92042e-05
1.92039e-05
1.92037e-05
1.92034e-05
1.92032e-05
1.9203e-05
1.92027e-05
1.92025e-05
1.92022e-05
1.92019e-05
1.92017e-05
1.92014e-05
1.92011e-05
1.92008e-05
1.92005e-05
1.92002e-05
1.91999e-05
1.91996e-05
1.91992e-05
1.91989e-05
1.91986e-05
1.91982e-05
1.91979e-05
1.91975e-05
1.91971e-05
1.91968e-05
1.91964e-05
1.91961e-05
1.91958e-05
1.91954e-05
1.9195e-05
1.91947e-05
1.91943e-05
1.91939e-05
1.91935e-05
1.91931e-05
1.91928e-05
1.91924e-05
1.9192e-05
1.91916e-05
1.91913e-05
1.91909e-05
1.91905e-05
1.91901e-05
1.91897e-05
1.91893e-05
1.91889e-05
1.91885e-05
1.91881e-05
1.91876e-05
1.91872e-05
1.91867e-05
1.91863e-05
1.91859e-05
1.91855e-05
1.91851e-05
1.91847e-05
1.91843e-05
1.91838e-05
1.91834e-05
1.9183e-05
1.91827e-05
1.91823e-05
1.91819e-05
1.91815e-05
1.91811e-05
1.91808e-05
1.91804e-05
1.918e-05
1.91796e-05
1.91792e-05
1.91788e-05
1.91785e-05
1.91781e-05
1.91777e-05
1.91773e-05
1.91769e-05
1.91766e-05
1.91762e-05
1.91758e-05
1.91755e-05
1.91751e-05
1.91747e-05
1.91744e-05
1.9174e-05
1.91737e-05
1.91733e-05
1.9173e-05
1.91727e-05
1.91723e-05
1.9172e-05
1.91717e-05
1.91713e-05
1.9171e-05
1.91707e-05
1.91704e-05
1.91701e-05
1.91698e-05
1.91695e-05
1.91692e-05
1.91689e-05
1.91686e-05
1.91683e-05
1.91681e-05
1.91678e-05
1.91675e-05
1.91673e-05
1.9167e-05
1.91668e-05
1.91665e-05
1.91663e-05
1.9166e-05
1.91658e-05
1.91656e-05
1.91653e-05
1.91651e-05
1.91649e-05
1.91647e-05
1.91645e-05
1.91643e-05
1.91641e-05
1.91639e-05
1.91637e-05
1.91635e-05
1.91633e-05
1.91631e-05
1.9163e-05
1.91628e-05
1.91627e-05
1.91625e-05
1.91624e-05
1.91622e-05
1.91621e-05
1.9162e-05
1.91619e-05
1.91617e-05
1.91616e-05
1.91615e-05
1.91614e-05
1.91613e-05
1.91612e-05
1.91612e-05
1.91611e-05
1.9161e-05
1.91609e-05
1.91609e-05
1.91608e-05
1.91608e-05
1.91607e-05
1.91607e-05
1.91607e-05
1.91606e-05
1.91606e-05
1.91606e-05
1.91606e-05
1.91606e-05
1.84586e-05
1.84674e-05
1.84765e-05
1.84859e-05
1.84948e-05
1.85039e-05
1.85128e-05
1.85215e-05
1.853e-05
1.85384e-05
1.85469e-05
1.85551e-05
1.85634e-05
1.85721e-05
1.85805e-05
1.85887e-05
1.85968e-05
1.86046e-05
1.86126e-05
1.86206e-05
1.86287e-05
1.86365e-05
1.86441e-05
1.86514e-05
1.86587e-05
1.86662e-05
1.86734e-05
1.86807e-05
1.86879e-05
1.86952e-05
1.87024e-05
1.87092e-05
1.8716e-05
1.87228e-05
1.87297e-05
1.87365e-05
1.87431e-05
1.87498e-05
1.87565e-05
1.87631e-05
1.87696e-05
1.8776e-05
1.87822e-05
1.87883e-05
1.87945e-05
1.88006e-05
1.88066e-05
1.88125e-05
1.88185e-05
1.88245e-05
1.88305e-05
1.88362e-05
1.88419e-05
1.88475e-05
1.88531e-05
1.88586e-05
1.88641e-05
1.88695e-05
1.88748e-05
1.888e-05
1.88853e-05
1.88904e-05
1.88955e-05
1.89004e-05
1.89052e-05
1.89102e-05
1.89151e-05
1.892e-05
1.89249e-05
1.89297e-05
1.89344e-05
1.8939e-05
1.89437e-05
1.89481e-05
1.89525e-05
1.8957e-05
1.89614e-05
1.89656e-05
1.89698e-05
1.89739e-05
1.89781e-05
1.89822e-05
1.89862e-05
1.89902e-05
1.89942e-05
1.89982e-05
1.90021e-05
1.9006e-05
1.90098e-05
1.90135e-05
1.90171e-05
1.90207e-05
1.90243e-05
1.90279e-05
1.90313e-05
1.90347e-05
1.9038e-05
1.90413e-05
1.90446e-05
1.90477e-05
1.90509e-05
1.90541e-05
1.90573e-05
1.90606e-05
1.90637e-05
1.90667e-05
1.90696e-05
1.90725e-05
1.90754e-05
1.90782e-05
1.9081e-05
1.90836e-05
1.90863e-05
1.9089e-05
1.90917e-05
1.90942e-05
1.90967e-05
1.90992e-05
1.91018e-05
1.91043e-05
1.91067e-05
1.91091e-05
1.91115e-05
1.91138e-05
1.91161e-05
1.91184e-05
1.91206e-05
1.91227e-05
1.91248e-05
1.91269e-05
1.91289e-05
1.91309e-05
1.91329e-05
1.91348e-05
1.91367e-05
1.91387e-05
1.91406e-05
1.91425e-05
1.91443e-05
1.9146e-05
1.91477e-05
1.91493e-05
1.9151e-05
1.91527e-05
1.91543e-05
1.91559e-05
1.91574e-05
1.91589e-05
1.91604e-05
1.91618e-05
1.91633e-05
1.91647e-05
1.9166e-05
1.91674e-05
1.91687e-05
1.917e-05
1.91712e-05
1.91725e-05
1.91737e-05
1.91749e-05
1.91761e-05
1.91773e-05
1.91784e-05
1.91794e-05
1.91804e-05
1.91814e-05
1.91824e-05
1.91834e-05
1.91844e-05
1.91854e-05
1.91863e-05
1.91871e-05
1.9188e-05
1.91888e-05
1.91896e-05
1.91904e-05
1.91911e-05
1.91919e-05
1.91926e-05
1.91933e-05
1.9194e-05
1.91947e-05
1.91953e-05
1.9196e-05
1.91967e-05
1.91974e-05
1.91979e-05
1.91984e-05
1.91989e-05
1.91994e-05
1.91999e-05
1.92003e-05
1.92008e-05
1.92012e-05
1.92016e-05
1.9202e-05
1.92024e-05
1.92028e-05
1.92031e-05
1.92035e-05
1.92038e-05
1.92041e-05
1.92044e-05
1.92046e-05
1.92049e-05
1.92051e-05
1.92053e-05
1.92055e-05
1.92057e-05
1.92059e-05
1.9206e-05
1.92062e-05
1.92063e-05
1.92064e-05
1.92065e-05
1.92066e-05
1.92067e-05
1.92067e-05
1.92068e-05
1.92068e-05
1.92068e-05
1.92068e-05
1.92068e-05
1.92068e-05
1.92068e-05
1.92068e-05
1.92067e-05
1.92067e-05
1.92066e-05
1.92065e-05
1.92064e-05
1.92063e-05
1.92062e-05
1.92061e-05
1.9206e-05
1.92058e-05
1.92057e-05
1.92055e-05
1.92054e-05
1.92052e-05
1.9205e-05
1.92048e-05
1.92046e-05
1.92044e-05
1.92042e-05
1.92039e-05
1.92037e-05
1.92034e-05
1.92032e-05
1.9203e-05
1.92027e-05
1.92025e-05
1.92022e-05
1.92019e-05
1.92017e-05
1.92014e-05
1.92011e-05
1.92008e-05
1.92005e-05
1.92002e-05
1.91999e-05
1.91996e-05
1.91992e-05
1.91989e-05
1.91986e-05
1.91982e-05
1.91979e-05
1.91975e-05
1.91971e-05
1.91968e-05
1.91964e-05
1.91961e-05
1.91958e-05
1.91954e-05
1.9195e-05
1.91947e-05
1.91943e-05
1.91939e-05
1.91935e-05
1.91932e-05
1.91928e-05
1.91924e-05
1.9192e-05
1.91916e-05
1.91913e-05
1.91909e-05
1.91905e-05
1.91901e-05
1.91897e-05
1.91893e-05
1.91889e-05
1.91885e-05
1.9188e-05
1.91876e-05
1.91871e-05
1.91867e-05
1.91863e-05
1.91859e-05
1.91855e-05
1.91851e-05
1.91847e-05
1.91843e-05
1.91839e-05
1.91834e-05
1.91831e-05
1.91827e-05
1.91823e-05
1.91819e-05
1.91815e-05
1.91811e-05
1.91808e-05
1.91804e-05
1.918e-05
1.91796e-05
1.91792e-05
1.91788e-05
1.91785e-05
1.91781e-05
1.91777e-05
1.91773e-05
1.91769e-05
1.91766e-05
1.91762e-05
1.91758e-05
1.91755e-05
1.91751e-05
1.91748e-05
1.91744e-05
1.9174e-05
1.91737e-05
1.91733e-05
1.9173e-05
1.91727e-05
1.91723e-05
1.9172e-05
1.91717e-05
1.91713e-05
1.9171e-05
1.91707e-05
1.91704e-05
1.91701e-05
1.91698e-05
1.91695e-05
1.91692e-05
1.91689e-05
1.91686e-05
1.91684e-05
1.91681e-05
1.91678e-05
1.91675e-05
1.91673e-05
1.9167e-05
1.91668e-05
1.91665e-05
1.91663e-05
1.9166e-05
1.91658e-05
1.91656e-05
1.91653e-05
1.91651e-05
1.91649e-05
1.91647e-05
1.91645e-05
1.91643e-05
1.91641e-05
1.91639e-05
1.91637e-05
1.91635e-05
1.91633e-05
1.91631e-05
1.9163e-05
1.91628e-05
1.91627e-05
1.91625e-05
1.91624e-05
1.91622e-05
1.91621e-05
1.9162e-05
1.91619e-05
1.91617e-05
1.91616e-05
1.91615e-05
1.91614e-05
1.91613e-05
1.91612e-05
1.91612e-05
1.91611e-05
1.9161e-05
1.91609e-05
1.91609e-05
1.91608e-05
1.91608e-05
1.91607e-05
1.91607e-05
1.91607e-05
1.91606e-05
1.91606e-05
1.91606e-05
1.91606e-05
1.91606e-05
1.84586e-05
1.84675e-05
1.84765e-05
1.84856e-05
1.84947e-05
1.85038e-05
1.85128e-05
1.85216e-05
1.85301e-05
1.85386e-05
1.85469e-05
1.85552e-05
1.85637e-05
1.85722e-05
1.85805e-05
1.85887e-05
1.85967e-05
1.86047e-05
1.86126e-05
1.86205e-05
1.86286e-05
1.86365e-05
1.86439e-05
1.86513e-05
1.86587e-05
1.86662e-05
1.86735e-05
1.86808e-05
1.8688e-05
1.86952e-05
1.87024e-05
1.87093e-05
1.8716e-05
1.87228e-05
1.87296e-05
1.87364e-05
1.87432e-05
1.87499e-05
1.87565e-05
1.8763e-05
1.87695e-05
1.8776e-05
1.87822e-05
1.87883e-05
1.87945e-05
1.88006e-05
1.88066e-05
1.88125e-05
1.88185e-05
1.88245e-05
1.88305e-05
1.88362e-05
1.88419e-05
1.88476e-05
1.88531e-05
1.88586e-05
1.8864e-05
1.88694e-05
1.88747e-05
1.888e-05
1.88852e-05
1.88903e-05
1.88954e-05