/*--------------------------------*- C++ -*----------------------------------*\
  =========                 |
  \\      /  F ield         | OpenFOAM: The Open Source CFD Toolbox
   \\    /   O peration     | Website:  https://openfoam.org
    \\  /    A nd           | Version:  7
     \\/     M anipulation  |
\*---------------------------------------------------------------------------*/
FoamFile
{
    version     2.0;
    format      ascii;
    class       volScalarField;
    location    "5000";
    object      muTotal;
}
// * * * * * * * * * * * * * * * * * * * * * * * * * * * * * * * * * * * * * //

dimensions      [1 -1 -1 0 0 0 0];

internalField   nonuniform List<scalar> 
160000
(
0.000484313
0.00048225
0.000446908
0.000444986
0.000416563
0.000422945
0.000494884
0.000524877
0.000475592
0.000458998
0.00044181
0.000430834
0.000431163
0.000428145
0.000426445
0.000454353
0.000472065
0.000470286
0.000468211
0.00046639
0.000464644
0.000408157
0.000406679
0.000436556
0.000452857
0.000394222
0.000385486
0.00038409
0.00038274
0.000381402
0.000422398
0.000451547
0.00045004
0.000448501
0.000447081
0.000390038
0.000388743
0.000387459
0.000386235
0.000421634
0.000429714
0.000428392
0.000372531
0.000361529
0.000360433
0.000359308
0.000436233
0.000437438
0.000436186
0.000434962
0.000365567
0.000344695
0.000343693
0.000342766
0.000341786
0.000340901
0.000400217
0.000399168
0.000373927
0.000371542
0.000383204
0.000390957
0.000389992
0.000389052
0.000385947
0.000385013
0.000384089
0.000383127
0.000382229
0.000323811
0.000323059
0.0003223
0.000321572
0.000320858
0.000361254
0.000382671
0.0003852
0.000382656
0.000385824
0.000385017
0.00038422
0.000383411
0.000382625
0.000367417
0.000355465
0.000354765
0.000354078
0.000353424
0.000352799
0.000352123
0.000351018
0.000350368
0.000349744
0.000356664
0.000356066
0.00034543
0.000345675
0.000370337
0.000370351
0.000369741
0.000369167
0.00035621
0.000355633
0.000355078
0.000333225
0.000332706
0.000332239
0.000331748
0.000331279
0.000364109
0.000369861
0.000369268
0.000368784
0.000368294
0.000350211
0.000349767
0.000336559
0.000325253
0.00033387
0.000371858
0.000371389
0.000356333
0.000355936
0.000355499
0.00035512
0.000359939
0.000364783
0.00036439
0.000364014
0.000363635
0.000363272
0.000343237
0.000332245
0.000331899
0.00033156
0.00033124
0.000330939
0.000331401
0.000331109
0.000328057
0.000330892
0.00033057
0.00032722
0.000326915
0.000326684
0.000326375
0.000326167
0.000337219
0.000348993
0.000348746
0.000319858
0.000319637
0.000319405
0.000319207
0.000317858
0.00031766
0.000317434
0.000337197
0.000336971
0.000336776
0.00031668
0.000315983
0.000317718
0.000341616
0.000331862
0.000311555
0.000311396
0.00028919
0.000289048
0.000288917
0.000305757
0.000374328
0.000374164
0.000374014
0.000373109
0.000326504
0.000326381
0.000331743
0.000348916
0.000348836
0.00034867
0.000348561
0.000348435
0.000325805
0.0003184
0.000321745
0.00032166
0.000319609
0.000259204
0.000240416
0.000270686
0.000288289
0.000315477
0.000352106
0.000352045
0.000290878
0.000209269
0.000268401
0.000463075
0.000463062
0.000462926
0.000462876
0.000423383
0.000314726
0.000272731
0.00027269
0.000318864
0.000364527
0.000364435
0.000364423
0.000364376
0.000364353
0.000359874
0.000353158
0.0003506
0.000342007
0.000323896
0.000323887
0.000334905
0.000358948
0.000358991
0.000358945
0.000358944
0.000311287
0.000307257
0.000307272
0.00030724
0.00030729
0.000314376
0.000339039
0.00033905
0.000331306
0.000317282
0.000317313
0.000317309
0.000317355
0.000317349
0.000340891
0.00035762
0.00035765
0.000357681
0.000331161
0.000327249
0.00030708
0.000274956
0.000211135
0.000178067
0.000178091
0.000203961
0.00043751
0.000469101
0.000469195
0.000469218
0.000420943
0.000348349
0.000327681
0.000321443
0.00028118
0.000281216
0.000281266
0.000345307
0.000346852
0.000346909
0.000318965
0.000304965
0.000316373
0.000316433
0.000298133
0.000257587
0.000257632
0.00035121
0.000376364
0.000376393
0.000376492
0.000369587
0.000296609
0.000296669
0.000296689
0.000332262
0.000332272
0.00033225
0.00028681
0.000285897
0.000285971
0.000295109
0.000367186
0.000367217
0.000367289
0.000337856
0.000337126
0.000337194
0.000329582
0.000329657
0.000330176
0.000363619
0.000363692
0.000363765
0.000263417
0.000183601
0.000126111
0.000126165
0.000191106
0.000492375
0.000492628
0.00049256
0.000492721
0.000492722
0.000447393
0.000381039
0.000313291
0.000290275
0.000284668
0.000277016
0.000277071
0.000291134
0.000357638
0.000357643
0.000357767
0.000352224
0.00030308
0.000267694
0.000229037
0.000202765
0.00020285
0.00020282
0.00020294
0.000281544
0.000375084
0.000380618
0.000380678
0.000372178
0.000361409
0.00036146
0.000361511
0.000355007
0.000333587
0.000287933
0.000269946
0.000269978
0.000319341
0.000335238
0.00033529
0.000335331
0.000282508
0.00028255
0.000282591
0.00028263
0.000329683
0.000378204
0.000378411
0.000378301
0.00037665
0.000324136
0.000315561
0.0003156
0.00031865
0.000362952
0.000362917
0.000363036
0.000362999
0.0003609
0.000320297
0.000317482
0.000315252
0.000315238
0.000315315
0.000315247
0.000315376
0.000335716
0.000366292
0.00036632
0.00036635
0.000362194
0.000362255
0.000352558
0.000352588
0.00034482
0.000321136
0.000321154
0.000321171
0.000339546
0.000358951
0.000345013
0.000345052
0.000345011
0.000345078
0.000345025
0.000345075
0.000343672
0.000312112
0.000305935
0.000280898
0.000273872
0.000260895
0.000207947
0.000207941
0.000258294
0.000269474
0.000284883
0.00028493
0.00046524
0.000463263
0.000509844
0.000453855
0.000433157
0.000423364
0.000421598
0.000442003
0.000453322
0.000461547
0.000459641
0.000448603
0.000429925
0.000428206
0.000426467
0.00045689
0.000472078
0.000422637
0.000420971
0.000419348
0.000433801
0.000408732
0.000456095
0.000454439
0.00045285
0.000386929
0.000385517
0.000384107
0.000382721
0.000427784
0.000427388
0.000425969
0.00043852
0.000448512
0.000447068
0.000390039
0.000388712
0.000387476
0.000390337
0.000431071
0.00042969
0.000428382
0.000405419
0.000361526
0.000360435
0.00035931
0.000358226
0.000393178
0.000436212
0.000434926
0.000397434
0.000352909
0.000397639
0.000397368
0.000396271
0.000369153
0.000400239
0.000385718
0.000372469
0.000371512
0.00037055
0.000390973
0.0003889
0.000379249
0.000378332
0.000382018
0.000360987
0.000360128
0.00035927
0.000365993
0.000365133
0.000364285
0.000340053
0.000350508
0.000384982
0.000386029
0.000385207
0.000375224
0.000345875
0.000354178
0.000381577
0.000365541
0.00036038
0.000359671
0.000358958
0.000358232
0.000357544
0.000352946
0.00035227
0.000351654
0.00035098
0.000350376
0.000357446
0.000356827
0.00034601
0.000345429
0.000371571
0.000370961
0.000370356
0.00036935
0.000369161
0.000368585
0.000330379
0.000329851
0.00035047
0.00033272
0.000360659
0.000371469
0.00037091
0.000370399
0.000369857
0.000350554
0.00033672
0.000332745
0.000329985
0.000329558
0.000325652
0.000325239
0.000348512
0.000371886
0.000371407
0.00037099
0.00037054
0.000370116
0.000365638
0.000365199
0.00036479
0.000359752
0.000364012
0.000363637
0.00036327
0.000332579
0.000332247
0.000331898
0.000341737
0.000331164
0.00033296
0.000332667
0.000328326
0.000328057
0.000327749
0.000327494
0.000327189
0.000329749
0.000347254
0.000346974
0.00034953
0.000349272
0.000349002
0.000326927
0.000326695
0.000326468
0.000318286
0.000318054
0.000317861
0.000317627
0.000317451
0.000317239
0.000314943
0.000314764
0.000314571
0.000315981
0.000341797
0.00034162
0.000315173
0.000311557
0.000316068
0.000296305
0.000288407
0.000311826
0.000351137
0.000374323
0.000334191
0.000334052
0.000342017
0.000346402
0.000349181
0.000349044
0.000348926
0.00034879
0.000348678
0.000348557
0.000348307
0.000289634
0.000289537
0.000300306
0.000269603
0.000187755
0.000147604
0.000147564
0.000283075
0.000454461
0.000448013
0.000370935
0.000264813
0.000209309
0.000209267
0.000270764
0.00046312
0.00046299
0.000462933
0.00041113
0.000333687
0.000278257
0.000272721
0.000301371
0.000364566
0.000364468
0.000364465
0.000364404
0.000360506
0.000341274
0.000322895
0.000329844
0.000335046
0.000322191
0.000323887
0.000350674
0.000358952
0.000358957
0.000358917
0.000330623
0.000309089
0.000307266
0.000307269
0.000307237
0.000307282
0.000307248
0.000307311
0.000307266
0.000357939
0.000364122
0.000364162
0.000364164
0.00036419
0.000317345
0.000327151
0.000357591
0.00035762
0.000357649
0.000349641
0.000298308
0.00029013
0.000269911
0.000176104
0.000150326
0.000150366
0.000387474
0.000469018
0.000469043
0.000469136
0.000460989
0.00038701
0.000361155
0.000346571
0.000313628
0.000281152
0.000281177
0.000314556
0.000346753
0.000346807
0.000346866
0.000307681
0.000304916
0.000304961
0.000305009
0.00030624
0.000257513
0.000257557
0.000372118
0.000376299
0.000376327
0.00037643
0.000376459
0.000331554
0.000296617
0.000296632
0.000296731
0.000296743
0.000304858
0.000291404
0.000286812
0.00029531
0.000367026
0.000367125
0.000367158
0.000367236
0.000354242
0.000339313
0.000333401
0.000316191
0.000329557
0.000373986
0.000374073
0.000306654
0.000263949
0.000266299
0.000207611
0.000126087
0.00012614
0.00012614
0.000289469
0.000492528
0.000492453
0.00047749
0.000398703
0.000339794
0.000314944
0.000306568
0.000290657
0.000276906
0.000276956
0.000277011
0.000296607
0.000357571
0.000357571
0.000357691
0.000343959
0.000285075
0.000250833
0.000219125
0.000202794
0.000202815
0.000295699
0.00040317
0.000403208
0.00040332
0.00038153
0.000380631
0.000362009
0.000313722
0.000306561
0.000315219
0.000326652
0.000335853
0.00033346
0.000302153
0.00029636
0.000320302
0.000331179
0.000327879
0.000327925
0.000328935
0.000282509
0.00028255
0.000282592
0.000314549
0.000378152
0.000378363
0.000378254
0.000378319
0.000345662
0.000315522
0.000315561
0.0003156
0.000330699
0.00032876
0.00033161
0.00035959
0.000363006
0.000353673
0.000328197
0.00031519
0.000315171
0.000371444
0.000371397
0.000371536
0.000371464
0.000371543
0.000360841
0.000344126
0.00033735
0.000337823
0.00032194
0.000321241
0.000321109
0.000321127
0.000321135
0.000331903
0.000346775
0.000362654
0.000362671
0.000362691
0.000362709
0.000346262
0.000346273
0.000346287
0.000316969
0.000312059
0.000312063
0.000312075
0.000299384
0.000299375
0.000271304
0.000207938
0.000236109
0.000235666
0.000268805
0.000284929
0.000284976
0.000465272
0.00046331
0.000509851
0.00049836
0.000496247
0.000447293
0.000440433
0.000469512
0.000450326
0.000448521
0.000446667
0.000448528
0.00042994
0.000428244
0.000431854
0.000449967
0.000472042
0.000470196
0.000420965
0.000419357
0.000417776
0.000457728
0.000456062
0.000431339
0.000425287
0.000423789
0.000424683
0.000406084
0.000434964
0.000433446
0.000395188
0.000414437
0.000441235
0.000448506
0.000418331
0.00039262
0.000425298
0.000423938
0.000416351
0.000391031
0.00038112
0.00038289
0.00040066
0.000404068
0.000406998
0.000405752
0.000378736
0.00037767
0.000376598
0.000404935
0.000403747
0.000376691
0.000372229
0.000371199
0.000370167
0.000369175
0.000385845
0.000409578
0.000408493
0.000407436
0.000354388
0.000351598
0.000388063
0.000387119
0.000385701
0.000384756
0.000383818
0.000382904
0.000359257
0.000358412
0.00035717
0.000356352
0.000360739
0.000359946
0.00034881
0.000348062
0.000347286
0.000346587
0.00034582
0.000380252
0.000380835
0.000380047
0.000379271
0.000374596
0.000360746
0.000343625
0.000351896
0.000364052
0.000363366
0.00035163
0.000351001
0.000353866
0.000348253
0.000347634
0.00034704
0.000323522
0.000322988
0.000322462
0.000335418
0.000338494
0.000332695
0.000362685
0.000346745
0.000324563
0.000350467
0.000370521
0.000373854
0.000351624
0.000351126
0.000350615
0.000350134
0.000353687
0.00035404
0.000342045
0.000341602
0.000339284
0.000325647
0.000337369
0.00036338
0.000366686
0.000341818
0.000332326
0.000331943
0.000337503
0.000352474
0.000345077
0.000330967
0.000330611
0.00033026
0.000331811
0.000339957
0.00036215
0.000361781
0.000361415
0.000342372
0.000331157
0.000328925
0.000328605
0.000328332
0.000328032
0.000338775
0.000350043
0.000349757
0.000325336
0.000325056
0.000324804
0.000328804
0.000349267
0.000349013
0.000321057
0.000320825
0.000320607
0.000320386
0.000331522
0.000331296
0.000331085
0.000328078
0.000339686
0.000339484
0.000338672
0.000314583
0.000314393
0.000314229
0.000341615
0.000341454
0.000341285
0.000323154
0.000282246
0.000278204
0.000292203
0.000370851
0.000374317
0.000374155
0.000374002
0.000334325
0.00032404
0.000323912
0.000323786
0.000323661
0.000344209
0.000348673
0.000339297
0.000315522
0.000294669
0.000235516
0.000174404
0.000147637
0.000147599
0.000147559
0.000283787
0.00050795
0.000502252
0.000438949
0.000353528
0.000269255
0.000214447
0.000209267
0.000243867
0.000338724
0.000374834
0.000342727
0.000287535
0.000265692
0.000291196
0.000340024
0.000364536
0.000364503
0.00034334
0.000335502
0.000335484
0.000342607
0.000320523
0.000320503
0.000320484
0.00032047
0.000321598
0.000346923
0.000358942
0.000358944
0.000328003
0.000307277
0.000307285
0.000307266
0.000307276
0.000337489
0.000350014
0.000325183
0.00031169
0.000336851
0.000356589
0.000360284
0.000364145
0.000364142
0.000332585
0.000289174
0.000320884
0.000338921
0.000331421
0.000331447
0.000331475
0.000345717
0.000339153
0.000259669
0.000172317
0.00015031
0.000150332
0.000150342
0.000399319
0.000468984
0.000469076
0.000463337
0.000356907
0.00030984
0.00030093
0.000296094
0.00028601
0.000281149
0.000281194
0.000325049
0.000346752
0.000346795
0.000305622
0.00030126
0.000305991
0.000313105
0.000284473
0.000257099
0.000257494
0.000346917
0.000376618
0.000358763
0.000351882
0.000351938
0.000352006
0.000327148
0.000296612
0.000296674
0.000296691
0.000296792
0.000317742
0.000366844
0.000366918
0.000366972
0.000367048
0.000353115
0.000327406
0.000328162
0.000352008
0.000351687
0.000336617
0.000291947
0.000230888
0.000169198
0.000133276
0.000133282
0.000133299
0.000133323
0.000126081
0.000126118
0.000127882
0.000370185
0.000489952
0.000490085
0.000397816
0.000328134
0.000311529
0.000311584
0.000335035
0.000319926
0.000291835
0.000284057
0.000291659
0.000308735
0.000345317
0.000357497
0.00035515
0.000314317
0.000287121
0.000268864
0.000232583
0.000210456
0.000210425
0.000376077
0.000403094
0.000403134
0.000403246
0.000383568
0.000339732
0.000332395
0.000323623
0.000306509
0.000306548
0.000346471
0.000346527
0.000345144
0.000338289
0.000317402
0.000316674
0.000341157
0.000361341
0.000358538
0.000331446
0.000291163
0.000290526
0.000327382
0.00036885
0.000378093
0.000378296
0.000378203
0.000374725
0.000332221
0.000338341
0.000351286
0.000351331
0.000351374
0.000341766
0.000319048
0.000335424
0.000359603
0.00035769
0.000325339
0.000315157
0.000315118
0.000315198
0.000371361
0.000371447
0.00037143
0.000371467
0.000364382
0.000336201
0.00033624
0.000336278
0.000337744
0.000386307
0.000389955
0.00038998
0.000390005
0.000369016
0.000325205
0.000325209
0.000325242
0.000325245
0.000326788
0.0003627
0.000362718
0.000340258
0.000340237
0.000340271
0.000340241
0.000337066
0.000288618
0.000288614
0.000288619
0.000279238
0.000276775
0.000273906
0.000235557
0.000251688
0.000284975
0.000285022
0.0004664
0.000487287
0.000484343
0.000482505
0.00048782
0.00048576
0.000464742
0.000469498
0.00045113
0.000459424
0.000457569
0.000453569
0.000448369
0.000428254
0.00042652
0.000424844
0.000423197
0.000427673
0.000421437
0.00043076
0.000413818
0.000412281
0.000410781
0.000418625
0.000451456
0.000449863
0.000434183
0.00043653
0.000434954
0.000379903
0.000378401
0.000377148
0.00037589
0.000374635
0.000373368
0.000435166
0.000433748
0.000410731
0.00038358
0.00038234
0.000381099
0.0003799
0.000380149
0.000385129
0.000407002
0.000405772
0.000404589
0.000403419
0.000396651
0.000376208
0.000375114
0.000374025
0.000372219
0.000372869
0.00037574
0.000374721
0.000364466
0.000363505
0.000354203
0.000353289
0.000352387
0.000351585
0.000395768
0.0003685
0.000367624
0.000366589
0.000344435
0.00031572
0.000382981
0.000382949
0.000382073
0.000336437
0.000324766
0.000364818
0.000380519
0.000379639
0.00037884
0.000378035
0.000377252
0.00034776
0.000347076
0.000346324
0.000345663
0.000344942
0.000344316
0.00034357
0.000342959
0.000342258
0.000362398
0.000361721
0.000354028
0.000353879
0.000353245
0.000347683
0.000328121
0.000354527
0.000348806
0.000322464
0.000321953
0.000321427
0.000320924
0.000290007
0.000289567
0.000306601
0.000346463
0.000379727
0.000380849
0.000377277
0.000376741
0.000376207
0.000355005
0.000354524
0.000354046
0.00033341
0.000326481
0.000326059
0.00032565
0.000325219
0.000356325
0.000353412
0.000336554
0.000336156
0.000335762
0.000324178
0.000323815
0.000323445
0.000334191
0.000333824
0.000330257
0.000334948
0.000335672
0.000339414
0.000327195
0.000311753
0.000303715
0.000331006
0.000339975
0.000347569
0.000349254
0.000366306
0.000371812
0.000350046
0.000325607
0.000325307
0.000325069
0.000324775
0.000324545
0.000348227
0.00033511
0.000335798
0.000335556
0.000335325
0.000333841
0.000315039
0.000311919
0.00031171
0.000311515
0.000311312
0.00031113
0.00030856
0.000321544
0.000332444
0.000348014
0.000360713
0.000334235
0.000293929
0.000279412
0.000276364
0.000278171
0.000352766
0.000370837
0.000362945
0.000348178
0.000348032
0.000347965
0.000347829
0.000347693
0.000332688
0.000307424
0.000312579
0.000348672
0.00032717
0.000261277
0.00022443
0.0001889
0.000158269
0.000147635
0.00017209
0.000434083
0.000525961
0.000522564
0.00045527
0.000394589
0.000382481
0.000357839
0.000289246
0.000234023
0.000233985
0.000261793
0.000298402
0.000300215
0.000264241
0.00026421
0.000264164
0.000315193
0.000364534
0.000364497
0.000349931
0.000346739
0.000346708
0.000330885
0.000320524
0.000320504
0.000343206
0.000353571
0.000353548
0.000353537
0.000347754
0.000326477
0.000307293
0.000307293
0.000307271
0.000335668
0.000367525
0.000367529
0.000367536
0.000349756
0.000325544
0.000309668
0.000309683
0.000314769
0.000347774
0.00033409
0.00028066
0.000271181
0.000322257
0.000357351
0.000369435
0.000369465
0.000367441
0.000341717
0.000271231
0.000191207
0.000150295
0.000150315
0.000150328
0.000192777
0.000456814
0.000469018
0.000469014
0.000366952
0.000315762
0.000304868
0.000290691
0.000285976
0.000286011
0.000295007
0.000334818
0.000346706
0.000346762
0.000323862
0.000291229
0.00030124
0.000324117
0.000324174
0.000300845
0.000257098
0.00025713
0.000289441
0.00037661
0.000376715
0.000376742
0.000376848
0.00036581
0.000296566
0.000296622
0.000296646
0.000296735
0.000319534
0.000387698
0.00038777
0.000363558
0.000327704
0.000315423
0.000315482
0.000327407
0.000329662
0.000339002
0.000344607
0.000329303
0.000255822
0.00016293
0.00013327
0.000133285
0.000133303
0.000133306
0.00033211
0.000420591
0.000434513
0.000434629
0.000433003
0.000324734
0.000334668
0.000324625
0.000337587
0.000362343
0.000371929
0.000369671
0.000350501
0.00033344
0.000323279
0.000303866
0.000303913
0.000312865
0.000355877
0.000356419
0.000333344
0.000284281
0.000222953
0.000210452
0.000210451
0.000327138
0.000403019
0.000403058
0.000403158
0.000354413
0.000304911
0.000291432
0.000310335
0.000335409
0.000324118
0.000295954
0.000276893
0.000275092
0.000275086
0.000349936
0.000383336
0.000404005
0.000409753
0.000409817
0.000407446
0.000358824
0.000310911
0.000290544
0.000290588
0.000363778
0.000378119
0.000368628
0.000355998
0.00034427
0.000327278
0.000327817
0.000331207
0.000340321
0.000350874
0.000342238
0.00031864
0.000300429
0.000300425
0.000348224
0.000348264
0.000348301
0.000334729
0.000311236
0.000311284
0.000318307
0.00030858
0.000304204
0.000341636
0.00033619
0.000337705
0.00033629
0.000344261
0.000387358
0.000389954
0.000389981
0.000389774
0.000348929
0.000325178
0.000325223
0.000333293
0.00032526
0.000325262
0.000342188
0.000362706
0.000362723
0.000359641
0.000359646
0.000337043
0.000337042
0.000339345
0.000315889
0.000271352
0.000271347
0.000271355
0.000249339
0.000235553
0.000264017
0.00028502
0.000285068
0.000490458
0.00049883
0.000481276
0.000478677
0.000471168
0.000467396
0.000446979
0.000446443
0.000451103
0.000443672
0.000451719
0.000438042
0.000436338
0.000444294
0.000442502
0.000424845
0.00042323
0.000421582
0.000419977
0.000430749
0.00042912
0.000423628
0.000410779
0.000409332
0.000407866
0.000395209
0.00039384
0.000392418
0.000395332
0.000443923
0.00044239
0.000440942
0.000436357
0.00043801
0.000363169
0.000362
0.000360835
0.000359716
0.000402565
0.000435922
0.00039644
0.000427086
0.000425772
0.000394202
0.000386341
0.000385184
0.000384061
0.000382952
0.000390284
0.000389135
0.00038229
0.00038149
0.000380431
0.000367539
0.000366537
0.000365536
0.000364557
0.000382754
0.000381745
0.000358565
0.000354461
0.00039704
0.000418561
0.000417575
0.000416556
0.000415548
0.000414521
0.000315717
0.00031496
0.000314237
0.000313494
0.000312841
0.000316283
0.000344953
0.000359488
0.000379637
0.000371256
0.000370477
0.000377245
0.000376485
0.000375644
0.000346368
0.000345642
0.000357489
0.000361489
0.000360781
0.000360026
0.000342812
0.000337748
0.000337125
0.00033652
0.000326782
0.000326198
0.000325629
0.000325069
0.000365795
0.000370924
0.000370361
0.000369739
0.000369166
0.000368548
0.000290005
0.000289541
0.000289118
0.000288628
0.00029855
0.000380843
0.000373835
0.00035922
0.000361336
0.000353948
0.000353475
0.000354045
0.000353565
0.000353096
0.000351033
0.000325649
0.000325235
0.000335592
0.000324321
0.000336152
0.00033111
0.000321872
0.000326644
0.000332259
0.000331886
0.000321625
0.000318806
0.00031847
0.000362033
0.000366256
0.000365928
0.000365527
0.00036517
0.000280539
0.000280255
0.000280023
0.00027973
0.000288867
0.000366644
0.000371807
0.000371497
0.000371183
0.000344874
0.000327189
0.000326933
0.000321682
0.000311754
0.000311528
0.000311297
0.000311081
0.000310852
0.000335644
0.000345426
0.000345168
0.000344974
0.000344727
0.000324702
0.0002884
0.000288198
0.000288061
0.000287862
0.000295771
0.00036695
0.0003665
0.000305525
0.000354925
0.000276346
0.000276225
0.00028287
0.000341456
0.000358495
0.000351354
0.000336164
0.000336035
0.000337606
0.000337804
0.000326146
0.000307424
0.000294483
0.000294368
0.000314459
0.000297262
0.000226189
0.000206226
0.000353228
0.000527276
0.00052717
0.000526985
0.000525983
0.000448127
0.000359254
0.000336948
0.000359885
0.000355706
0.000297883
0.000266733
0.000296862
0.000338877
0.000326898
0.000336548
0.000264242
0.0002642
0.000264174
0.000280426
0.000364534
0.000364494
0.0003413
0.000326678
0.000324802
0.000324777
0.000333769
0.000353606
0.000353597
0.00035357
0.000333489
0.00031751
0.000317499
0.000317496
0.00031962
0.000339809
0.00033613
0.000331022
0.000345743
0.000356723
0.000333483
0.000309887
0.000308297
0.000308322
0.000333546
0.00034775
0.000347771
0.000338641
0.00031858
0.000256664
0.000321251
0.000349949
0.000313635
0.000274129
0.000264547
0.000264559
0.000254198
0.0001952
0.000151107
0.000185423
0.000298493
0.000420586
0.000468586
0.000468672
0.000381153
0.000307481
0.000289674
0.000289712
0.000289996
0.000304403
0.000332098
0.000346619
0.000346657
0.000346712
0.000338541
0.000309353
0.000291229
0.000291276
0.000321296
0.00032417
0.000299162
0.000291474
0.00025713
0.000257178
0.000296603
0.000376678
0.000376756
0.000343262
0.000296517
0.000296575
0.00029662
0.000381504
0.000387564
0.00038766
0.000387709
0.000354064
0.000332259
0.000332326
0.000333232
0.000318546
0.000318607
0.00031867
0.000332812
0.000344607
0.000314312
0.000214694
0.000137616
0.000133278
0.0001333
0.000292362
0.000466728
0.000466882
0.000466918
0.000467024
0.000383038
0.000303426
0.000249909
0.000249962
0.000314243
0.000372207
0.000372249
0.000372336
0.000344135
0.00030606
0.000303721
0.000303752
0.000303838
0.00030387
0.00033532
0.000386469
0.000368017
0.000306278
0.000258842
0.000229409
0.000250199
0.000343037
0.000402943
0.000402983
0.000403091
0.000370965
0.00029939
0.000281889
0.000281937
0.00030698
0.00033587
0.000335859
0.000335927
0.000303198
0.000303225
0.000275086
0.000275131
0.000298624
0.000382627
0.000409754
0.000399699
0.000368879
0.000368974
0.000368989
0.000369086
0.000369097
0.000369166
0.000347999
0.000322762
0.000319977
0.000318004
0.000317387
0.000319853
0.000356029
0.000356091
0.000356114
0.000329635
0.000314575
0.000308265
0.000300416
0.000300431
0.000317054
0.000320259
0.000313852
0.000321305
0.000340595
0.000330734
0.000340626
0.000282159
0.000282183
0.000319463
0.000362352
0.000384844
0.000395146
0.000395179
0.000381555
0.000325126
0.000325165
0.000325163
0.000325204
0.000325185
0.000340822
0.000357387
0.000357404
0.000357422
0.000347768
0.000320422
0.000320416
0.000341989
0.000341998
0.000339608
0.000340482
0.000340484
0.000340498
0.000337705
0.00025825
0.000250535
0.00026418
0.000299097
0.000284974
0.000285114
0.000466791
0.000483052
0.00046869
0.000464129
0.000450742
0.000448818
0.000446931
0.000445093
0.000443293
0.000441538
0.000439754
0.000438032
0.000436295
0.000434508
0.000441627
0.000451594
0.000449854
0.000421603
0.000419993
0.00041839
0.00041766
0.000442365
0.00044076
0.000409325
0.000411821
0.000422195
0.00039381
0.000396516
0.000386803
0.000406595
0.000442395
0.000440918
0.000439484
0.000438024
0.00036319
0.000361985
0.000360853
0.000359672
0.000358541
0.00043589
0.000438662
0.000433629
0.000405546
0.000387509
0.000386343
0.000396583
0.000395426
0.000382948
0.000376946
0.000389139
0.000387995
0.000369575
0.000368555
0.000367532
0.00036653
0.000366104
0.00039235
0.000391308
0.000375744
0.000374771
0.000376663
0.000380579
0.000418609
0.00041755
0.000416582
0.000415534
0.00041453
0.00033143
0.000314983
0.000314215
0.000367219
0.000398986
0.000398086
0.000379253
0.000359492
0.000373823
0.000373871
0.000373084
0.000361873
0.000347779
0.000347079
0.000346346
0.000345673
0.00034498
0.000344314
0.000343618
0.000345482
0.000368282
0.00036758
0.000366572
0.000328644
0.000326786
0.000344961
0.00035148
0.000350885
0.000356886
0.000332347
0.000331807
0.000369292
0.000369137
0.000363333
0.000290015
0.000289565
0.000289076
0.000329368
0.000369549
0.000351116
0.00035062
0.000350144
0.000361331
0.000360833
0.000359685
0.000332373
0.000331925
0.00034417
0.000351028
0.000347241
0.000323835
0.000323429
0.000323001
0.000322628
0.000322222
0.000321869
0.000321485
0.000330557
0.000322141
0.000328897
0.000358271
0.000367052
0.000366622
0.000366318
0.000365889
0.000365548
0.000363667
0.00028054
0.000280279
0.000279988
0.000285698
0.000353022
0.000366668
0.000360432
0.0003455
0.000348967
0.000348676
0.000345679
0.000322021
0.000321767
0.00033581
0.000335559
0.000333863
0.000312816
0.000310836
0.000310632
0.00031104
0.00034485
0.000337734
0.000304435
0.000288574
0.000288383
0.000288228
0.000288023
0.000319532
0.000367191
0.000366951
0.000366806
0.00036658
0.000366399
0.000276327
0.00027621
0.000299597
0.000336565
0.000336427
0.000336291
0.000336157
0.000336389
0.000337811
0.000336355
0.000322465
0.000301871
0.000301483
0.00029322
0.000228064
0.000131505
9.34014e-05
0.000230326
0.000523293
0.000527307
0.000527122
0.000526973
0.000428283
0.000329006
0.000300634
0.000300387
0.000329124
0.00035569
0.000327513
0.000299789
0.000323385
0.000338901
0.000336698
0.000336588
0.000264237
0.000264205
0.00026416
0.000285148
0.000358964
0.00036118
0.000342838
0.000328776
0.000324802
0.000324777
0.000348303
0.000353616
0.000353587
0.00035357
0.000333359
0.000317507
0.0003175
0.000325152
0.000340193
0.000340195
0.000320485
0.000308258
0.000308235
0.000308264
0.000308244
0.000308276
0.00030827
0.00033691
0.000347729
0.00034775
0.000333853
0.000273702
0.000291627
0.00024271
0.000285079
0.000287611
0.000249068
0.000254199
0.000275096
0.000275119
0.000229756
0.00021154
0.000260226
0.000341775
0.000402574
0.000407906
0.000392145
0.000373012
0.000326431
0.000290566
0.000289674
0.000289711
0.000315926
0.000346507
0.000346569
0.000346606
0.00034666
0.000322798
0.000291139
0.000291183
0.000291229
0.000291272
0.000322726
0.000324163
0.000283628
0.000283693
0.000257132
0.000268167
0.00037656
0.000376637
0.000351365
0.00031428
0.000296528
0.000296571
0.000318259
0.000387484
0.000387578
0.000369478
0.000344244
0.000339789
0.000339832
0.000346749
0.000346791
0.000346882
0.000346924
0.000345378
0.000324854
0.000301715
0.000254253
0.000180018
0.000137633
0.000138936
0.000336252
0.000466626
0.000466768
0.000450276
0.000420435
0.000383873
0.000290976
0.000278914
0.000249908
0.000249959
0.000300802
0.000372175
0.000372269
0.000367859
0.00031761
0.000303663
0.000303709
0.00030378
0.000345834
0.000386341
0.000386403
0.000386492
0.000360067
0.000286316
0.000256014
0.000256042
0.000290256
0.000333847
0.000374391
0.000375896
0.000336988
0.000294891
0.000281837
0.000281889
0.000281939
0.000288217
0.000335801
0.00033593
0.00033593
0.000295952
0.000296015
0.000275084
0.000275131
0.000292789
0.000405641
0.000408514
0.000369961
0.000362113
0.000362164
0.000362217
0.000358504
0.000358556
0.000363127
0.000372748
0.000335716
0.00031727
0.000317338
0.000317295
0.000327674
0.000356046
0.000356074
0.000356135
0.000354775
0.000339059
0.000332353
0.000318582
0.000294556
0.000281736
0.000281755
0.000309771
0.000340561
0.00034066
0.000340636
0.000340692
0.000282159
0.000282184
0.0002822
0.000371237
0.000386499
0.000386519
0.000388737
0.000401358
0.000401404
0.000401408
0.00038651
0.000356133
0.000352612
0.000357361
0.000357387
0.000341524
0.000326583
0.000347302
0.000330468
0.000320399
0.000320403
0.000320411
0.00032042
0.00032041
0.000320419
0.000320427
0.000290024
0.000258253
0.000285952
0.000332985
0.000342368
0.000348191
0.000353024
0.000496524
0.000456308
0.000457785
0.000452722
0.000450785
0.000473332
0.000471317
0.000458157
0.000445182
0.000460098
0.000439747
0.000438016
0.000453135
0.000451283
0.000448838
0.000451607
0.00042417
0.000422546
0.000420009
0.000425704
0.000444057
0.000442381
0.000410793
0.000409347
0.000415101
0.000422193
0.000393788
0.000398474
0.000386788
0.000404807
0.000442384
0.000440918
0.000435486
0.000438018
0.000363212
0.000362027
0.000360813
0.000394285
0.000401691
0.000400415
0.000438711
0.000437328
0.000420854
0.000400912
0.000414758
0.00041352
0.000376846
0.00037575
0.000372803
0.000371713
0.000370624
0.000369577
0.00036856
0.00037798
0.000380411
0.000379395
0.00039236
0.000391221
0.000381161
0.000372993
0.000359918
0.000368052
0.000418581
0.000417567
0.000416533
0.000375914
0.000411871
0.000315718