/*--------------------------------*- C++ -*----------------------------------*\
  =========                 |
  \\      /  F ield         | OpenFOAM: The Open Source CFD Toolbox
   \\    /   O peration     | Website:  https://openfoam.org
    \\  /    A nd           | Version:  7
     \\/     M anipulation  |
\*---------------------------------------------------------------------------*/
FoamFile
{
    version     2.0;
    format      ascii;
    class       volScalarField;
    location    "5000";
    object      nuTotal;
}
// * * * * * * * * * * * * * * * * * * * * * * * * * * * * * * * * * * * * * //

dimensions      [0 2 -1 0 0 0 0];

internalField   nonuniform List<scalar> 
160000
(
9.32661e-07
9.2873e-07
9.27472e-07
9.23634e-07
9.22126e-07
9.17522e-07
9.07904e-07
9.02209e-07
9.0176e-07
8.99198e-07
8.96741e-07
8.93998e-07
8.90293e-07
8.86788e-07
8.83309e-07
8.77495e-07
8.72756e-07
8.6951e-07
8.66199e-07
8.62872e-07
8.59682e-07
8.61172e-07
8.58095e-07
8.52238e-07
8.47861e-07
8.49937e-07
8.47629e-07
8.44607e-07
8.41657e-07
8.38794e-07
8.31972e-07
8.26806e-07
8.24031e-07
8.21297e-07
8.18702e-07
8.20957e-07
8.18268e-07
8.15603e-07
8.13061e-07
8.07163e-07
8.03884e-07
8.01456e-07
8.04165e-07
8.02873e-07
8.00485e-07
7.98032e-07
7.8825e-07
7.85861e-07
7.83671e-07
7.81476e-07
7.85648e-07
7.8575e-07
7.83521e-07
7.81385e-07
7.7925e-07
7.77168e-07
7.68632e-07
7.66622e-07
7.67087e-07
7.65344e-07
7.62059e-07
7.59238e-07
7.57392e-07
7.55592e-07
7.54054e-07
7.52255e-07
7.50426e-07
7.48624e-07
7.46885e-07
7.5193e-07
7.50221e-07
7.48493e-07
7.46836e-07
7.45194e-07
7.38553e-07
7.34716e-07
7.32846e-07
7.31492e-07
7.29603e-07
7.28099e-07
7.26616e-07
7.25108e-07
7.23645e-07
7.23664e-07
7.23451e-07
7.22045e-07
7.20677e-07
7.19364e-07
7.18072e-07
7.1676e-07
7.15541e-07
7.14288e-07
7.12984e-07
7.1088e-07
7.09665e-07
7.09632e-07
7.08393e-07
7.0456e-07
7.03375e-07
7.02283e-07
7.01189e-07
7.0139e-07
7.00318e-07
6.99215e-07
7.00608e-07
6.99575e-07
6.98567e-07
6.97585e-07
6.9658e-07
6.91886e-07
6.90302e-07
6.89399e-07
6.885e-07
6.87597e-07
6.88548e-07
6.87675e-07
6.88265e-07
6.8875e-07
6.86767e-07
6.81805e-07
6.80993e-07
6.81672e-07
6.80902e-07
6.80134e-07
6.79367e-07
6.78061e-07
6.76778e-07
6.76067e-07
6.75378e-07
6.74691e-07
6.74026e-07
6.75455e-07
6.76032e-07
6.75344e-07
6.7467e-07
6.74036e-07
6.73422e-07
6.72729e-07
6.72149e-07
6.71933e-07
6.70998e-07
6.70418e-07
6.70248e-07
6.69728e-07
6.69168e-07
6.68639e-07
6.68127e-07
6.66289e-07
6.64481e-07
6.64018e-07
6.66906e-07
6.66455e-07
6.6602e-07
6.65579e-07
6.65297e-07
6.64881e-07
6.64468e-07
6.61634e-07
6.61235e-07
6.60848e-07
6.62892e-07
6.62593e-07
6.61991e-07
6.58775e-07
6.59533e-07
6.61733e-07
6.61398e-07
6.64276e-07
6.63963e-07
6.63658e-07
6.6085e-07
6.52837e-07
6.52566e-07
6.523e-07
6.52103e-07
6.56731e-07
6.56487e-07
6.55595e-07
6.53443e-07
6.532e-07
6.52989e-07
6.52778e-07
6.52572e-07
6.54917e-07
6.55631e-07
6.55008e-07
6.54821e-07
6.54887e-07
6.64219e-07
6.68048e-07
6.61695e-07
6.58583e-07
6.54568e-07
6.50212e-07
6.50079e-07
6.57621e-07
6.75392e-07
6.61108e-07
6.41009e-07
6.40899e-07
6.40804e-07
6.40714e-07
6.43126e-07
6.53358e-07
6.59623e-07
6.59547e-07
6.52584e-07
6.47515e-07
6.47463e-07
6.47409e-07
6.47363e-07
6.47319e-07
6.4771e-07
6.48342e-07
6.48571e-07
6.49453e-07
6.51515e-07
6.51496e-07
6.50182e-07
6.47631e-07
6.47619e-07
6.4762e-07
6.47621e-07
6.53065e-07
6.53615e-07
6.53625e-07
6.53645e-07
6.53657e-07
6.52737e-07
6.49805e-07
6.49832e-07
6.50743e-07
6.52487e-07
6.52523e-07
6.52568e-07
6.52609e-07
6.52659e-07
6.49929e-07
6.48241e-07
6.48294e-07
6.48351e-07
6.51261e-07
6.51789e-07
6.54438e-07
6.59458e-07
6.74256e-07
6.86604e-07
6.86687e-07
6.76823e-07
6.42665e-07
6.4084e-07
6.40917e-07
6.40999e-07
6.44118e-07
6.50442e-07
6.52847e-07
6.53704e-07
6.59572e-07
6.59667e-07
6.59771e-07
6.51381e-07
6.5133e-07
6.5143e-07
6.54768e-07
6.56734e-07
6.55324e-07
6.55437e-07
6.58063e-07
6.65111e-07
6.65236e-07
6.51924e-07
6.49625e-07
6.49739e-07
6.4985e-07
6.50595e-07
6.59262e-07
6.59379e-07
6.59514e-07
6.5499e-07
6.55118e-07
6.55246e-07
6.61553e-07
6.61831e-07
6.61954e-07
6.60676e-07
6.52247e-07
6.52374e-07
6.52496e-07
6.55654e-07
6.5587e-07
6.55999e-07
6.57012e-07
6.57138e-07
6.57218e-07
6.53794e-07
6.53931e-07
6.5407e-07
6.67834e-07
6.90643e-07
7.27963e-07
7.28088e-07
6.88132e-07
6.4596e-07
6.46074e-07
6.46203e-07
6.46318e-07
6.46441e-07
6.49128e-07
6.54162e-07
6.61585e-07
6.65023e-07
6.66048e-07
6.67459e-07
6.67583e-07
6.65424e-07
6.57277e-07
6.57409e-07
6.57523e-07
6.58208e-07
6.64293e-07
6.70169e-07
6.78789e-07
6.86724e-07
6.86831e-07
6.86987e-07
6.87093e-07
6.68536e-07
6.57149e-07
6.56771e-07
6.56882e-07
6.57763e-07
6.58902e-07
6.59012e-07
6.5912e-07
6.59882e-07
6.62327e-07
6.6865e-07
6.71829e-07
6.71939e-07
6.6451e-07
6.62683e-07
6.62775e-07
6.62869e-07
6.70273e-07
6.70371e-07
6.70468e-07
6.70563e-07
6.64038e-07
6.59117e-07
6.5919e-07
6.59288e-07
6.59522e-07
6.65161e-07
6.66341e-07
6.66421e-07
6.6611e-07
6.61229e-07
6.61313e-07
6.6138e-07
6.61459e-07
6.61738e-07
6.66363e-07
6.66796e-07
6.67158e-07
6.67231e-07
6.67291e-07
6.67367e-07
6.67415e-07
6.64976e-07
6.61821e-07
6.61874e-07
6.61924e-07
6.62379e-07
6.62425e-07
6.63454e-07
6.63498e-07
6.6437e-07
6.67195e-07
6.67234e-07
6.67271e-07
6.65115e-07
6.6309e-07
6.64579e-07
6.64607e-07
6.64643e-07
6.64664e-07
6.64697e-07
6.64717e-07
6.64893e-07
6.68751e-07
6.6962e-07
6.73491e-07
6.74724e-07
6.77171e-07
6.90567e-07
6.9058e-07
6.77721e-07
6.7557e-07
6.72898e-07
6.72893e-07
9.34006e-07
9.30086e-07
9.22815e-07
9.22843e-07
9.20614e-07
9.17559e-07
9.13779e-07
9.08067e-07
9.03378e-07
8.98966e-07
8.95303e-07
8.92475e-07
8.90429e-07
8.8691e-07
8.83358e-07
8.77293e-07
8.72813e-07
8.73338e-07
8.69943e-07
8.66633e-07
8.62061e-07
8.6108e-07
8.53836e-07
8.50773e-07
8.4784e-07
8.50734e-07
8.47696e-07
8.44618e-07
8.41672e-07
8.344e-07
8.31525e-07
8.28801e-07
8.24914e-07
8.21307e-07
8.1871e-07
8.20959e-07
8.18203e-07
8.15638e-07
8.12757e-07
8.06388e-07
8.03853e-07
8.01427e-07
8.00872e-07
8.02877e-07
8.005e-07
7.98046e-07
7.95693e-07
7.89677e-07
7.83692e-07
7.81445e-07
7.82314e-07
7.847e-07
7.77719e-07
7.75472e-07
7.73356e-07
7.73922e-07
7.68662e-07
7.67923e-07
7.67225e-07
7.65289e-07
7.63346e-07
7.59269e-07
7.57501e-07
7.5656e-07
7.5478e-07
7.52511e-07
7.52831e-07
7.51069e-07
7.49315e-07
7.46783e-07
7.45055e-07
7.43351e-07
7.44398e-07
7.41446e-07
7.36164e-07
7.34401e-07
7.32841e-07
7.32212e-07
7.33797e-07
7.31249e-07
7.26841e-07
7.26889e-07
7.25913e-07
7.24512e-07
7.23098e-07
7.21658e-07
7.20291e-07
7.1941e-07
7.18114e-07
7.16816e-07
7.15526e-07
7.14252e-07
7.12133e-07
7.10865e-07
7.10806e-07
7.09649e-07
7.05658e-07
7.04516e-07
7.03382e-07
7.02328e-07
7.01198e-07
7.00106e-07
7.0324e-07
7.02152e-07
6.98585e-07
6.99562e-07
6.95362e-07
6.93226e-07
6.9224e-07
6.91263e-07
6.90306e-07
6.91329e-07
6.91952e-07
6.91486e-07
6.90897e-07
6.90025e-07
6.89599e-07
6.88739e-07
6.85091e-07
6.81813e-07
6.8099e-07
6.80198e-07
6.79429e-07
6.78659e-07
6.78292e-07
6.77538e-07
6.76793e-07
6.76543e-07
6.75379e-07
6.74692e-07
6.74029e-07
6.76687e-07
6.76029e-07
6.75337e-07
6.73491e-07
6.74059e-07
6.73188e-07
6.72572e-07
6.72488e-07
6.71933e-07
6.71374e-07
6.70799e-07
6.70251e-07
6.69367e-07
6.66795e-07
6.66271e-07
6.65463e-07
6.64964e-07
6.64488e-07
6.66516e-07
6.66051e-07
6.65595e-07
6.66164e-07
6.65731e-07
6.65296e-07
6.64876e-07
6.64458e-07
6.64052e-07
6.63931e-07
6.63547e-07
6.63171e-07
6.62593e-07
6.59118e-07
6.58774e-07
6.61601e-07
6.61733e-07
6.60785e-07
6.6319e-07
6.64063e-07
6.60333e-07
6.55389e-07
6.52839e-07
6.56654e-07
6.56387e-07
6.55213e-07
6.54476e-07
6.5392e-07
6.53679e-07
6.53441e-07
6.53211e-07
6.52992e-07
6.5278e-07
6.52589e-07
6.59884e-07
6.59691e-07
6.57873e-07
6.62631e-07
6.84431e-07
7.05218e-07
7.05043e-07
6.59566e-07
6.4246e-07
6.42717e-07
6.48389e-07
6.62192e-07
6.75518e-07
6.75388e-07
6.60677e-07
6.41006e-07
6.40905e-07
6.40807e-07
6.44094e-07
6.51131e-07
6.58754e-07
6.59622e-07
6.55003e-07
6.47579e-07
6.47521e-07
6.47461e-07
6.47411e-07
6.47736e-07
6.49672e-07
6.51759e-07
6.50888e-07
6.50254e-07
6.51748e-07
6.51516e-07
6.48491e-07
6.47643e-07
6.4763e-07
6.47627e-07
6.50653e-07
6.53354e-07
6.53606e-07
6.53613e-07
6.53629e-07
6.53639e-07
6.53663e-07
6.53677e-07
6.5371e-07
6.47857e-07
6.47289e-07
6.47321e-07
6.47362e-07
6.47403e-07
6.52609e-07
6.51449e-07
6.4819e-07
6.48241e-07
6.48294e-07
6.49165e-07
6.55535e-07
6.56828e-07
6.60273e-07
6.87315e-07
7.01535e-07
7.01607e-07
6.46179e-07
6.40676e-07
6.40759e-07
6.40835e-07
6.41383e-07
6.46639e-07
6.49061e-07
6.50631e-07
6.54604e-07
6.59479e-07
6.59575e-07
6.54782e-07
6.51113e-07
6.5122e-07
6.51323e-07
6.5614e-07
6.56629e-07
6.56735e-07
6.56847e-07
6.56794e-07
6.65005e-07
6.65122e-07
6.49768e-07
6.49512e-07
6.49627e-07
6.49736e-07
6.49852e-07
6.54551e-07
6.59261e-07
6.59387e-07
6.5951e-07
6.59645e-07
6.58609e-07
6.60706e-07
6.61553e-07
6.60376e-07
6.51998e-07
6.52121e-07
6.5225e-07
6.52372e-07
6.53772e-07
6.5549e-07
6.56294e-07
6.58533e-07
6.57012e-07
6.52541e-07
6.52674e-07
6.60366e-07
6.67442e-07
6.6715e-07
6.81672e-07
7.27824e-07
7.27939e-07
7.28132e-07
6.63976e-07
6.45948e-07
6.46078e-07
6.46994e-07
6.5231e-07
6.57982e-07
6.6111e-07
6.62367e-07
6.64832e-07
6.67214e-07
6.67338e-07
6.67462e-07
6.6446e-07
6.57152e-07
6.57284e-07
6.57401e-07
6.58958e-07
6.66901e-07
6.73399e-07
6.81367e-07
6.86588e-07
6.86713e-07
6.6589e-07
6.54404e-07
6.54532e-07
6.54648e-07
6.56569e-07
6.56767e-07
6.58612e-07
6.64225e-07
6.65313e-07
6.6426e-07
6.62929e-07
6.61955e-07
6.62343e-07
6.66502e-07
6.67463e-07
6.64276e-07
6.63052e-07
6.63548e-07
6.63643e-07
6.63622e-07
6.70275e-07
6.70372e-07
6.70469e-07
6.65842e-07
6.59027e-07
6.59102e-07
6.59202e-07
6.59285e-07
6.62582e-07
6.66259e-07
6.66341e-07
6.66422e-07
6.64621e-07
6.64935e-07
6.64675e-07
6.61719e-07
6.61457e-07
6.62467e-07
6.65383e-07
6.67096e-07
6.6717e-07
6.61011e-07
6.61085e-07
6.61138e-07
6.6121e-07
6.61265e-07
6.62351e-07
6.64145e-07
6.64957e-07
6.64956e-07
6.66909e-07
6.67046e-07
6.6711e-07
6.67153e-07
6.67195e-07
6.65919e-07
6.6428e-07
6.62688e-07
6.62722e-07
6.62753e-07
6.62785e-07
6.64507e-07
6.64535e-07
6.6456e-07
6.68064e-07
6.68737e-07
6.68758e-07
6.68776e-07
6.70579e-07
6.70597e-07
6.752e-07
6.90571e-07
6.82648e-07
6.82765e-07
6.75694e-07
6.72891e-07
6.72885e-07
9.3407e-07
9.30179e-07
9.22824e-07
9.19557e-07
9.15698e-07
9.15398e-07
9.12121e-07
9.05865e-07
9.03579e-07
9.00003e-07
8.96328e-07
8.92457e-07
8.90452e-07
8.86995e-07
8.82956e-07
8.77876e-07
8.72754e-07
8.69385e-07
8.69932e-07
8.66655e-07
8.63436e-07
8.56856e-07
8.53774e-07
8.52631e-07
8.5006e-07
8.47117e-07
8.43936e-07
8.42492e-07
8.36818e-07
8.33944e-07
8.34533e-07
8.29842e-07
8.24725e-07
8.21315e-07
8.21e-07
8.20646e-07
8.14863e-07
8.12293e-07
8.10334e-07
8.10024e-07
8.08356e-07
8.05561e-07
8.01274e-07
7.98478e-07
7.95675e-07
7.93265e-07
7.935e-07
7.9129e-07
7.8907e-07
7.83917e-07
7.81661e-07
7.81997e-07
7.80235e-07
7.78117e-07
7.76005e-07
7.73938e-07
7.70061e-07
7.65763e-07
7.63768e-07
7.61821e-07
7.65139e-07
7.63441e-07
7.57581e-07
7.55774e-07
7.54064e-07
7.52245e-07
7.50441e-07
7.48687e-07
7.49316e-07
7.47582e-07
7.45931e-07
7.4426e-07
7.41995e-07
7.40382e-07
7.39973e-07
7.38381e-07
7.36828e-07
7.35298e-07
7.33763e-07
7.28523e-07
7.26926e-07
7.25446e-07
7.23991e-07
7.22975e-07
7.22923e-07
7.23352e-07
7.20942e-07
7.18189e-07
7.16877e-07
7.16799e-07
7.15506e-07
7.13834e-07
7.13144e-07
7.11905e-07
7.10704e-07
7.12364e-07
7.11219e-07
7.10076e-07
7.07232e-07
7.05686e-07
7.05236e-07
7.00707e-07
7.01283e-07
7.02823e-07
6.98583e-07
6.95403e-07
6.94022e-07
6.95255e-07
6.94284e-07
6.93308e-07
6.92355e-07
6.90996e-07
6.90001e-07
6.90394e-07
6.89518e-07
6.88861e-07
6.89599e-07
6.87249e-07
6.83521e-07
6.82314e-07
6.84086e-07
6.8436e-07
6.83577e-07
6.82099e-07
6.79632e-07
6.79641e-07
6.80495e-07
6.79778e-07
6.79074e-07
6.78166e-07
6.76513e-07
6.7345e-07
6.72779e-07
6.72111e-07
6.73435e-07
6.74066e-07
6.73679e-07
6.7307e-07
6.72485e-07
6.71928e-07
6.70068e-07
6.68229e-07
6.67676e-07
6.69906e-07
6.69364e-07
6.68835e-07
6.67808e-07
6.6497e-07
6.64494e-07
6.67247e-07
6.66782e-07
6.66329e-07
6.65895e-07
6.64065e-07
6.63624e-07
6.63204e-07
6.63129e-07
6.61347e-07
6.60953e-07
6.60639e-07
6.63173e-07
6.62804e-07
6.62439e-07
6.58772e-07
6.5844e-07
6.58116e-07
6.59892e-07
6.65403e-07
6.65738e-07
6.63135e-07
6.53452e-07
6.52837e-07
6.52565e-07
6.523e-07
6.56083e-07
6.5704e-07
6.5679e-07
6.56544e-07
6.5631e-07
6.53702e-07
6.52994e-07
6.53785e-07
6.56423e-07
6.59116e-07
6.70184e-07
6.90611e-07
7.05589e-07
7.05409e-07
7.0523e-07
6.59613e-07
6.39747e-07
6.39879e-07
6.43291e-07
6.5007e-07
6.61371e-07
6.73949e-07
6.75386e-07
6.66073e-07
6.50967e-07
6.4725e-07
6.50313e-07
6.57423e-07
6.6107e-07
6.56671e-07
6.50244e-07
6.47656e-07
6.47586e-07
6.49663e-07
6.50468e-07
6.50414e-07
6.49574e-07
6.52095e-07
6.52055e-07
6.5202e-07
6.51989e-07
6.51821e-07
6.48902e-07
6.47659e-07
6.47643e-07
6.50973e-07
6.53603e-07
6.53598e-07
6.53601e-07
6.53604e-07
6.49881e-07
6.48545e-07
6.5134e-07
6.53066e-07
6.50022e-07
6.47962e-07
6.47627e-07
6.47287e-07
6.47324e-07
6.50672e-07
6.56526e-07
6.52164e-07
6.50094e-07
6.50997e-07
6.51047e-07
6.51101e-07
6.49578e-07
6.50352e-07
6.62123e-07
6.89016e-07
7.01461e-07
7.01535e-07
7.01629e-07
6.45225e-07
6.4068e-07
6.40754e-07
6.41161e-07
6.49301e-07
6.54831e-07
6.56156e-07
6.56951e-07
6.58595e-07
6.59482e-07
6.59575e-07
6.53468e-07
6.51115e-07
6.51218e-07
6.5631e-07
6.57032e-07
6.56479e-07
6.55634e-07
6.59923e-07
6.64968e-07
6.65012e-07
6.52124e-07
6.49362e-07
6.51156e-07
6.51967e-07
6.52081e-07
6.52193e-07
6.55073e-07
6.59265e-07
6.59385e-07
6.59518e-07
6.59638e-07
6.56889e-07
6.51624e-07
6.51745e-07
6.51871e-07
6.51995e-07
6.53495e-07
6.56475e-07
6.56515e-07
6.53999e-07
6.54161e-07
6.55923e-07
6.61944e-07
6.74138e-07
6.96387e-07
7.2036e-07
7.20512e-07
7.20665e-07
7.20813e-07
7.27694e-07
7.27809e-07
7.26267e-07
6.54087e-07
6.45933e-07
6.4606e-07
6.52119e-07
6.59069e-07
6.61304e-07
6.61426e-07
6.58648e-07
6.60597e-07
6.64649e-07
6.66015e-07
6.64943e-07
6.62599e-07
6.58294e-07
6.5716e-07
6.57526e-07
6.62375e-07
6.66443e-07
6.69698e-07
6.77628e-07
6.83965e-07
6.8411e-07
6.56415e-07
6.54281e-07
6.54409e-07
6.54526e-07
6.56265e-07
6.607e-07
6.61661e-07
6.62837e-07
6.65202e-07
6.65314e-07
6.6055e-07
6.60658e-07
6.6092e-07
6.6179e-07
6.64426e-07
6.64632e-07
6.61801e-07
6.59798e-07
6.60178e-07
6.63222e-07
6.68782e-07
6.68986e-07
6.64017e-07
6.59685e-07
6.58935e-07
6.59013e-07
6.59115e-07
6.59518e-07
6.64009e-07
6.63391e-07
6.6207e-07
6.62153e-07
6.62234e-07
6.6335e-07
6.6614e-07
6.6423e-07
6.61718e-07
6.61984e-07
6.65659e-07
6.67028e-07
6.67107e-07
6.67169e-07
6.61022e-07
6.61082e-07
6.61148e-07
6.61209e-07
6.61943e-07
6.64976e-07
6.65029e-07
6.6508e-07
6.64966e-07
6.60219e-07
6.59958e-07
6.60002e-07
6.60045e-07
6.61957e-07
6.66726e-07
6.66766e-07
6.668e-07
6.66836e-07
6.66681e-07
6.62786e-07
6.62815e-07
6.65197e-07
6.65226e-07
6.65247e-07
6.65274e-07
6.65655e-07
6.7221e-07
6.72228e-07
6.72243e-07
6.73802e-07
6.74239e-07
6.74754e-07
6.82792e-07
6.79098e-07
6.72883e-07
6.72878e-07
9.33995e-07
9.28384e-07
9.24538e-07
9.20615e-07
9.16224e-07
9.12401e-07
9.10076e-07
9.05841e-07
9.03437e-07
8.99003e-07
8.95419e-07
8.9213e-07
8.88934e-07
8.87003e-07
8.83476e-07
8.80029e-07
8.76682e-07
8.72775e-07
8.6988e-07
8.65621e-07
8.63815e-07
8.60651e-07
8.57567e-07
8.53754e-07
8.47847e-07
8.44893e-07
8.43125e-07
8.39791e-07
8.36807e-07
8.39048e-07
8.36333e-07
8.33596e-07
8.30874e-07
8.28132e-07
8.254e-07
8.1679e-07
8.14165e-07
8.13476e-07
8.13492e-07
8.10908e-07
8.0832e-07
8.05822e-07
8.03265e-07
8.00266e-07
7.95674e-07
7.93313e-07
7.91022e-07
7.88779e-07
7.87049e-07
7.86721e-07
7.84468e-07
7.82226e-07
7.80204e-07
7.77937e-07
7.754e-07
7.73331e-07
7.72301e-07
7.70294e-07
7.69259e-07
7.673e-07
7.65372e-07
7.6343e-07
7.56864e-07
7.57672e-07
7.55901e-07
7.54116e-07
7.54744e-07
7.56686e-07
7.46831e-07
7.44988e-07
7.43302e-07
7.46635e-07
7.46417e-07
7.39876e-07
7.36568e-07
7.34957e-07
7.33418e-07
7.31896e-07
7.30369e-07
7.31976e-07
7.30507e-07
7.29022e-07
7.27579e-07
7.26194e-07
7.24786e-07
7.2337e-07
7.21972e-07
7.20608e-07
7.16971e-07
7.15677e-07
7.15156e-07
7.13843e-07
7.12585e-07
7.11911e-07
7.13009e-07
7.08645e-07
7.08062e-07
7.10095e-07
7.0898e-07
7.07852e-07
7.06747e-07
7.10174e-07
7.09078e-07
7.05275e-07
6.99023e-07
6.94515e-07
6.93347e-07
6.92651e-07
6.91682e-07
6.90717e-07
6.91848e-07
6.90924e-07
6.90007e-07
6.91405e-07
6.91331e-07
6.90465e-07
6.89604e-07
6.88733e-07
6.84238e-07
6.8367e-07
6.84701e-07
6.83907e-07
6.83121e-07
6.83726e-07
6.82967e-07
6.82204e-07
6.80097e-07
6.79383e-07
6.79075e-07
6.77793e-07
6.77001e-07
6.75865e-07
6.76611e-07
6.77917e-07
6.78349e-07
6.74084e-07
6.72383e-07
6.70898e-07
6.70094e-07
6.67759e-07
6.66641e-07
6.68228e-07
6.70455e-07
6.69915e-07
6.69372e-07
6.68844e-07
6.68329e-07
6.65084e-07
6.66045e-07
6.65465e-07
6.64998e-07
6.64545e-07
6.64249e-07
6.66116e-07
6.66072e-07
6.65653e-07
6.65238e-07
6.64831e-07
6.64441e-07
6.64383e-07
6.62274e-07
6.60558e-07
6.58439e-07
6.56778e-07
6.59255e-07
6.64248e-07
6.66226e-07
6.66399e-07
6.65738e-07
6.55527e-07
6.53451e-07
6.53904e-07
6.55112e-07
6.54846e-07
6.54579e-07
6.54328e-07
6.5408e-07
6.55487e-07
6.58427e-07
6.57489e-07
6.52998e-07
6.55187e-07
6.65027e-07
6.73232e-07
6.84581e-07
6.99057e-07
7.05575e-07
6.91281e-07
6.44223e-07
6.39083e-07
6.3908e-07
6.4242e-07
6.4649e-07
6.47357e-07
6.49495e-07
6.57873e-07
6.68525e-07
6.68399e-07
6.62227e-07
6.55985e-07
6.55618e-07
6.61438e-07
6.61349e-07
6.61266e-07
6.53207e-07
6.47655e-07
6.47587e-07
6.48967e-07
6.4924e-07
6.49187e-07
6.50892e-07
6.52095e-07
6.52055e-07
6.49383e-07
6.48266e-07
6.48241e-07
6.48218e-07
6.48795e-07
6.51166e-07
6.53609e-07
6.53601e-07
6.536e-07
6.50073e-07
6.46804e-07
6.46812e-07
6.46823e-07
6.48588e-07
6.51315e-07
6.53358e-07
6.53383e-07
6.52741e-07
6.48924e-07
6.50459e-07
6.57848e-07
6.5952e-07
6.51994e-07
6.48162e-07
6.47056e-07
6.47107e-07
6.47352e-07
6.50008e-07
6.59896e-07
6.80842e-07
7.0139e-07
7.01461e-07
7.01544e-07
6.80594e-07
6.41301e-07
6.40675e-07
6.40754e-07
6.48243e-07
6.53961e-07
6.55509e-07
6.57673e-07
6.58505e-07
6.58595e-07
6.57307e-07
6.52217e-07
6.51014e-07
6.51113e-07
6.53826e-07
6.58405e-07
6.57033e-07
6.54123e-07
6.5423e-07
6.57432e-07
6.64968e-07
6.65086e-07
6.59505e-07
6.49363e-07
6.49473e-07
6.49589e-07
6.49698e-07
6.50829e-07
6.59148e-07
6.59265e-07
6.59393e-07
6.59514e-07
6.56532e-07
6.49642e-07
6.49761e-07
6.52064e-07
6.56042e-07
6.57706e-07
6.5783e-07
6.56472e-07
6.56334e-07
6.55391e-07
6.54907e-07
6.56769e-07
6.68325e-07
6.99542e-07
7.20213e-07
7.20359e-07
7.20513e-07
7.20689e-07
6.57466e-07
6.49544e-07
6.48725e-07
6.48865e-07
6.49121e-07
6.59066e-07
6.58029e-07
6.59357e-07
6.57966e-07
6.55503e-07
6.54725e-07
6.55062e-07
6.57081e-07
6.59088e-07
6.60439e-07
6.63142e-07
6.6327e-07
6.62179e-07
6.57324e-07
6.57396e-07
6.60019e-07
6.66899e-07
6.80031e-07
6.83836e-07
6.83974e-07
6.61406e-07
6.54163e-07
6.54287e-07
6.54404e-07
6.5888e-07
6.6494e-07
6.67054e-07
6.64438e-07
6.61429e-07
6.62891e-07
6.66842e-07
6.70029e-07
6.70459e-07
6.70576e-07
6.60523e-07
6.57443e-07
6.55854e-07
6.55521e-07
6.55621e-07
6.55902e-07
6.6025e-07
6.65919e-07
6.68984e-07
6.69082e-07
6.60172e-07
6.58933e-07
6.59899e-07
6.61229e-07
6.62554e-07
6.64598e-07
6.64622e-07
6.64304e-07
6.63343e-07
6.62285e-07
6.63297e-07
6.66192e-07
6.68766e-07
6.68846e-07
6.62965e-07
6.63035e-07
6.63105e-07
6.64685e-07
6.67699e-07
6.67763e-07
6.66904e-07
6.68266e-07
6.68943e-07
6.64303e-07
6.64978e-07
6.64862e-07
6.65079e-07
6.6424e-07
6.6013e-07
6.59958e-07
6.60002e-07
6.60064e-07
6.63969e-07
6.66729e-07
6.66764e-07
6.65833e-07
6.66834e-07
6.66868e-07
6.64923e-07
6.62817e-07
6.62843e-07
6.63174e-07
6.63198e-07
6.65636e-07
6.65658e-07
6.65415e-07
6.68286e-07
6.75178e-07
6.75192e-07
6.75202e-07
6.79591e-07
6.82793e-07
6.76599e-07
6.72876e-07
6.72871e-07
9.32252e-07
9.27638e-07
9.2475e-07
9.20835e-07
9.17392e-07
9.13699e-07
9.11449e-07
9.07633e-07
9.03383e-07
9.00253e-07
8.95894e-07
8.93482e-07
8.9004e-07
8.85543e-07
8.82009e-07
8.80052e-07
8.76727e-07
8.73387e-07
8.70074e-07
8.65615e-07
8.62364e-07
8.59573e-07
8.57566e-07
8.54587e-07
8.51569e-07
8.49743e-07
8.4684e-07
8.43823e-07
8.40442e-07
8.33161e-07
8.30344e-07
8.27636e-07
8.25211e-07
8.22224e-07
8.26571e-07
8.23928e-07
8.21367e-07
8.18787e-07
8.11532e-07
8.05951e-07
8.06768e-07
8.0144e-07
7.99008e-07
7.99364e-07
7.97676e-07
7.95326e-07
7.93042e-07
7.90792e-07
7.8764e-07
7.85359e-07
7.837e-07
7.81469e-07
7.79333e-07
7.78489e-07
7.764e-07
7.74315e-07
7.72282e-07
7.68276e-07
7.6628e-07
7.66693e-07
7.65132e-07
7.58745e-07
7.5493e-07
7.53121e-07
7.51357e-07
7.49553e-07
7.47753e-07
7.56698e-07
7.54921e-07
7.53167e-07
7.51474e-07
7.49831e-07
7.4757e-07
7.42079e-07
7.38719e-07
7.34944e-07
7.34146e-07
7.32636e-07
7.30383e-07
7.28881e-07
7.27417e-07
7.29039e-07
7.27603e-07
7.24779e-07
7.22869e-07
7.21447e-07
7.20062e-07
7.20561e-07
7.19758e-07
7.18456e-07
7.17186e-07
7.17087e-07
7.15833e-07
7.14598e-07
7.13405e-07
7.07466e-07
7.05732e-07
7.04603e-07
7.03503e-07
7.02392e-07
7.01283e-07
7.10169e-07
7.09086e-07
7.07998e-07
7.06924e-07
7.04214e-07
6.93339e-07
6.92975e-07
6.9341e-07
6.92174e-07
6.91963e-07
6.91054e-07
6.90032e-07
6.89112e-07
6.88213e-07
6.87535e-07
6.89617e-07
6.88747e-07
6.86558e-07
6.87061e-07
6.84752e-07
6.84512e-07
6.8484e-07
6.83416e-07
6.81908e-07
6.81144e-07
6.81644e-07
6.81256e-07
6.80557e-07
6.74849e-07
6.73731e-07
6.73063e-07
6.72403e-07
6.71754e-07
6.82002e-07
6.8136e-07
6.80733e-07
6.80136e-07
6.77984e-07
6.67713e-07
6.66635e-07
6.66086e-07
6.65541e-07
6.67635e-07
6.69116e-07
6.68587e-07
6.68699e-07
6.69477e-07
6.68997e-07
6.68524e-07
6.68062e-07
6.6761e-07
6.64037e-07
6.62479e-07
6.62051e-07
6.61628e-07
6.61219e-07
6.63112e-07
6.67772e-07
6.67391e-07
6.66998e-07
6.66626e-07
6.65016e-07
6.56169e-07
6.55873e-07
6.6256e-07
6.56333e-07
6.66399e-07
6.66071e-07
6.64613e-07
6.56419e-07
6.54345e-07
6.54782e-07
6.56149e-07
6.55889e-07
6.55444e-07
6.55162e-07
6.5627e-07
6.58435e-07
6.60049e-07
6.59827e-07
6.56781e-07
6.58941e-07
6.72749e-07
6.78372e-07
6.51424e-07
6.39553e-07
6.39374e-07
6.39207e-07
6.39088e-07
6.43009e-07
6.49783e-07
6.51977e-07
6.49427e-07
6.49704e-07
6.56568e-07
6.61555e-07
6.56455e-07
6.50963e-07
6.52229e-07
6.51003e-07
6.61441e-07
6.61352e-07
6.61265e-07
6.58301e-07
6.47655e-07
6.47588e-07
6.49886e-07
6.51498e-07
6.51668e-07
6.51619e-07
6.50511e-07
6.48332e-07
6.48296e-07
6.48266e-07
6.50403e-07
6.5231e-07
6.52291e-07
6.52276e-07
6.51996e-07
6.49614e-07
6.50021e-07
6.50606e-07
6.48973e-07
6.47853e-07
6.50347e-07
6.53287e-07
6.5352e-07
6.5354e-07
6.50423e-07
6.48894e-07
6.48924e-07
6.49946e-07
6.52361e-07
6.62266e-07
6.52119e-07
6.48912e-07
6.53189e-07
6.59204e-07
6.60996e-07
6.61056e-07
6.63154e-07
6.79355e-07
7.00866e-07
6.83294e-07
6.55825e-07
6.43557e-07
6.40616e-07
6.4069e-07
6.46878e-07
6.54972e-07
6.57648e-07
6.57732e-07
6.5778e-07
6.55758e-07
6.52332e-07
6.5082e-07
6.50917e-07
6.51014e-07
6.52005e-07
6.55689e-07
6.58404e-07
6.58507e-07
6.5447e-07
6.54229e-07
6.57673e-07
6.58938e-07
6.65086e-07
6.65208e-07
6.58548e-07
6.49479e-07
6.49588e-07
6.52995e-07
6.59032e-07
6.59147e-07
6.59271e-07
6.49785e-07
6.49396e-07
6.49516e-07
6.49639e-07
6.52873e-07
6.55373e-07
6.55496e-07
6.55521e-07
6.57433e-07
6.57556e-07
6.5768e-07
6.56095e-07
6.54907e-07
6.58638e-07
6.78453e-07
7.16418e-07
7.20217e-07
7.20372e-07
6.62493e-07
6.46337e-07
6.46465e-07
6.46597e-07
6.46726e-07
6.52766e-07
6.61715e-07
6.71187e-07
6.71323e-07
6.60672e-07
6.54437e-07
6.54564e-07
6.54685e-07
6.57627e-07
6.62434e-07
6.62894e-07
6.63023e-07
6.63146e-07
6.63278e-07
6.59408e-07
6.54486e-07
6.56263e-07
6.63458e-07
6.71487e-07
6.78309e-07
6.73543e-07
6.59448e-07
6.54043e-07
6.54167e-07
6.54283e-07
6.5714e-07
6.65603e-07
6.68458e-07
6.68576e-07
6.64897e-07
6.61376e-07
6.61494e-07
6.61601e-07
6.65897e-07
6.6601e-07
6.70576e-07
6.70685e-07
6.67024e-07
6.57617e-07
6.55522e-07
6.56405e-07
6.59174e-07
6.59267e-07
6.59368e-07
6.59462e-07
6.59563e-07
6.59655e-07
6.61871e-07
6.64878e-07
6.65323e-07
6.65667e-07
6.65838e-07
6.65611e-07
6.61582e-07
6.61662e-07
6.61744e-07
6.64746e-07
6.66721e-07
6.67654e-07
6.68847e-07
6.68922e-07
6.6671e-07
6.66371e-07
6.67277e-07
6.66383e-07
6.6416e-07
6.65365e-07
6.6429e-07
6.72336e-07
6.72395e-07
6.67008e-07
6.62259e-07
6.60243e-07
6.59429e-07
6.59477e-07
6.6068e-07
6.66606e-07
6.66647e-07
6.6669e-07
6.66726e-07
6.66769e-07
6.64972e-07
6.63248e-07
6.6328e-07
6.63312e-07
6.64346e-07
6.67567e-07
6.67594e-07
6.65056e-07
6.65078e-07
6.65367e-07
6.65288e-07
6.65305e-07
6.65319e-07
6.65648e-07
6.77712e-07
6.79332e-07
6.76562e-07
6.70687e-07
6.72884e-07
6.72863e-07
9.34011e-07
9.28813e-07
9.25789e-07
9.21969e-07
9.19021e-07
9.15152e-07
9.11358e-07
9.07661e-07
9.04046e-07
9.0051e-07
8.96927e-07
8.93458e-07
8.89962e-07
8.86356e-07
8.82114e-07
8.77726e-07
8.74395e-07
8.73397e-07
8.70132e-07
8.66824e-07
8.63444e-07
8.57979e-07
8.54904e-07
8.54569e-07
8.51223e-07
8.47146e-07
8.46775e-07
8.43441e-07
8.41396e-07
8.36389e-07
8.30321e-07
8.27618e-07
8.24933e-07
8.2225e-07
8.26627e-07
8.23947e-07
8.21359e-07
8.18773e-07
8.1615e-07
8.05925e-07
8.03096e-07
8.0091e-07
8.00778e-07
8.00038e-07
7.97674e-07
7.9421e-07
7.91926e-07
7.90788e-07
7.89021e-07
7.8537e-07
7.83098e-07
7.82726e-07
7.80605e-07
7.7847e-07
7.76388e-07
7.74272e-07
7.69445e-07
7.67434e-07
7.66904e-07
7.64952e-07
7.62728e-07
7.60349e-07
7.5496e-07
7.53133e-07
7.51357e-07
7.49551e-07
7.4774e-07
7.54522e-07
7.54926e-07
7.53164e-07
7.44769e-07
7.39952e-07
7.38278e-07
7.38336e-07
7.38715e-07
7.35525e-07
7.33866e-07
7.32348e-07
7.31946e-07
7.31965e-07
7.30492e-07
7.29035e-07
7.27605e-07
7.26202e-07
7.24788e-07
7.2338e-07
7.21698e-07
7.17777e-07
7.16429e-07
7.15165e-07
7.18189e-07
7.17103e-07
7.13528e-07
7.1148e-07
7.10291e-07
7.08401e-07
7.10017e-07
7.08883e-07
7.03526e-07
7.02385e-07
7.0183e-07
7.10194e-07
7.09077e-07
7.07968e-07
7.01017e-07
6.95479e-07
6.96347e-07
6.95373e-07
6.94385e-07
6.92168e-07
6.91231e-07
6.90398e-07
6.92505e-07
6.91588e-07
6.89199e-07
6.87535e-07
6.87062e-07
6.88944e-07
6.88081e-07
6.87237e-07
6.8642e-07
6.85625e-07
6.8484e-07
6.84064e-07
6.82104e-07
6.82357e-07
6.80731e-07
6.76682e-07
6.7507e-07
6.74394e-07
6.73719e-07
6.73058e-07
6.72399e-07
6.71912e-07
6.82017e-07
6.81358e-07
6.80726e-07
6.79115e-07
6.69678e-07
6.6771e-07
6.67737e-07
6.68718e-07
6.67765e-07
6.6722e-07
6.66982e-07
6.69208e-07
6.687e-07
6.66477e-07
6.65993e-07
6.65692e-07
6.67832e-07
6.67613e-07
6.67159e-07
6.66629e-07
6.62075e-07
6.62428e-07
6.66219e-07
6.68168e-07
6.67777e-07
6.6738e-07
6.66992e-07
6.62113e-07
6.56506e-07
6.56172e-07
6.55839e-07
6.5552e-07
6.55199e-07
6.664e-07
6.66075e-07
6.62035e-07
6.56974e-07
6.56694e-07
6.56421e-07
6.56151e-07
6.55848e-07
6.55423e-07
6.55332e-07
6.56728e-07
6.5922e-07
6.59031e-07
6.60007e-07
6.7272e-07
7.19109e-07
7.70317e-07
6.7142e-07
6.399e-07
6.39537e-07
6.3937e-07
6.3921e-07
6.44456e-07
6.53202e-07
6.5674e-07
6.56623e-07
6.52733e-07
6.49702e-07
6.52652e-07
6.56157e-07
6.52894e-07
6.50962e-07
6.51095e-07
6.51001e-07
6.61444e-07
6.61353e-07
6.61269e-07
6.57532e-07
6.48195e-07
6.47907e-07
6.49719e-07
6.51248e-07
6.51667e-07
6.51618e-07
6.4892e-07
6.48331e-07
6.48297e-07
6.48267e-07
6.50418e-07
6.5231e-07
6.52291e-07
6.51325e-07
6.49579e-07
6.49571e-07
6.51876e-07
6.53466e-07
6.53474e-07
6.53478e-07
6.53493e-07
6.53504e-07
6.53524e-07
6.50015e-07
6.48867e-07
6.48894e-07
6.50449e-07
6.5899e-07
6.56104e-07
6.6524e-07
6.5722e-07
6.56867e-07
6.6399e-07
6.62971e-07
6.59097e-07
6.59155e-07
6.68747e-07
6.73905e-07
6.621e-07
6.50295e-07
6.44799e-07
6.44475e-07
6.4579e-07
6.47516e-07
6.52459e-07
6.57421e-07
6.57646e-07
6.57731e-07
6.54118e-07
6.50639e-07
6.50728e-07
6.50822e-07
6.50917e-07
6.53745e-07
6.58203e-07
6.58302e-07
6.58404e-07
6.58508e-07
6.54293e-07
6.54228e-07
6.60056e-07
6.60167e-07
6.6509e-07
6.63105e-07
6.49373e-07
6.49482e-07
6.52019e-07
6.56442e-07
6.59031e-07
6.59151e-07
6.56306e-07
6.49276e-07
6.49395e-07
6.5112e-07
6.53773e-07
6.54387e-07
6.54512e-07
6.53891e-07
6.54017e-07
6.54139e-07
6.54265e-07
6.5456e-07
6.5704e-07
6.60229e-07
6.68511e-07
6.91002e-07
7.16414e-07
7.15546e-07
6.56567e-07
6.46207e-07
6.46336e-07
6.47448e-07
6.49556e-07
6.52551e-07
6.63409e-07
6.65506e-07
6.71183e-07
6.71319e-07
6.62518e-07
6.54436e-07
6.54558e-07
6.55097e-07
6.60757e-07
6.6277e-07
6.62897e-07
6.63022e-07
6.57974e-07
6.54235e-07
6.54362e-07
6.54483e-07
6.5703e-07
6.66443e-07
6.7206e-07
6.72187e-07
6.66214e-07
6.60485e-07
6.56449e-07
6.56439e-07
6.60504e-07
6.66144e-07
6.68338e-07
6.68456e-07
6.68575e-07
6.6768e-07
6.61383e-07
6.61486e-07
6.616e-07
6.66956e-07
6.67063e-07
6.70576e-07
6.70686e-07
6.67904e-07
6.55733e-07
6.55617e-07
6.5897e-07
6.59824e-07
6.59922e-07
6.60019e-07
6.60488e-07
6.60584e-07
6.60232e-07
6.59416e-07
6.63322e-07
6.65668e-07
6.65752e-07
6.6585e-07
6.6464e-07
6.61581e-07
6.61664e-07
6.61743e-07
6.61964e-07
6.63733e-07
6.64586e-07
6.66359e-07
6.69797e-07
6.71917e-07
6.71989e-07
6.67828e-07
6.64095e-07
6.64153e-07
6.64224e-07
6.64284e-07
6.72336e-07
6.72394e-07
6.72453e-07
6.6141e-07
6.60101e-07
6.60151e-07
6.60013e-07
6.59028e-07
6.59069e-07
6.59113e-07
6.60383e-07
6.63261e-07
6.63663e-07
6.63214e-07
6.63248e-07
6.64964e-07
6.66739e-07
6.64396e-07
6.66329e-07
6.67596e-07
6.67622e-07
6.67644e-07
6.67665e-07
6.67685e-07
6.67702e-07
6.67716e-07
6.72035e-07
6.77712e-07
6.72707e-07
6.66223e-07
6.6516e-07
6.6453e-07
6.64023e-07
9.31858e-07
9.30826e-07
9.26663e-07
9.22995e-07
9.191e-07
9.13264e-07
9.09419e-07
9.06566e-07
9.03828e-07
8.98923e-07
8.96913e-07
8.93435e-07
8.88483e-07
8.84903e-07
8.81496e-07
8.77756e-07
8.76594e-07
8.73292e-07
8.70136e-07
8.66246e-07
8.61218e-07
8.58006e-07
8.57584e-07
8.54612e-07
8.50946e-07
8.4714e-07
8.4673e-07
8.43198e-07
8.41362e-07
8.36549e-07
8.3033e-07
8.27589e-07
8.25235e-07
8.22258e-07
8.26676e-07
8.23989e-07
8.21323e-07
8.14965e-07
8.11564e-07
8.09039e-07
8.03123e-07
8.00623e-07
7.99436e-07
7.98738e-07
7.95004e-07
7.9266e-07
7.93786e-07
7.91517e-07
7.89445e-07
7.87174e-07
7.84905e-07
7.82731e-07
7.80606e-07
7.7736e-07
7.7492e-07
7.72882e-07
7.69466e-07
7.6746e-07
7.6637e-07
7.6515e-07
7.64549e-07
7.61671e-07
7.54975e-07