/*--------------------------------*- C++ -*----------------------------------*\
  =========                 |
  \\      /  F ield         | OpenFOAM: The Open Source CFD Toolbox
   \\    /   O peration     | Website:  https://openfoam.org
    \\  /    A nd           | Version:  7
     \\/     M anipulation  |
\*---------------------------------------------------------------------------*/
FoamFile
{
    version     2.0;
    format      ascii;
    class       volScalarField;
    location    "5000";
    object      p;
}
// * * * * * * * * * * * * * * * * * * * * * * * * * * * * * * * * * * * * * //

dimensions      [1 -1 -2 0 0 0 0];

internalField   nonuniform List<scalar> 
160000
(
69068.9
69069.9
69072.5
69076.1
69080.1
69085.3
69091.9
69100
69110.4
69119
69127.5
69138.6
69150.3
69160.7
69172.2
69187
69204.7
69221.6
69235.4
69249.8
69268.5
69291.5
69314.6
69336.9
69362.7
69387.8
69406.9
69425.3
69446.4
69471.8
69504.8
69538.8
69564.3
69590.4
69627
69659.4
69684.5
69709.1
69740.2
69775
69807.2
69843.4
69876.8
69912.2
69945.2
69971.8
70003.7
70051.1
70098
70138.1
70179.5
70211.2
70243
70278.5
70311.9
70350.4
70387.4
70425.6
70485.9
70541.1
70572.5
70603.3
70652.8
70714.1
70780.9
70825.7
70865.6
70905.9
70949.9
71016.3
71055.9
71096.1
71144.5
71195.1
71250.1
71302.6
71355.7
71412.5
71464
71512.3
71558.4
71597.8
71641.1
71695.8
71746.4
71790.5
71841.8
71908
71974.8
72028.7
72085
72137.6
72177.4
72217.9
72272.3
72345.4
72416.2
72481
72547.6
72621.9
72690.6
72758.4
72816.9
72863.4
72919.4
72982.7
73049.6
73113.8
73168.5
73222.7
73277.8
73349.6
73417
73478.4
73554.1
73621.1
73688.2
73753.3
73803.1
73850.7
73909.3
73987
74061.6
74125.1
74182.7
74227.3
74272.5
74339.9
74415.8
74485.2
74564.5
74649
74702.6
74740.6
74785.1
74848.9
74912.8
74977.9
75067.3
75170.5
75238.2
75286.5
75348
75421.2
75472.5
75531
75602.8
75671.7
75747.6
75834.8
75921.8
76003
76094.1
76166.1
76239.2
76320.2
76392.2
76452.7
76514.3
76579.5
76645.8
76721.6
76804.4
76886
76974.1
77050.2
77104.2
77164.8
77236.6
77315.2
77389.4
77458.2
77546.9
77603.3
77653.8
77735.2
77815.8
77896
77956.6
78013.7
78101.4
78184.1
78257
78360.1
78450.1
78527.7
78606.9
78689.8
78773
78835.7
78894
78969
79048.2
79102.9
79143.8
79189.6
79235.6
79271.3
79318
79385.1
79446.7
79512.2
79572.1
79619.2
79661.7
79712.2
79792.3
79878.2
79945.8
80012.1
80076.1
80133
80193.8
80265.5
80325.9
80383.2
80455.9
80515.6
80567
80630.9
80694.5
80760.2
80846.2
80929
81004.5
81078.3
81149.9
81231.7
81313.4
81393.7
81519.6
81624
81700.8
81775.4
81857.4
81934.9
82018.8
82113.3
82216.9
82316.9
82405.7
82496.6
82566.9
82636.4
82711.8
82772.3
82831.8
82911
82994.2
83080
83179
83253.5
83323.5
83410.1
83485
83537.4
83595.9
83671.1
83743.5
83797
83848.3
83911.1
83981.9
84062.9
84139.5
84209.8
84285.4
84357.4
84418.4
84477.9
84562.5
84687.7
84794.5
84902.8
84993.2
85068.6
85132.8
85199.5
85298.5
85408.3
85498.5
85581.3
85656.3
85731.8
85816.6
85919.4
86007.9
86096.4
86162.2
86212.1
86268.2
86349.2
86449.9
86541.8
86632.2
86706.6
86778.3
86876.1
86959.4
87029.8
87116.5
87207.4
87307.5
87425.2
87540.1
87659.3
87764.1
87857.9
87955.7
88018.7
88079.8
88160.2
88239.8
88317.8
88423.9
88560.5
88678.7
88790.7
88890.1
88978.7
89081.4
89191.6
89287.7
89373.1
89476.6
89594.4
89679.6
89760.5
89873.9
90000
90111.3
90230.1
90363.9
90479.4
90592.9
90712.4
90805.8
90885.8
90958.2
91048.4
91226.2
91394.5
91531.9
91674.4
91785
91904.5
92093.4
92273.9
92451.6
92614.5
92763.3
92911.3
93021.3
93126.3
93264.9
93407
93532.4
93662.9
93826.5
94018.7
94203.7
94352.6
94480.9
94621.3
94759.3
94902.6
95062.5
95163.4
95262.1
95438.1
95673.4
95904.1
96107.1
96244.8
96396.3
96580.7
96755.7
96964.9
97182.5
97404.9
97599.3
97812.1
98013.4
98199.5
98399.8
98581.4
98745.8
98914.3
99100.6
99300.4
99505.6
99711
99889.4
100073
100300
100459
100618
100885
101084
101241
69069.8
69070.9
69073.6
69076.9
69081.3
69086.7
69093.2
69100.6
69110.1
69119.3
69128.1
69138.9
69151.9
69163.9
69175.1
69188.6
69206.8
69221.3
69234.3
69248.9
69267.7
69290.4
69312.5
69335.2
69362.1
69390.1
69409.5
69427.4
69448
69472.5
69502.9
69535.6
69564.3
69592.5
69628.6
69659.8
69683.7
69711.7
69748.1
69777.3
69805.8
69841.7
69876.8
69914
69945.9
69972.2
70005.3
70055
70101.3
70135.2
70170.3
70207.8
70246.4
70280
70313.5
70356.2
70393.4
70433.4
70482.6
70530.8
70572.2
70610.1
70656
70715.5
70776.5
70822.5
70869.2
70914.5
70961.3
71009.1
71050.1
71092.9
71142.2
71196.9
71252.4
71302.9
71355.3
71412.1
71463.3
71510.6
71556.1
71599.7
71648.1
71705.7
71752.5
71792.1
71840.7
71903.9
71970
72027.9
72079.7
72132
72176.7
72219.6
72279
72353.1
72421.6
72487.8
72552.7
72625.2
72692.7
72755.1
72820.7
72867.5
72914.1
72979
73047
73108.7
73166.2
73221.3
73277.4
73346.7
73417.9
73488.4
73560.2
73625.3
73690.4
73751
73804.8
73855.1
73909.1
73978
74052.5
74117.5
74177.7
74228.5
74281
74348.7
74417.9
74488.2
74571.5
74655.2
74702.5
74741.1
74790.3
74861.9
74917
74970.8
75067.5
75169.7
75240.6
75291.2
75348
75414.2
75468.5
75530.7
75604.5
75676.7
75759
75852.4
75922.2
75993.1
76095
76168.6
76237
76312.4
76383.7
76448.5
76516.9
76585.4
76653.4
76723.1
76797.3
76885.4
76979.1
77055.1
77110
77168.7
77235.4
77301.6
77377.6
77455.5
77549
77604.8
77662.6
77742.4
77811.1
77885.4
77954.7
78019.8
78104.9
78191.7
78278.5
78379.1
78456.8
78526.9
78605.3
78690.3
78771.9
78831.7
78888.5
78967
79053.8
79108
79149.7
79190.3
79230.6
79268.4
79313.1
79378.6
79442.3
79504.8
79565.9
79617.3
79659.5
79705.8
79781.4
79865.8
79935
80003.2
80069.1
80131.3
80189.7
80257.5
80326.8
80386.2
80449.1
80512.6
80570.8
80634.3
80698.8
80773.9
80855.4
80933.6
81008.6
81080.9
81153.2
81234.2
81314.6
81398
81516.8
81626.9
81702.3
81770.1
81850.5
81932.6
82020.3
82114.3
82218.6
82318.4
82411.3
82507.1
82569.7
82629.5
82704.7
82766.1
82820.5
82895.3
83000.9
83097.3
83186.5
83258.2
83317.8
83388.3
83469.7
83530.2
83594.6
83663.6
83729.2
83793.3
83856.2
83921.7
83990.3
84068.1
84138
84203.9
84282.1
84355.4
84414.6
84480
84582
84689
84787.9
84901.2
84992.6
85069.3
85130.2
85194.9
85299.6
85406.6
85498.4
85580.4
85656.5
85733
85814.7
85906.6
85997.6
86091.2
86166.7
86226.9
86289.6
86362.9
86446.1
86531.3
86624.6
86706.2
86782.1
86876
86958.3
87026.5
87107.7
87200.5
87300.3
87420.7
87527.5
87636
87740.5
87837.2
87934.2
88008.5
88078.9
88161.5
88238.9
88318.4
88417.4
88547.3
88679.9
88795.9
88891.5
88979.4
89075.9
89182.2
89280.6
89366.7
89467.7
89597
89688.4
89768.2
89873.9
90009.6
90111.8
90214.8
90357.2
90469.5
90574.7
90701.3
90795.2
90875.3
90964
91083.4
91245.9
91399.8
91529.8
91658.1
91783.6
91911.1
92067.4
92250.6
92443
92615.9
92768.3
92915.5
93026.7
93128.4
93260.8
93413.2
93539.2
93663.4
93821.1
94019.3
94204.3
94349.5
94475
94608.3
94742
94893.2
95046.8
95161.8
95288.1
95468.3
95659.6
95863.7
96064
96235.6
96403.8
96593.2
96793.3
96993.1
97204.1
97413.6
97598.2
97816.8
97993.4
98151.5
98375.7
98577
98747.9
98927.5
99114.1
99294.7
99499.3
99709.8
99883.3
100068
100284
100449
100622
100863
101070
101243
69071.8
69073.6
69076.1
69079.3
69083.2
69088.3
69094.9
69102
69110.7
69120.3
69129.1
69140
69154.2
69167.3
69178
69190.9
69206.3
69220
69234.8
69250.4
69268.4
69288.5
69310.1
69335.9
69361.6
69388
69411.3
69431.3
69450.3
69473.7
69506
69538.4
69567.7
69595.2
69625.9
69657.9
69684.9
69716.3
69753.5
69781.9
69808.9
69840.4
69876
69914.8
69944.7
69972.4
70013.1
70063
70104
70134
70163.8
70200.8
70245
70283.2
70320.4
70362.5
70400.5
70440.5
70481.4
70523.6
70573.3
70616.3
70658.4
70713.7
70777.1
70821.7
70863.9
70913.8
70961.8
71005.4
71052.4
71099.8
71145.6
71199.5
71253.1
71301.9
71356.8
71411.1
71458.1
71508.4
71557.7
71601.7
71650.3
71708.1
71758.8
71801.6
71849.3
71899.7
71958.6
72021.2
72073.4
72124.5
72176.6
72227.1
72289.3
72362.1
72430.4
72499.3
72564.4
72630
72696.1
72756.4
72816.2
72869.6
72916.7
72971.6
73037.4
73105.7
73168.8
73223.6
73283.4
73350.9
73417
73493.4
73563.6
73629.1
73693.6
73748.6
73799.8
73855.7
73916.2
73983.9
74049.5
74113
74173.5
74228.4
74287.8
74353.4
74422.2
74498
74578.6
74645.1
74697.8
74746.3
74799.5
74865.8
74924.8
74984.2
75069.2
75166.8
75242.1
75294.5
75349.4
75415.4
75470.7
75529.4
75604.3
75684
75769.9
75854.4
75924.1
76001.9
76100.3
76168.9
76230
76305.6
76378.8
76443
76516
76588.5
76659.6
76728.3
76799
76884.2
76977.8
77058.3
77120.3
77182.6
77242.1
77298.2
77365.8
77444.7
77524.6
77600.8
77682.7
77754.9
77815
77880.8
77955
78025.3
78103.5
78204.9
78305
78388.4
78459.8
78529.2
78605.5
78685.5
78762
78828.8
78895
78980
79052
79108.7
79154.8
79191.6
79226.7
79264.4
79308.1
79370.7
79438.5
79495.8
79547.5
79598.5
79653
79710.1
79789.7
79857.5
79917.5
79998.2
80066
80121.1
80180.3
80255.3
80326.2
80386.5
80447.5
80514.1
80585.2
80651.2
80708.6
80775.7
80854.1
80931.7
81010.6
81085.7
81163
81244.6
81316.3
81397.9
81511.3
81619.5
81707
81784.8
81855.6
81926.6
82016
82119.2
82230.4
82321.8
82410.1
82507.2
82569.4
82625.4
82692.2
82756.7
82814.2
82883.4
83004.7
83107.2
83191.2
83256.1
83316.8
83381.6
83451.2
83519.4
83586.8
83653.5
83720.2
83794.4
83866.8
83928.8
83995.4
84070.1
84142.7
84209.1
84275.1
84341.9
84409.8
84492.7
84589.8
84691.4
84795.1
84901.3
84986
85064.4
85128
85193.6
85297.8
85399.2
85494.9
85576.8
85650.8
85735.3
85823.6
85907
85991.3
86088.2
86170.6
86244.3
86310.3
86375
86451
86531.4
86616.2
86696.7
86777.6
86875.1
86952.7
87020.9
87107.1
87207.2
87315.5
87417
87511.8
87607.4
87709.5
87819.3
87918
87995.1
88074.1
88155.2
88229.6
88315.7
88428.6
88561.7
88681.2
88792.2
88887.4
88977
89068.1
89161
89260.1
89362.3
89480.1
89595.2
89689.7
89778.5
89884.5
90020
90120.1
90212.9
90341.3
90458.1
90559.6
90684.1
90779.5
90863.5
90968
91100.7
91256.2
91419.1
91540.7
91646.5
91773.2
91913.3
92056.2
92222.4
92429.9
92624.2
92769.4
92912.9
93024.4
93128.6
93278
93430.6
93550.8
93665.4
93803
94003.3
94198.8
94346.9
94466.5
94582.7
94707.3
94873.7
95042.1
95174.7
95333.5
95496.4
95651.8
95826.4
96013.9
96206.4
96397.8
96592.2
96806.9
97037.1
97250.2
97420.9
97594.5
97818.1
97984.4
98126.3
98328
98569.2
98760
98926.5
99099.4
99279.6
99491.2
99698.8
99877.8
100068
100263
100441
100644
100859
101050
101236
69074.5
69076
69078.3
69081.3
69085
69089.9
69096.3
69103.2
69111.1
69120.4
69130.4
69143.6
69157.8
69169.5
69179.9
69192.9
69207.7
69221.9
69237.4
69252.8
69270.8
69289
69310.1
69338.8
69360.9
69384.7
69412.7
69432.9
69452.6
69479.2
69510.2
69543.4
69573.9
69600.4
69626.7
69656.6
69688
69722.9
69758.7
69784.6
69809.6
69838.5
69873.6
69913.2
69946.9
69980.3
70021.6
70065.7
70102.6
70135.1
70165.1
70197.4
70241.3
70283.4
70320.7
70361.7
70404.2
70446.6
70487.6
70530.7
70577
70618.7
70661.1
70719.2
70781.2
70826.3
70868.7
70915.1
70959.2
70999.5
71046.3
71105.6
71155.5
71205.7
71250
71292.7
71348.8
71405.3
71456.5
71513.3
71559.1
71603.4
71656.2
71718.2
71766.5
71808.1
71854.5
71901.9
71957.5
72014.6
72069
72125.3
72177.4
72235.3
72303.7
72365.9
72428.3
72508.7
72580.6
72637.3
72695.1
72757.9
72815.6
72869.3
72919.4
72971.2
73029.9
73100.1
73165.9
73224.9
73294.4
73360.6
73421.6
73491.2
73561.8
73633.4
73700.8
73751.5
73798.2
73858.1
73923.3
73988.8
74051.9
74117.5
74171.9
74224
74285.6
74352.6
74426.6
74500.8
74578.2
74641.1
74697
74753.7
74808.1
74871
74932.7
74995.7
75071.5
75155.9
75232.1
75299.3
75362.6
75423.4
75479.8
75534.6
75602.3
75691.3
75782.5
75855.4
75924.2
76003.6
76088.9
76167.9
76237.3
76313.3
76380.3
76443.9
76523
76592.4
76657
76727.4
76797.8
76879.9
76981.2
77067.6
77131.8
77191.5
77246.2
77296.8
77359.4
77445.7
77525.1
77599.9
77679.7
77755.7
77821.4
77891.6
77969.3
78036.5
78106.5
78204.4
78313.8
78390.7
78457.2
78523.2
78598.5
78683
78763.7
78843.9
78921.3
78983.9
79036.7
79095.8
79152.3
79193
79226.6
79261.5
79304.8
79363.6
79432.2
79489.1
79535.8
79581.6
79638.5
79705.8
79786.4
79853.1
79914
79999.4
80058.4
80109.8
80173
80251.6
80325.4
80390.4
80452.7
80521.2
80595.3
80658
80716.6
80781.1
80850.1
80926.8
81013.2
81092.3
81170.3
81252.8
81328
81414
81507.1
81602.7
81713.2
81793.8
81863.4
81939.1
82022.6
82113.9
82217.4
82311.5
82403.4
82505.9
82568.1
82624.5
82686.9
82749.5
82809.8
82880.1
83003.3
83103.7
83183.5
83247.8
83314
83374.3
83434.2
83511.3
83580.7
83643.3
83712.6
83793.1
83870.9
83935
83998.5
84069.3
84148
84219.3
84282.3
84341.1
84412.1
84491.9
84570.4
84676.2
84798
84895
84979
85055.5
85124.6
85197.3
85287.7
85390.2
85494.5
85579.6
85659.7
85738.4
85819
85905.8
85993.4
86091.4
86169
86245.3
86326.9
86388.1
86452.6
86525.1
86602.9
86687.9
86777.1
86872.8
86956.7
87040.8
87131
87221.2
87302.5
87389.1
87492
87596
87700.8
87808.4
87903.1
87985.2
88074.6
88149.5
88220.4
88313.2
88430
88554.6
88676.3
88800.6
88883.9
88960.3
89050.8
89146.5
89252.4
89370
89495.9
89594.1
89688.2
89776.3
89869.4
90013.6
90133.1
90231.6
90341.4
90454
90551.3
90658.1
90760.3
90847.8
90966.5
91115.9
91263.4
91416.5
91550.8
91651.4
91761.9
91912.8
92071.9
92232.2
92411.9
92601.5
92745.8
92890.2
93022.6
93142.4
93295
93439.2
93566.6
93685
93809.1
93970.6
94158.3
94327
94461
94579.2
94690.2
94839.7
95027.6
95183
95345.9
95490.9
95632
95799.4
95982.5
96186.8
96411.2
96615.7
96827
97087.5
97285.5
97429.8
97589
97817.7
97976.7
98109.1
98294.9
98551.5
98759.2
98917
99084.1
99261.7
99448.8
99665
99868.5
100066
100266
100455
100649
100851
101052
101240
69076.5
69078.1
69080.4
69083.3
69087.2
69092.2
69098.2
69105
69112.8
69122.7
69134.5
69149.8
69161.6
69170.6
69180.8
69195.3
69210.3
69226
69241.6
69255.5
69270.7
69289.5
69312
69339.8
69363.9
69390.5
69416.5
69436.4
69458.7
69484.2
69509.7
69543.5
69577
69604
69629.3
69660
69695.8
69729.7
69757.7
69782.8
69811.2
69840.5
69873.3
69915.2
69953
69989
70030.7
70071.8
70102.9
70132.1
70164.5
70199.6
70241.8
70284
70324.6
70365.1
70407
70449.3
70490.9
70535.2
70580.9
70626.3
70672.7
70728
70788.5
70831.6
70871.9
70916.1
70959.7
71001
71048.3
71104.9
71152
71202.1
71249.7
71291
71341.8
71402.6
71461.2
71511.1
71556.4
71609
71663.9
71722.2
71771
71813.1
71859.2
71906.7
71957
72012.7
72073
72133.5
72184.3
72239.9
72309
72370.5
72431.7
72508.7
72584
72644
72699.6
72758.9
72819.1
72869.5
72920.7
72974
73031.1
73101.5
73164.5
73223
73296
73372.8
73434.2
73489.1
73550.1
73632.4
73711.3
73759.8
73804.8
73864.8
73929
73991
74054.8
74116
74166.5
74220.5
74287.8
74356.6
74428.2
74500.8
74578.5
74639.8
74697.1
74761.3
74819.6
74876.1
74939.2
75007.9
75075.3
75150
75227.5
75303.7
75368.2
75428.1
75488.6
75546.2
75615.5
75699.5
75781.3
75858.3
75936.4
76012.4
76086.7
76161.8
76236.6
76311.9
76384
76456.2
76536
76598.7
76656.9
76724.1
76795.3
76876.5
76980.9
77071.2
77133.8
77191.6
77249.6
77302.7
77368.6
77452.6
77527.4
77604.6
77682.7
77761.5
77837.4
77910.6
77985.7
78051.2
78117.5
78198.8
78290.6
78373.8
78445.6
78516.5
78602.2
78702.1
78790.2
78858
78918.6
78973.6
79019.9
79075.3
79145.6
79190.1
79223.4
79259.9
79304.8
79361.8
79428.2
79482.7
79528.2
79571.6
79624.7
79697.8
79780.3
79852.1
79920.6
79993.8
80048.2
80101.4
80175.7
80253.1
80334.2
80398.9
80453.7
80519.1
80589.7
80656.9
80726.3
80793.6
80856.1
80926.6
81015.9
81101
81180.5
81259.3
81337.1
81430.3
81517.4
81605.5
81714.7
81795.2
81868.4
81949.6
82034.2
82124.2
82222.5
82304.8
82387.2
82481.8
82557.5
82621.9
82683.2
82743.7
82803.5
82877.8
82999.1
83087.8
83162.2
83232.2
83297.7
83364.1
83427.6
83499.7
83577.7
83643.3
83711.6
83787.6
83863.3
83939.3
84006.2
84075.3
84156.8
84228.7
84285.1
84338.7
84407
84488.9
84575.2
84699.6
84807.8
84880.5
84958.1
85041
85113.8
85196.9
85288.1
85392
85490.7
85572.2
85655.2
85743.7
85828.6
85907.8
85986.6
86074.8
86167.1
86254.4
86329.8
86389.5
86450.5
86521.8
86602.9
86686.5
86776.3
86885.4
86984.2
87063.4
87136.9
87210.1
87284
87370.7
87473.5
87583.8
87710.7
87804.7
87891.1
87982.4
88075
88142.8
88209
88311
88437.6
88561.2
88673.1
88786.8
88875.8
88950.1
89036.3
89138.8
89253.4
89384.3
89501.2
89585.9
89675.4
89764.4
89851.8
89990.4
90138.9
90244.2
90334.5
90434.1
90547.4
90649.8
90746.6
90849.5
90990
91133.8
91263
91403.6
91539.7
91649.7
91773.7
91944.1
92103.6
92252.8
92411.5
92582.8
92721.6
92851.3
92998.1
93143.4
93303.1
93440.2
93569.6
93696.4
93826.1
93971.9
94137.7
94306.6
94453.3
94575.9
94683.8
94819.7
95004.1
95182.9
95335.7
95474.8
95618.2
95778.5
95953.9
96159.5
96439.6
96667.6
96852.7
97079.8
97292.2
97440.2
97591.6
97785.9
97961.7
98104.7
98297.4
98564.4
98762.4
98904.5
99057.7
99244.6
99430.2
99634.7
99835.4
100049
100294
100472
100629
100812
101038
101242
69079.4
69081.2
69083.6
69087
69091.5
69096.4
69101.5
69108.3
69117
69128
69139.3
69152.7
69163.5
69172.7
69184
69196.7
69211.1
69229
69246.3
69261.3
69275.9
69292
69313.8
69343
69369.2
69392.7
69417.5
69440.4
69466.8
69488.3
69510.8
69544.1
69578.4
69608.6
69635.5
69665.5
69699.4
69730.9
69758.3
69784.9
69814.4
69844.4
69878.8
69921.1
69957.3
69992.2
70033.2
70073.4
70107.1
70135.3
70164.4
70203.6
70246.6
70285
70327
70370.5
70410.7
70452.1
70497.9
70542.8
70589.1
70640.1
70684.6
70732.9
70791.3
70833.6
70872.2
70916.9
70962.5
71004.9
71051.7
71100.2
71143.7
71196
71250.2
71292.5
71339.1
71397.6
71458
71514.3
71563.8
71614.8
71671.8
71727
71773.9
71819
71867.1
71911.2
71956.4
72013.2
72081.8
72142.6
72189
72240.9
72311.2
72378.3
72443.4
72509.2
72575.9
72646
72708.9
72766.8
72818.6
72865.2
72917.6
72977.3
73044.2
73114.3
73167.6
73219.7
73291.6
73374.6
73440.7
73494.5
73553.4
73635.2
73716.7
73770.8
73816.6
73868.8
73933.8
73993.4
74057.7
74113.2
74161.3
74227.2
74293.4
74355.9
74426.4
74500.8
74576.2
74639.5
74701.5
74774.5
74832.5
74880.4
74936
75003.3
75076.2
75155
75234.3
75313
75374.9
75432.8
75497.5
75564.4
75631
75704
75783.5
75868.2
75944.2
76016.4
76085.4
76153.2
76230.9
76316.1
76403.2
76475.3
76543.9
76601.3
76653.9
76719.9
76801.9
76882.9
76968
77061.3
77134.3
77195.9
77255.5
77313.6
77382.6
77468.1
77537
77603.8
77684.9
77776.9
77855.4
77930.4
78002.6
78061.6
78124.1
78206.6
78287.3
78355.4
78421.6
78507.9
78619.7
78711.6
78803.8
78855.4
78905.1
78959.6
79004
79052.3
79124.1
79179.6
79217.7
79256.8
79304.4
79360.9
79426.8
79482.1
79525.9
79568.2
79621.1
79686.2
79763
79843
79913.3
79982.4
80044.7
80108.9
80183.3
80255.9
80339
80404.9
80456.3
80512.8
80583.6
80666.3
80742.1
80810.7
80872.9
80937.2
81015.5
81100.6
81187.3
81265.2
81341.1
81433
81539
81638.3
81717.1
81793.6
81877.4
81961.7
82042.1
82123.4
82209.1
82293.5
82382.3
82472.4
82546
82612.5
82675.6
82741.9
82800.9
82866.7
82983
83070.7
83142.3
83211.9
83279.7
83349.6
83418.5
83491.1
83570.3
83644.3
83722.1
83785.9
83851.3
83938.8
84015.5
84087
84160.3
84223.5
84281.7
84341.9
84410.9
84490.2
84588.4
84707
84808.5
84873.7
84941.5
85031
85110.2
85200.1
85287.8
85387.9
85483.7
85565.6
85648.6
85733.6
85824
85912.2
85999.1
86082
86165.8
86253.3
86322.5
86378.1
86438.7
86516.6
86610.6
86703.3
86797.8
86897.7
86995.6
87060.7
87129.2
87206
87278.6
87364.9
87469.9
87579.7
87709.6
87789.7
87867.7
87970
88066.3
88139.5
88211.5
88317.6
88444.9
88563.2
88671.8
88773.8
88864.4
88947.3
89035.1
89141.1
89270.7
89394.6
89492.4
89572.1
89657.4
89752.6
89845.6
89970.4
90131.2
90238.6
90328.5
90431.1
90540.8
90633.3
90730.2
90861.2
91014.8
91135.1
91251.4
91406.9
91549.2
91656.9
91779
91956.9
92133.8
92279.6
92408
92546.3
92704.4
92843.7
92977.2
93132.6
93293.1
93428.6
93567.8
93704.5
93841.8
93985
94136.2
94284.2
94438.3
94568.1
94675.2
94807.9
94991.6
95179.8
95327.5
95462
95608
95780.7
95953.7
96144.9
96422.2
96680.4
96865.3
97057.8
97277.1
97442.6
97598.1
97771.8
97960.5
98119.4
98299.1
98557.1
98746.7
98890.4
99049.6
99231.1
99412.2
99611.8
99821.5
100060
100318
100471
100608
100783
101015
101238
69084.4
69085.7
69088
69091.7
69096.1
69100.3
69105.2
69112.3
69120.9
69131.4
69143.1
69155.5
69165.4
69174.8
69186.7
69200.7
69216.9
69232.9
69250.8
69267
69280.6
69296.3
69321.4
69350.3
69374.9
69396.5
69418.9
69441.6
69467.9
69491.1
69515.1
69546.6
69580.9
69613.3
69642.8
69671.1
69700.1
69730.7
69760.9
69791.6
69821.2
69850.1
69884.8
69925.9
69960.2
69994.5
70035.7
70073.9
70108
70138.5
70169.6
70208.5
70250.6
70288
70330
70376.7
70418.2
70460
70507.9
70552.3
70599.5
70650.1
70690.9
70732.3
70785.7
70836.5
70875.6
70913.5
70957.8
71008.4
71058.2
71099.2
71139.9
71193.2
71247.5
71294.5
71345.4
71400.5
71459
71516.7
71568
71622.7
71682.9
71728.8
71772.1
71821.9
71871.5
71915.7
71963.3
72020.3
72088.8
72149.5
72196.7
72250.1
72320.1
72394.2
72455.4
72508.9
72568.4
72646.7
72711.4
72767.7
72815.9
72863.2
72922.1
72980.8
73048.9
73124.1
73172.8
73222.9
73302.9
73381.2
73445.3
73500.9
73563.5
73644.5
73720.3
73771.6
73820.8
73872.3
73928
73994.3
74064
74114.1
74161.7
74235.9
74303.1
74361
74423.7
74495
74577.2
74650.7
74717.8
74785
74835.2
74883.2
74935.3
74994.3
75080.8
75165.2
75243.3
75317.6
75384.4
75443.7
75504.2
75571.6
75642.6
75720.7
75801.2
75886.7
75947.7
76012
76085
76145.3
76224.5
76322.6
76418.5
76487.6
76551.9
76605.5
76653.7
76719.3
76814.7
76891.6
76968.3
77061.1
77143.8
77204.7
77259.5
77322.2
77389.8
77466.7
77541.7
77610.3
77691.5
77787.8
77868.5
77945.3
78018.3
78078.4
78140.6
78216.7
78286.2
78343
78403.4
78498.9
78616.5
78698.6
78777.7
78839
78898
78954.2
78995.3
79037.9
79101
79163.2
79210.3
79253.8
79301
79361.2
79430.6
79485.9
79530.4
79573
79621.8
79673
79738.6
79832.1
79902.7
79967.8
80044.1
80121.3
80189
80258.1
80341
80410.6
80463.9
80518.9
80589.1
80678.4
80752.5
80821.6
80889.9
80954.4
81020.7
81097.5
81186.6
81270.4
81354.8
81445.3
81557
81648
81723.1
81807
81891.5
81969.9
82043.6
82117.8
82197.9
82283.3
82373.2
82462.1
82535.4
82596.4
82655.4
82718.6
82795.7
82872.9
82968.2
83051.5
83124.1
83197.4
83271.1
83344.7
83410.8
83482.8
83560.1
83632.7
83708.1
83778.4
83853.6
83949.5
84024
84085.9
84154.1
84220.5
84285
84349.7
84412
84488.4
84587.9
84702.2
84802.4
84870.2
84939.7
85030.9
85112
85193.1
85277.9
85377
85480.6
85567.4
85648.4
85729.1
85820.6
85906.8
85998.2
86088
86171
86257.6
86320
86367
86422.2
86510.3
86625.1
86730.1
86815
86899.4
86981.6
87044.7
87112.9
87204.8
87284.6
87371
87468.6
87570.4
87684.3
87765.5
87840
87950
88065.2
88153.2
88236.9
88333
88441.3
88549.9
88661.7
88768.2
88858.9
88950.7
89037.6
89132.8
89266.2
89390.5
89486.8
89569
89650.1
89739.5
89846.4
89973.4
90101.5
90218.1
90322.6
90431
90534.3
90620.1
90715.1
90869.4
91027.9
91135.2
91242.2
91397.3
91550.3
91667.6
91795.6
91965.4
92148.6
92291.8
92407.1
92524.9
92666.9
92830.9
92983.6
93139.7
93285.9
93412.1
93551.6
93709.9
93859.4
93994.6
94127.1
94262.3
94418.2
94560.4
94678.5
94817.2
94986
95142
95290.4
95452
95612.9
95782.1
95952.9
96138.5
96388.7
96684.9
96897.8
97074
97251.5
97430.8
97616.3
97800.7
97979.6
98137.2
98309.6
98529.9
98712.6
98858.7
99019.3
99208.5
99400.2
99597.7
99810.2
100063
100286
100449
100609
100804
101043
101245
69089.8
69090.8
69093.2
69096.3
69100.2
69104.5
69109.8
69116.8
69124.9
69135.2
69147
69158.9
69168.9
69178.9
69191.9
69207.9
69222.3
69235.5
69252.7
69271.6
69287.7
69306.8
69329.2
69353.5
69379.1
69402.7
69421.1
69441
69469.3
69493.9
69520.3
69553.4
69588
69616.3
69642.7
69672.9
69704.7
69739.1
69769.9
69796.8
69826.5
69858
69893.1
69931.2
69964
69998.3
70037.3
70074
70106.8
70138.1
70175
70216.1
70255.1
70293.4
70337.9
70384.7
70428
70473
70520
70559.6
70602.7
70652.1
70694.2
70736.4
70786.7
70835.9
70876.8
70913.3
70954.4
71008.1
71057.4
71096.8
71138.6
71196.6
71250.9
71298.9
71349.4
71408
71470.8
71523.7
71573.1
71628.4
71680.5
71727.6
71776.3
71829.5
71879.1
71920
71966.1
72026.8
72095.9
72156.7
72208.6
72266.6
72330.3
72392.9
72459.4
72518.5
72574.5
72637.7
72705.1
72764.7
72814.1
72867.4
72929.3
72988.6
73058.1
73127
73180
73241.2
73316.5
73380.4
73448.9
73510.8
73578
73651.7
73714.3
73767.4
73823.8
73877.3
73931.8
74000.2
74067.1
74113.3
74160
74237.1
74315.2
74375.4
74430.2
74495.7
74585.8
74665.7
74726.2
74780.7
74832.6
74886
74938.2
74999.7
75097.1
75176.9
75243.4
75314.8
75393.7
75453.2
75510.8
75586.4
75669.6
75738.5
75809.2
75887.4
75953.8
76031.2
76092.1
76145.9
76223.7
76320.2
76413.9
76490.4
76560.1
76613
76663.6
76737.2
76826.4
76894.3
76966.5
77066.1
77159.8
77212.8
77258.6
77320.2
77400.9
77469.4
77533.6
77612.2
77710.4
77803.7
77882.1
77958.9
78039.1
78104.8
78162.4
78221.3
78277.6
78333.5
78393.1
78482.1
78606.4
78679.3
78745.9
78810.6
78876.6
78943.6
78987.6
79030.5
79086.9
79148.4
79204.1
79252.2
79298.8
79361.2
79430.8
79487.3
79534.4
79579.4
79626
79669.6
79721.9
79806.6
79887.5
79964.3
80050
80121.9
80191.4
80265.3
80344.7
80412.5
80469.1
80529.8
80600
80684.5
80766.9
80837.2
80899.7
80959.9
81028.1
81117.1
81197.1
81273
81361.6
81452.3
81555.3
81647.7
81727.5
81814.3
81896.9
81969.5
82040.6
82112.7
82194.4
82283.9
82365.2
82448.3
82526.9
82586.6
82643
82703
82780.2
82859
82939.3
83031.8
83113.7
83184.1
83261.4
83336.6
83401.8
83481.3
83557.7
83619.3
83690.6
83768
83852.4
83952.3
84029.6
84088.2
84151.3
84222.2
84289.8
84350.9
84409.6
84488.2
84584.7
84688.7
84782.6
84859.5
84941.5
85033
85116.3
85199
85275.5
85366.3
85476.3
85569
85650.7
85734.4
85828.4
85903.5
85982.7
86076.1
86165.9
86257.8
86318.6
86364.4
86414.5
86501
86636.3
86744.8
86817.2
86894.9
86966.6
87029.3
87103.6
87195.4
87287.5
87380.8
87469.8
87559.1
87651.6
87738.9
87825.4
87936.6
88067
88163.8
88246.7
88327.6
88421.9
88546.1
88660.4
88764.6
88856
88947.1
89039.1
89132.9
89255.5
89381.7
89474.9
89560.5
89642.9
89731.2
89856.4
89996.5
90098.2
90196.6
90316.8
90422.4
90521.1
90610.4
90710.6
90875.3
91026.9
91141.7
91260.3
91402.4
91556.6
91674.9
91801.9
91972.5
92150.7
92280.5
92394.1
92521.2
92653.4
92804.7
92988.6
93148.3
93275.4
93396.3
93535.1
93691
93851
94008.2
94132
94246.5
94381.6
94533.1
94681.4
94837.9
94997.6
95130.3
95262
95430
95603.6
95776.8
95949.9
96143.7
96388.5
96662.7
96901
97076.2
97242.4
97440.1
97646.3
97818.1
97975.7
98153.1
98334.2
98493
98658.7
98827.5
99004.1
99200.1
99393.3
99591.9
99814.4
100076
100256
100402
100585
100827
101067
101248
69095.1
69095.8
69097.6
69100.7
69104.8
69108.6
69113.7
69121.1
69130.1
69141.1
69151.6
69162.3
69172.8
69183.8
69197.8
69213.5
69227.3
69240.8
69260
69280.1
69297.8
69315.6
69334.5
69357
69381.2
69404
69424.3
69447.7
69474.3
69499.7
69528.7
69560.5
69592.7
69620.2
69647.4
69680.1
69712.7
69750.1
69776.4
69799.2
69827
69862.7
69900.3
69935.8
69968.5
70004.2
70040.1
70076.6
70109
70139.9
70180.1
70227.3
70262.8
70297.7
70345.5
70391.9
70435.7
70483
70527
70564.4
70606.8
70655.6
70699.2
70742.1
70786
70830.4
70877.4
70916.5
70955.9
71008.2
71058.1
71100
71146.2
71202.9
71252.6
71298.2
71353.3
71420.2
71482
71529.5
71575.5
71630
71682.3
71730.8
71782.2
71838
71885.8
71927.2
71973.8
72032.2
72099.4
72160.6
72217.3
72278.9
72341.3
72400.1
72466
72526.5
72580.1
72640.9
72708.6
72763.1
72812.7
72872.6
72930.1
72989.9
73060.5
73128.2
73193.2
73274.3
73331.7
73386.6
73451.5
73510.6
73579.3
73651.9
73711.7
73767.9
73829.4
73881.1
73935.5
74002.8
74064.3
74116.5
74170.9
74235.6
74311.7
74380.6
74445.9
74522.3
74594.9
74662.2
74724.7
74782.9
74838
74889.2
74943.9
75020.2
75109.3
75182.1
75243.2
75310.4
75396.1
75466
75534.9
75610.6
75680.2
75749.1
75827.9
75896.9
75960.2
76040
76101.5
76161.4
76233.5
76311.8
76405.2
76488.3
76565.3
76623.4
76680.1
76750.3
76820
76889.7
76973.1
77073.1
77165.4
77224.6
77274.5
77327
77393.3
77468.8
77540.2
77626.9
77728.6
77812
77889.8
77976.1
78068.8
78116.7
78164.2
78218.7
78270.8
78327.1
78391.5
78484.8
78584.5
78657.1
78729.3
78795
78855.2
78919.9
78971.9
79022.6
79079.2
79136.3
79196
79249
79297.8
79357.7
79430.2
79488.7
79536.3
79584.2
79632.1
79676.3
79725.4
79794.8
79876.4
79959.5
80041
80110.7
80184.2
80268.8
80352.3
80414.5
80473.8
80538.2
80609.6
80697.5
80778.5
80842
80904
80977.3
81051.7
81130.8
81206
81280.4
81367.3
81458.4
81550.5
81639.3
81733.9
81827.1
81901.1
81967.2
82035.9
82101.6
82174.8
82273.4
82359.1
82444
82522.5
82581.6
82637.3
82694.7
82763.5
82848
82930.1
83014.1
83097.8
83167.6
83243
83330.3
83399
83482.6
83559.1
83615.7
83676
83750.2
83838.1
83938.4
84022.1
84094.6
84175.2
84228.5
84281.2
84347.9
84417.6
84512.9
84589.8
84666.5
84755
84838.9
84938.4
85032.4
85119.2
85198
85272.6
85367.1
85475.7
85572.4
85649.8
85726.4
85811.9
85897.8
85985
86076.9
86164.3
86239.9
86310.3
86371.7
86431.9
86521.4
86634.7
86726.1
86799.1
86876.6
86960.9
87032.7
87105.4
87180.9
87264.3
87365.9
87469.3
87562.2
87640.5
87718.5
87813.7
87925.3
88057
88160.9
88251.4
88328.9
88414.3
88531.6
88639.7
88749.2
88855
88945.9
89037.9
89134.2
89241.2
89362.4
89463.8
89556.7
89647.9
89738.2
89847.1
89987.4
90095.4
90189.7
90304.4
90407.8
90498.2
90598.3
90728.9
90895.2
91045.2
91179.9
91296.2
91413.7
91559.7
91674.7
91793.6
91958.2
92134.5
92272.2
92393.2
92516.5
92637.4
92768.4
92943.6
93142.5
93279
93401
93540.8
93677.6
93833
94012.4
94138.3
94248.3
94364.9
94497.4
94666.2
94831.7
94990.3
95134.4
95272.1
95415.6
95569.7
95743.5
95944.5
96186.6
96439.5
96654
96867.2
97070.7
97252.7
97443.2
97620.8
97794.5
97965.1
98155.9
98351.4
98487.2
98622
98800.4
98984.9
99185.1
99391.7
99592.1
99806.9
100045
100233
100391
100577
100811
101032
101232
69100.5
69101.4
69102.2
69105.4
69109.1
69112.9
69118.8
69126.6
69136.2
69146.8
69156.8
69167.6
69178.2
69190.3
69203.7
69218.5
69234.5
69249.1
69268.8
69289.2
69306.6
69320.3
69336.4
69361.6
69384.9
69407.7
69432.4
69456.9
69481.4
69508.4
69537.7
69564.7
69593.7
69625.6
69658.2
69688.7
69716.6
69749.3
69781.6
69806.6
69833.8
69872
69908.9
69943.3
69977.2
70012
70044.2
70078.3
70110
70142.1
70185.5
70234.6
70269.2
70304.3
70352
70396.6
70441.5
70491.2
70533.1
70570.8
70615.2
70660.9
70703.3
70746.3
70785.8
70825.2
70874.4
70919.3
70962
71015.7
71065.9
71109.8
71156.6
71207.4
71256.5
71304
71360.9
71423.1
71479.6
71530.6
71583.3
71640.3
71687.5
71732.5
71786.1
71843.5
71892.2
71935.6
71981.9
72041.7
72103.9
72162
72223.5
72288.4
72358.2
72416.9
72476.1
72531.3
72582.8
72643.1
72710
72762.3
72812.1
72879
72934.7
72992.2
73060.2
73128
73201.8
73279.7
73340.7
73404
73456.2
73506.1
73576.5
73653.4
73715.8
73769.9
73828.6
73886.3
73947.1
74009.9
74065.6
74119.2
74177.1
74239.2
74312.5
74387.2
74459.7
74530.9
74596.7
74663.7
74729.6
74790.7
74847.1
74897.1
74957
75039.9
75106.2
75167.9
75244.6
75332.2
75420.3
75485.5
75550.5
75619.8
75686.8
75763.3
75847.5
75905.4
75963.6
76048.4
76114.4
76181.3
76242.3
76305.8
76405.7
76492.9
76568.2
76626.7
76684.9
76759.4
76828.1
76896.2
76979.4
77082.1
77167.2
77231.7