/*--------------------------------*- C++ -*----------------------------------*\
  =========                 |
  \\      /  F ield         | OpenFOAM: The Open Source CFD Toolbox
   \\    /   O peration     | Website:  https://openfoam.org
    \\  /    A nd           | Version:  7
     \\/     M anipulation  |
\*---------------------------------------------------------------------------*/
FoamFile
{
    version     2.0;
    format      ascii;
    class       surfaceScalarField;
    location    "5000";
    object      phi;
}
// * * * * * * * * * * * * * * * * * * * * * * * * * * * * * * * * * * * * * //

dimensions      [0 3 -1 0 0 0 0];

internalField   nonuniform List<scalar> 
319200
(
-1.05422e-16
-1.35082e-16
-2.69893e-16
-9.29358e-17
-4.15642e-16
-1.1368e-16
-5.90118e-16
-1.05652e-16
-7.2998e-16
-1.70929e-16
-8.31587e-16
-1.61188e-16
-8.98395e-16
-1.91648e-16
-1.02018e-15
-8.36509e-17
-1.27974e-15
1.76228e-17
-1.4901e-15
-7.48045e-17
-1.64494e-15
-1.21473e-16
-1.84987e-15
-5.35791e-17
-1.8709e-15
-2.6881e-16
-1.57923e-15
-5.76342e-16
-1.3766e-15
-4.29989e-16
-1.42425e-15
-1.85485e-16
-1.40657e-15
-2.2453e-16
-1.65108e-15
3.56342e-17
-2.07703e-15
1.83012e-16
-2.43365e-15
1.17991e-16
-2.72519e-15
6.20526e-17
-3.08097e-15
1.09164e-16
-3.6193e-15
2.81147e-16
-4.12726e-15
2.48557e-16
-4.3942e-15
3.01847e-17
-4.24735e-15
-4.28418e-16
-3.82726e-15
-7.0533e-16
-3.61301e-15
-4.73696e-16
-3.56764e-15
-3.13183e-16
-3.66739e-15
-1.37139e-16
-4.07893e-15
1.9635e-16
-4.67609e-15
3.7581e-16
-4.90263e-15
-2.84609e-17
-4.83337e-15
-2.91042e-16
-4.83742e-15
-2.08257e-16
-4.99976e-15
-8.88678e-17
-5.38776e-15
1.32378e-16
-5.20099e-15
-4.60074e-16
-4.35492e-15
-1.05728e-15
-4.15125e-15
-4.19635e-16
-4.49824e-15
1.36733e-16
-4.86807e-15
1.6197e-16
-5.09023e-15
-2.4476e-17
-5.06736e-15
-2.44559e-16
-5.13776e-15
-1.80955e-16
-5.26341e-15
-1.2284e-16
-5.21567e-15
-2.4881e-16
-5.01338e-15
-3.79221e-16
-4.75073e-15
-4.63286e-16
-5.31511e-15
3.86193e-16
-6.76706e-15
1.22786e-15
-7.71913e-15
6.83068e-16
-7.3426e-15
-6.24154e-16
-7.1904e-15
-3.84636e-16
-7.10557e-15
-3.44061e-16
-6.45247e-15
-8.62723e-16
-5.49454e-15
-1.18112e-15
-4.88017e-15
-7.87233e-16
-5.34516e-15
2.90197e-16
-6.67479e-15
1.13738e-15
-6.9346e-15
1.51373e-17
-6.1441e-15
-9.79066e-16
-5.94938e-15
-3.79979e-16
-5.97926e-15
-1.44819e-16
-6.58361e-15
4.39845e-16
-7.30644e-15
5.08601e-16
-7.0124e-15
-4.90752e-16
-5.59773e-15
-1.61816e-15
-4.34306e-15
-1.40661e-15
-5.58103e-15
1.09208e-15
-7.0863e-15
1.27234e-15
-7.69942e-15
4.28615e-16
-8.24374e-15
3.20579e-16
-8.18755e-15
-2.49179e-16
-8.04359e-15
-3.38293e-16
-8.14736e-15
-7.15211e-17
-8.36179e-15
3.06539e-17
-8.56372e-15
3.32266e-17
-8.88747e-15
1.34432e-16
-9.37104e-15
3.13722e-16
-1.00399e-14
4.78789e-16
-9.78918e-15
-4.48514e-16
-8.77511e-15
-1.18739e-15
-7.5006e-15
-1.44337e-15
-6.33894e-15
-1.33235e-15
-6.18054e-15
-3.23267e-16
-6.43594e-15
9.21483e-17
-6.96457e-15
3.80803e-16
-7.6913e-15
5.6526e-16
-7.99392e-15
1.26343e-16
-8.97021e-15
8.31603e-16
-1.02858e-14
1.13128e-15
-1.06394e-14
1.64219e-16
-1.03657e-14
-4.51934e-16
-9.59403e-15
-9.35583e-16
-8.77892e-15
-9.58748e-16
-8.22865e-15
-7.11225e-16
-7.49568e-15
-8.74571e-16
-7.03868e-15
-5.98527e-16
-6.8952e-15
-2.71665e-16
-6.80295e-15
-2.3643e-16
-7.3022e-15
3.77876e-16
-7.00494e-15
-4.56893e-16
-6.37398e-15
-7.70898e-16
-7.14196e-15
6.3665e-16
-7.76022e-15
4.62191e-16
-8.2362e-15
3.48562e-16
-9.25006e-15
8.60881e-16
-9.75623e-15
3.48191e-16
-1.00453e-14
1.44638e-16
-1.01171e-14
-7.60103e-17
-1.04391e-14
2.03122e-16
-1.05157e-14
-7.02678e-17
-9.64988e-15
-9.92456e-16
-9.18152e-15
-5.95101e-16
-8.89296e-15
-4.22835e-16
-8.90401e-15
-1.1277e-16
-9.59164e-15
5.50671e-16
-9.52646e-15
-2.15963e-16
-8.76525e-15
-8.88331e-16
-8.86002e-15
-2.47429e-17
-9.93455e-15
9.60006e-16
-1.14678e-14
1.40473e-15
-1.29073e-14
1.30699e-15
-1.40769e-14
1.03224e-15
-1.4023e-14
-1.99782e-16
-1.26804e-14
-1.47641e-15
-1.18301e-14
-9.6256e-16
-1.17524e-14
-1.95436e-16
-1.16057e-14
-2.64164e-16
-1.11729e-14
-5.41194e-16
-1.10284e-14
-2.52233e-16
-1.16662e-14
5.12802e-16
-1.18113e-14
3.90723e-18
-1.09357e-14
-1.00174e-15
-9.21072e-15
-1.84476e-15
-8.32043e-15
-9.97421e-16
-9.18887e-15
7.55469e-16
-9.30352e-15
1.26513e-17
-9.68185e-15
2.8476e-16
-9.64834e-15
-1.48997e-16
-8.82361e-15
-9.44809e-16
-8.96604e-15
5.68323e-17
-1.04e-14
1.32118e-15
-1.13375e-14
8.10653e-16
-1.1431e-14
-1.71467e-17
-1.12696e-14
-2.72515e-16
-1.07091e-14
-6.66123e-16
-9.48949e-15
-1.3177e-15
-7.97219e-15
-1.60476e-15
-8.02556e-15
-3.48476e-17
-9.13015e-15
1.00663e-15
-9.22596e-15
7.82674e-18
-9.02168e-15
-3.08943e-16
-9.39262e-15
2.87767e-16
-1.06892e-14
1.1971e-15
-1.20827e-14
1.29425e-15
-1.30981e-14
9.10235e-16
-1.28679e-14
-3.25945e-16
-1.18586e-14
-1.1062e-15
-1.08847e-14
-1.06289e-15
-1.0748e-14
-2.28775e-16
-1.16423e-14
8.08854e-16
-1.18127e-14
7.69116e-17
-1.14768e-14
-4.09238e-16
-1.08207e-14
-7.50368e-16
-9.7152e-15
-1.19804e-15
-9.33009e-15
-4.70572e-16
-9.64726e-15
2.2664e-16
-1.12666e-14
1.53623e-15
-1.30916e-14
1.72641e-15
-1.34383e-14
2.61111e-16
-1.33359e-14
-1.73005e-16
-1.30653e-14
-3.54326e-16
-1.20412e-14
-1.09802e-15
-1.11486e-14
-9.64795e-16
-1.20611e-14
8.35896e-16
-1.37721e-14
1.63464e-15
-1.43907e-14
5.34995e-16
-1.34478e-14
-1.023e-15
-1.32299e-14
-2.77025e-16
-1.19969e-14
-1.30804e-15
-9.88719e-15
-2.17159e-15
-8.3021e-15
-1.64515e-15
-7.52528e-15
-8.38793e-16
-7.78202e-15
1.94371e-16
-8.12993e-15
2.8365e-16
-8.20474e-15
1.26645e-17
-8.47099e-15
2.00977e-16
-9.51642e-15
9.67832e-16
-1.04093e-14
8.18096e-16
-1.03855e-14
-8.90783e-17
-9.54213e-15
-9.06246e-16
-8.47325e-15
-1.13178e-15
-7.11631e-15
-1.42198e-15
-7.11164e-15
-5.90465e-17
-8.66262e-15
1.47562e-15
-9.73097e-15
9.82237e-16
-1.00271e-14
2.43982e-16
-9.90437e-15
-1.71031e-16
-9.33336e-15
-6.14166e-16
-9.18109e-15
-1.90214e-16
-9.69935e-15
4.79188e-16
-1.01651e-14
4.15627e-16
-1.10541e-14
8.3103e-16
-1.20898e-14
9.70508e-16
-1.22156e-14
6.72667e-17
-1.26262e-14
3.63056e-16
-1.28567e-14
1.86323e-16
-1.305e-14
1.50412e-16
-1.30559e-14
-3.71993e-17
-1.2538e-14
-5.59949e-16
-1.25761e-14
-2.23436e-18
-1.33286e-14
7.1165e-16
-1.31771e-14
-1.93639e-16
-1.2946e-14
-2.72616e-16
-1.43908e-14
1.40331e-15
-1.5883e-14
1.446e-15
-1.60681e-14
1.33666e-16
-1.62781e-14
1.61079e-16
-1.55785e-14
-7.45581e-16
-1.3572e-14
-2.0457e-15
-1.20619e-14
-1.53995e-15
-1.1374e-14
-7.19439e-16
-1.066e-14
-7.47455e-16
-1.0207e-14
-4.89103e-16
-9.49804e-15
-7.49125e-16
-9.17046e-15
-3.60282e-16
-8.98475e-15
-2.24104e-16
-8.54456e-15
-4.73446e-16
-8.84564e-15
2.75489e-16
-8.69486e-15
-1.82822e-16
-8.56117e-15
-1.64377e-16
-9.32691e-15
7.31442e-16
-1.00982e-14
7.37979e-16
-1.05035e-14
3.71388e-16
-1.04944e-14
-3.78884e-17
-1.05025e-14
-2.15444e-17
-1.05089e-14
-1.79133e-17
-1.04598e-14
-7.57084e-17
-1.00313e-14
-4.52864e-16
-8.95361e-15
-1.1017e-15
-8.57654e-15
-4.03195e-16
-9.7355e-15
1.13335e-15
-1.10941e-14
1.32911e-15
-1.29349e-14
1.80868e-15
-1.59423e-14
2.97183e-15
-1.85024e-14
2.52545e-15
-1.66614e-14
-1.88085e-15
-1.30359e-14
-3.64651e-15
-1.01083e-14
-2.94472e-15
-7.53006e-15
-2.59331e-15
-6.66119e-15
-8.81631e-16
-7.22663e-15
5.51902e-16
-8.42568e-15
1.1826e-15
-9.50738e-15
1.06288e-15
-9.72423e-15
1.98779e-16
-1.14054e-14
1.66412e-15
-1.47144e-14
3.2893e-15
-1.62334e-14
1.49331e-15
-1.45908e-14
-1.66483e-15
-1.23685e-14
-2.24022e-15
-1.09591e-14
-1.4234e-15
-1.03385e-14
-6.33121e-16
-1.07754e-14
4.23156e-16
-1.16839e-14
8.92916e-16
-1.20604e-14
3.61737e-16
-1.25921e-14
5.19728e-16
-1.38049e-14
1.19834e-15
-1.31783e-14
-6.44178e-16
-1.10411e-14
-2.14853e-15
-1.0549e-14
-5.01279e-16
-1.0936e-14
3.77554e-16
-1.08891e-14
-5.56142e-17
-1.11129e-14
2.16227e-16
-1.14625e-14
3.41341e-16
-1.25658e-14
1.09406e-15
-1.32468e-14
6.70101e-16
-1.25147e-14
-7.40541e-16
-1.21606e-14
-3.61413e-16
-1.19963e-14
-1.70713e-16
-1.22409e-14
2.37861e-16
-1.23269e-14
7.93144e-17
-1.21004e-14
-2.33154e-16
-1.22382e-14
1.31776e-16
-1.36008e-14
1.35818e-15
-1.52393e-14
1.63429e-15
-1.64391e-14
1.19636e-15
-1.63293e-14
-1.13199e-16
-1.36549e-14
-2.67753e-15
-1.05991e-14
-3.05851e-15
-9.60797e-15
-9.93047e-16
-1.06126e-14
1.00283e-15
-1.22089e-14
1.59468e-15
-1.33641e-14
1.1542e-15
-1.34976e-14
1.32877e-16
-1.27384e-14
-7.5934e-16
-1.27504e-14
1.20914e-17
-1.31229e-14
3.73266e-16
-1.39637e-14
8.42111e-16
-1.55125e-14
1.55143e-15
-1.62029e-14
6.95231e-16
-1.5679e-14
-5.20683e-16
-1.4225e-14
-1.4511e-15
-1.30448e-14
-1.17757e-15
-1.24204e-14
-6.22062e-16
-1.27837e-14
3.65649e-16
-1.34003e-14
6.19383e-16
-1.46288e-14
1.23213e-15
-1.63208e-14
1.69671e-15
-1.62884e-14
-2.71485e-17
-1.61622e-14
-1.20803e-16
-1.66645e-14
5.08174e-16
-1.68445e-14
1.87254e-16
-1.74344e-14
5.98184e-16
-1.82825e-14
8.56339e-16
-1.74151e-14
-8.59181e-16
-1.62844e-14
-1.12387e-15
-1.60694e-14
-2.09035e-16
-1.61453e-14
8.30123e-17
-1.7223e-14
1.08529e-15
-1.92202e-14
2.00577e-15
-2.1209e-14
1.99855e-15
-2.33456e-14
2.15008e-15
-2.44389e-14
1.10972e-15
-2.33273e-14
-1.09433e-15
-2.03754e-14
-2.93769e-15
-1.81499e-14
-2.21459e-15
-1.7478e-14
-6.61097e-16
-1.5543e-14
-1.92463e-15
-1.49384e-14
-5.9442e-16
-1.61755e-14
1.24775e-15
-1.65064e-14
3.41925e-16
-1.79044e-14
1.40904e-15
-1.99879e-14
2.09486e-15
-2.15274e-14
1.55166e-15
-2.40745e-14
2.56046e-15
-2.69609e-14
2.90149e-15
-2.51965e-14
-1.74612e-15
-2.00498e-14
-5.13125e-15
-1.78061e-14
-2.23195e-15
-1.7178e-14
-6.16259e-16
-1.77011e-14
5.36041e-16
-2.00402e-14
2.35367e-15
-2.05758e-14
5.53222e-16
-1.98301e-14
-7.2868e-16
-2.23848e-14
2.57257e-15
-2.48739e-14
2.50739e-15
-2.54968e-14
6.39365e-16
-2.49235e-14
-5.57537e-16
-2.38681e-14
-1.04071e-15
-2.29902e-14
-8.64759e-16
-2.17374e-14
-1.23745e-15
-2.13952e-14
-3.2617e-16
-2.18477e-14
4.69788e-16
-2.09136e-14
-9.16479e-16
-1.98277e-14
-1.06982e-15
-1.96652e-14
-1.4622e-16
-1.99716e-14
3.22538e-16
-1.97448e-14
-2.12003e-16
-1.96729e-14
-5.79636e-17
-2.03018e-14
6.44578e-16
-2.1488e-14
1.20349e-15
-2.35703e-14
2.09933e-15
-2.71618e-14
3.61146e-15
-2.85915e-14
1.45099e-15
-3.14787e-14
2.90689e-15
-3.19021e-14
4.46932e-16
-2.7629e-14
-4.25039e-15
-2.42046e-14
-3.40635e-15
-2.53291e-14
1.14126e-15
-2.95397e-14
4.228e-15
-3.52723e-14
5.75033e-15
-3.7377e-14
2.12548e-15
-3.62155e-14
-1.14372e-15
-3.37885e-14
-2.40693e-15
-2.82682e-14
-5.5027e-15
-2.40156e-14
-4.23416e-15
-2.17392e-14
-2.25898e-15
-2.07153e-14
-1.00574e-15
-2.08516e-14
1.54513e-16
-2.04348e-14
-3.99784e-16
-2.37965e-14
3.37906e-15
-2.99659e-14
6.18892e-15
-3.30319e-14
3.08621e-15
-3.38363e-14
8.24738e-16
-3.34797e-14
-3.35555e-16
-3.14215e-14
-2.03748e-15
-2.93934e-14
-2.00882e-15
-3.03372e-14
9.63832e-16
-3.124e-14
9.24391e-16
-3.14609e-14
2.42343e-16
-3.27433e-14
1.30632e-15
-3.36169e-14
8.96748e-16
-3.60647e-14
2.47085e-15
-3.89725e-14
2.93726e-15
-3.83837e-14
-5.64403e-16
-4.10466e-14
2.6813e-15
-4.42281e-14
3.20807e-15
-4.02957e-16
-1.6384e-16
-2.91628e-16
-2.68645e-16
-2.25376e-16
-3.33422e-16
-2.91636e-16
-4.38575e-16
-2.49619e-16
-5.83411e-16
-2.74894e-16
-8.24991e-16
-1.8718e-16
-1.04988e-15
-2.62157e-16
-1.17238e-15
-2.26469e-16
-1.30536e-15
-1.09346e-16
-1.44777e-15
-1.94085e-16
-1.58863e-15
-2.48067e-16
-1.69391e-15
-1.9379e-16
-1.87027e-15
-3.54099e-16
-2.05182e-15
-6.66104e-16
-2.03045e-15
-7.43028e-16
-2.07206e-15
-3.69499e-16
-2.5695e-15
5.27546e-17
-3.06643e-15
2.28566e-16
-3.01873e-15
-1.6119e-16
-2.84286e-15
-3.29578e-16
-2.88182e-15
-1.33205e-16
-3.22067e-15
1.94508e-16
-3.43335e-15
2.44501e-16
-3.2739e-15
-1.56129e-16
-3.4244e-15
-2.00197e-17
-4.29496e-15
1.85397e-16
-4.87337e-15
-4.37793e-16
-4.74329e-15
-9.01085e-16
-4.73718e-15
-5.79722e-16
-4.87685e-15
-2.5297e-16
-4.42905e-15
-4.90634e-16
-3.82777e-15
-4.44728e-16
-3.52514e-15
-5.53673e-16
-3.61786e-15
-4.01847e-16
-4.18189e-15
1.6659e-16
-4.72487e-15
1.97471e-16
-4.59013e-15
-2.73281e-16
-4.72054e-15
-5.01244e-16
-5.26497e-15
-7.58456e-16
-5.02724e-15
-9.02466e-16
-4.57858e-15
-5.24184e-16
-4.69244e-15
8.15264e-17
-4.98398e-15
3.8894e-17
-5.2694e-15
-1.69948e-16
-5.92362e-15
2.21512e-16
-6.20009e-15
-1.16966e-16
-5.71537e-15
-9.67388e-16
-5.48701e-15
-7.97655e-16
-5.67098e-15
-4.77919e-16
-5.7072e-15
2.06601e-16
-5.49473e-15
8.15544e-16
-5.86868e-15
8.25757e-16
-6.78305e-15
9.11768e-17
-6.68767e-15
-7.22066e-16
-6.17343e-15
-1.02889e-15
-6.2063e-15
-1.04648e-15
-6.03636e-15
-1.56032e-15
-5.8475e-15
-1.16118e-15
-5.89713e-15
1.40987e-16
-5.7516e-15
7.92493e-16
-5.72249e-15
-2.16e-16
-5.90819e-15
-9.9224e-16
-6.08622e-15
-3.78668e-16
-6.49743e-15
9.00082e-17
-6.12499e-15
-1.2831e-16
-5.87675e-15
7.50441e-17
-6.99064e-15
4.48205e-16
-8.87462e-15
4.84383e-17
-1.03912e-14
-1.04738e-16
-1.01714e-14
6.46576e-16
-8.69477e-15
-4.22091e-16
-7.28408e-15
-1.17884e-15
-6.66791e-15
-4.68521e-16
-6.79201e-15
-3.11243e-16
-7.17172e-15
-1.28094e-16
-7.51673e-15
9.14755e-17
-7.40434e-15
-2.47498e-16
-7.67104e-15
1.31483e-16
-8.71707e-15
1.00241e-15
-8.95426e-15
3.51933e-16
-8.30964e-15
-3.44352e-16
-8.51208e-15
-4.20602e-16
-9.49662e-15
-3.79305e-16
-1.08276e-14
-2.89585e-16
-1.09012e-14
-1.46469e-15
-9.40602e-15
-2.01842e-15
-8.05956e-15
-1.4108e-15
-8.36773e-15
5.26171e-16
-9.16423e-15
1.19432e-15
-1.017e-14
9.52593e-16
-1.05956e-14
1.07186e-15
-1.07194e-14
1.08094e-15
-1.07074e-14
-3.77502e-17
-1.00494e-14
-1.28448e-15
-1.01356e-14
-1.00172e-15
-1.02403e-14
-1.02165e-15
-1.00894e-14
-1.01242e-15
-9.57312e-15
-1.54629e-15
-8.75569e-15
-1.56566e-15
-8.7086e-15
-4.52877e-16
-8.73783e-15
-3.60573e-16
-8.39472e-15
-1.07546e-16
-9.68898e-15
6.96753e-16
-1.02855e-14
-3.57009e-16
-9.36632e-15
-4.34666e-16
-9.94474e-15
8.99646e-16
-1.09991e-14
1.25042e-15
-1.06685e-14
3.7688e-16
-1.00207e-14
-4.40979e-16
-9.51215e-15
-5.06859e-16
-8.81204e-15
-9.1145e-16
-8.22721e-15
-5.03703e-16
-8.59813e-15
1.68633e-16
-9.43181e-15
-2.89919e-16
-9.94628e-15
-2.18038e-16
-1.02888e-14
-2.19739e-16
-1.03707e-14
-1.7097e-16
-1.05728e-14
6.08152e-16
-1.18182e-14
8.89083e-16
-1.27665e-14
-8.34302e-17
-1.18941e-14
-1.0359e-15
-1.04909e-14
-5.64278e-16
-9.70006e-15
4.94849e-16
-9.13926e-15
6.28221e-16
-8.8491e-15
6.2519e-16
-9.29766e-15
1.29346e-16
-1.01652e-14
-7.25137e-16
-1.08108e-14
-4.28157e-16
-1.07364e-14
-3.86301e-16
-1.03416e-14
-7.68299e-16
-1.05227e-14
-4.63121e-16
-1.28867e-14
2.0113e-15
-1.43233e-14
1.81069e-15
-1.34612e-14
-1.00141e-15
-1.30543e-14
-1.53156e-15
-1.46132e-14
-3.93908e-16
-1.36448e-14
-2.10142e-15
-1.11117e-14
-1.88664e-15
-1.11389e-14
-5.90776e-17
-1.16276e-14
6.67251e-16
-1.20185e-14
1.25684e-16
-1.23736e-14
-7.1117e-16
-1.24102e-14
-2.24436e-17
-1.10977e-14
-1.09849e-16
-9.87966e-15
-5.18685e-16
-1.00687e-14
7.74059e-17
-1.04733e-14
2.94789e-17
-1.03835e-14
-8.52398e-16
-1.06752e-14
-1.11778e-15
-1.23151e-14
-5.54924e-17
-1.2178e-14
-2.86577e-16
-1.0437e-14
-8.22469e-16
-1.00755e-14
-4.44762e-16
-1.0581e-14
9.70638e-17
-1.16205e-14
1.22752e-15
-1.15351e-14
1.00532e-15
-1.11335e-14
7.97354e-16
-1.12211e-14
8.95456e-16
-1.18478e-14
2.10913e-16
-1.27483e-14
-3.05481e-16
-1.32452e-14
-6.6285e-16
-1.2704e-14
-8.69927e-16
-1.17143e-14
-2.67726e-16
-1.1867e-14
1.4715e-16
-1.27063e-14
3.44988e-16
-1.33708e-14
-1.80037e-16
-1.27687e-14
-1.89889e-15
-1.13677e-14
-1.96137e-15
-1.00883e-14
-1.14759e-15
-9.19694e-15
5.58069e-16
-8.85968e-15
1.31091e-15
-9.80973e-15
1.14095e-15
-1.23884e-14
2.33611e-15
-1.38398e-14
1.00766e-15
-1.33921e-14
-1.62219e-15
-1.25776e-14
-1.85556e-15
-1.14082e-14
-4.09123e-16
-1.07e-14
8.55815e-16
-1.04011e-14
1.63111e-16
-1.09191e-14
-5.73221e-16
-1.15591e-14
2.9752e-16
-1.16765e-14
-1.25953e-15
-1.11458e-14
-2.76291e-15
-1.18382e-14
-1.01401e-15
-1.24073e-14
-3.46854e-16
-1.2054e-14
-2.30297e-16
-1.19824e-14
1.35828e-16
-1.31001e-14
1.05283e-15
-1.51788e-14
2.18585e-15
-1.4902e-14
5.79012e-16
-1.24952e-14
-1.67483e-15
-1.06242e-14
-2.00671e-15
-1.11678e-14
-4.07152e-16
-1.19509e-14
-4.07318e-16
-1.22281e-14
-1.22148e-15
-1.21254e-14
-2.50502e-16
-1.1939e-14
1.1893e-15
-1.20567e-14
1.00817e-15
-1.19897e-14
1.2705e-16
-1.19231e-14
-2.83848e-16
-1.18026e-14
-7.76212e-16
-1.23689e-14
3.30769e-16
-1.46897e-14
2.74683e-15
-1.8278e-14
3.94254e-15
-1.90758e-14
1.56242e-15
-1.64153e-14
-1.75437e-15
-1.41641e-14
-2.23644e-15
-1.35655e-14
-2.83927e-16
-1.37915e-14
3.67416e-16
-1.29041e-14
-7.80333e-16
-1.2163e-14
-8.20682e-16
-1.32956e-14
5.30403e-16
-1.39729e-14
6.32056e-16
-1.32022e-14
-1.01757e-16
-1.34477e-14
1.02923e-17
-1.39571e-14
1.95167e-16
-1.33518e-14
7.55931e-16
-1.26014e-14
6.5437e-16
-1.19398e-14
-5.68492e-16
-1.10078e-14
-8.09251e-16
-1.12309e-14
-5.57763e-16
-1.34813e-14
1.71065e-16
-1.53837e-14
3.29015e-16
-1.64927e-14
3.54865e-16
-1.675e-14
-5.27641e-16
-1.60053e-14
-1.27315e-15
-1.46361e-14
-2.15868e-15
-1.31693e-14
-1.86335e-15
-1.30051e-14
-4.27312e-16
-1.34904e-14
-2.54724e-17
-1.39035e-14
6.56358e-16
-1.52944e-14
1.17618e-15
-1.47664e-14
-7.2872e-16
-1.19334e-14
-2.13631e-15
-1.0527e-14
-6.95572e-16
-1.11471e-14
9.61244e-16
-1.18732e-14
6.57224e-16
-1.16804e-14
-2.42554e-16
-1.09461e-14
-7.76972e-16
-1.07963e-14
-2.50628e-16
-1.16715e-14
3.9881e-16
-1.31165e-14
3.17357e-16
-1.40307e-14
4.80151e-16
-1.41682e-14
1.23897e-15
-1.59962e-14
3.12562e-15
-1.72262e-14
2.99824e-15
-1.63426e-14
2.04581e-15
-1.45436e-14
6.98894e-16
-1.41551e-14
-2.29017e-15
-1.41321e-14
-3.68851e-15
-1.39338e-14
-3.16004e-15
-1.45495e-14
-1.99313e-15
-1.38931e-14
-1.55662e-15
-1.292e-14
-4.39851e-16
-1.33801e-14
1.62439e-15
-1.38061e-14
1.46969e-15
-1.48196e-14
1.19284e-15
-1.55424e-14
2.36706e-15
-1.42414e-14
1.96709e-15
-1.2939e-14
1.70392e-16
-1.34029e-14
-1.21884e-15
-1.45401e-14
-1.11774e-15
-1.5521e-14
-4.56996e-16
-1.61588e-14
-1.02206e-17
-1.48438e-14
-9.07905e-16
-1.27731e-14
-1.19363e-15
-1.35049e-14
1.08079e-15
-1.59002e-14
2.90099e-15
-1.56666e-14
9.47439e-16
-1.41007e-14
-2.22303e-15
-1.47186e-14
-1.54096e-15
-1.4315e-14
-9.14531e-16
-1.2714e-14
-1.23291e-15
-1.26169e-14
-1.60978e-16
-1.39173e-14
1.50833e-15
-1.51602e-14
1.575e-15
-1.53781e-14
1.30164e-15
-1.46225e-14
-9.59563e-17
-1.46179e-14
-7.53984e-16
-1.53885e-14
4.01827e-16
-1.56835e-14
1.16842e-16
-1.60203e-14
5.67365e-16
-1.66538e-14
7.05613e-16
-1.63741e-14
-5.18609e-16
-1.51308e-14
-1.11671e-15
-1.39063e-14
1.29271e-16
-1.34958e-14
1.22016e-15
-1.35862e-14
1.28358e-15
-1.44263e-14
7.23883e-16
-1.51546e-14
-1.95195e-15
-1.45693e-14
-3.64621e-15
-1.44478e-14
-1.11662e-15
-1.37588e-14
3.12064e-16
-1.29129e-14
7.47438e-16
-1.37939e-14
2.03422e-15
-1.66266e-14
2.96484e-15
-1.83482e-14
9.62102e-16
-1.8487e-14
1.51083e-16
-2.02372e-14
2.12454e-15
-2.07625e-14
1.36992e-15
-1.89682e-14
-2.38184e-16
-1.64325e-14
-1.83574e-15
-1.42044e-14
-2.74643e-15
-1.38894e-14
-1.76406e-15
-1.46058e-14
-4.5907e-16
-1.62552e-14
1.03009e-15
-1.76118e-14
1.7256e-15
-1.74141e-14
4.25581e-16
-1.7191e-14
1.01323e-15
-1.74082e-14
1.91871e-15
-1.79475e-14
5.1736e-16
-1.92206e-14
1.158e-15
-2.05728e-14
1.86684e-15
-2.06858e-14
3.07526e-16
-1.83685e-14
-1.71221e-15
-1.5591e-14
-1.91427e-15
-1.57876e-14
-6.56404e-16
-1.72995e-14
3.93766e-16
-1.86321e-14
1.13046e-15
-1.95418e-14
1.00081e-15
-2.07116e-14
2.26397e-15
-2.38797e-14
5.1838e-15
-2.70344e-14
5.16614e-15
-2.57724e-14
9.02765e-16
-2.26558e-14
-1.99506e-15
-2.31846e-14
-5.54953e-16
-2.50863e-14
-1.02625e-15
-2.45988e-14
-2.69176e-15
-2.33898e-14
-1.85987e-15
-2.32405e-14
-2.0636e-15
-2.15099e-14
-2.31349e-15
-2.01516e-14
-9.84533e-17
-2.10085e-14
1.21069e-15
-2.12967e-14
1.7091e-15
-2.08228e-14
1.633e-15
-2.12817e-14
2.02248e-15
-2.21751e-14
3.46689e-15
-2.17854e-14
2.52593e-15
-2.27288e-14
-7.89106e-16
-2.52057e-14
-2.64196e-15
-2.60624e-14
-1.36267e-15
-2.3973e-14
-2.69173e-15
-2.15502e-14
-1.87256e-15
-2.13964e-14
2.21595e-15
-2.25249e-14
1.69903e-15
-2.29277e-14
-3.07625e-16
-2.15279e-14
1.19002e-15
-2.12526e-14
2.2469e-15
-2.12528e-14
6.53793e-16
-2.0667e-14
-1.12964e-15
-2.12813e-14
-4.13713e-16
-2.23189e-14
1.86076e-16
-2.40327e-14
4.91236e-16
-2.42707e-14
-7.16915e-17
-2.17742e-14
-2.00995e-15
-2.00849e-14
-2.59048e-15
-1.9179e-14
-1.96058e-15
-1.89957e-14
-3.13977e-16
-2.00583e-14
1.39987e-15
-2.14474e-14
1.19155e-15
-2.21974e-14
7.06977e-16
-2.22071e-14
6.7082e-16
-2.29331e-14
1.94694e-15
-2.53675e-14
4.55224e-15
-2.77041e-14
5.96655e-15
-2.82094e-14
1.97477e-15
-2.60257e-14
7.41476e-16
-2.31732e-14
-2.38696e-15
-2.21478e-14
-5.25935e-15
-2.14082e-14
-4.131e-15
-2.12911e-14
1.03996e-15
-2.19069e-14
4.85977e-15
-2.2835e-14
6.69514e-15
-2.47491e-14
4.05672e-15
-2.66692e-14
7.94821e-16
-2.91082e-14
4.9558e-17
-3.28624e-14
-1.73018e-15
-3.1165e-14
-5.91174e-15
-2.77561e-14
-5.65051e-15
-2.77133e-14
-1.03067e-15
-2.81043e-14
5.65015e-16
-2.84421e-14
-4.71945e-17
-2.70028e-14
1.95975e-15
-2.42407e-14
3.44495e-15
-2.56141e-14
4.47562e-15
-2.58435e-14
1.07377e-15
-2.44531e-14
-1.70769e-15
-2.66808e-14
2.08749e-16
-3.10277e-14
2.35836e-15
-3.26572e-14
2.61585e-15
-3.27846e-14
1.07123e-15
-3.46291e-14
2.1087e-15
-3.45027e-14
1.20341e-15
-3.36401e-14
5.61848e-17
-3.46876e-14
3.54214e-15
-3.3496e-14
1.77322e-15
-3.1482e-14
-2.55796e-15
-2.94644e-14
6.86513e-16
-2.93461e-14
3.1089e-15
1.21252e-15
-1.4056e-16
-3.77071e-16
-2.57624e-16
-3.2397e-16
-4.00395e-16
-4.07452e-16
-5.35257e-16
-3.28721e-16
-7.02448e-16
-3.8291e-16
-8.37108e-16
-2.80346e-16
-1.1181e-15
-2.50902e-16
-1.33699e-15
-2.87022e-16
-1.57677e-15
-1.08341e-16
-1.9932e-15
-6.42907e-17
-2.27074e-15
-2.81489e-16
-2.20129e-15
-5.38366e-16
-2.26121e-15
-5.50986e-16
-2.75295e-15
-4.66444e-16
-3.2355e-15
-5.75853e-16
-3.43082e-15
-4.37576e-16
-3.26027e-15
-4.00596e-16
-2.84729e-15
-4.44179e-16
-2.74817e-15
-5.06989e-16
-2.85598e-15
-4.99712e-16
-2.84938e-15
-3.92274e-16
-2.72504e-15
-1.67779e-16
-2.60066e-15
-9.56179e-17
-2.54705e-15
-4.22186e-16
-2.79261e-15
6.5388e-18
-3.0626e-15
2.21964e-16
-3.45519e-15
-2.84993e-16
-4.24397e-15
-3.65299e-16
-4.60853e-15
-4.90205e-16
-4.41091e-15
-6.82776e-16
-4.58712e-15
-5.54375e-16
-4.55375e-15
-7.23766e-16
-4.27422e-15
-1.06237e-15
-3.89455e-15
-1.0073e-15
-3.70245e-15
-2.24209e-16
-3.79366e-15
6.10514e-17
-3.72582e-15
-5.63072e-16
-3.74422e-15
-6.86104e-16
-3.94944e-15
-7.58489e-16
-4.41344e-15
-6.62645e-16
-4.93927e-15
-2.36324e-16
-5.30076e-15
2.0966e-16
-5.71857e-15
2.34254e-16
-6.21196e-15
1.0771e-16
-5.65065e-15
-5.94236e-16
-4.81651e-15
-1.15019e-15
-4.94399e-15
-1.03741e-15
-5.55361e-15
-3.88299e-16
-6.36373e-15
9.97397e-17
-6.06454e-15
-3.35272e-16
-5.09834e-15
-3.56815e-16
-4.79427e-15
3.26351e-16
-5.10828e-15
2.07032e-16
-5.90854e-15
-1.3348e-16
-7.00222e-15
-1.55625e-16
-8.28238e-15
9.61598e-18
-9.31793e-15
-7.6215e-16
-9.55238e-15
-1.14143e-15
-8.29332e-15
-1.34346e-15
-6.53446e-15
-1.14541e-15
-6.34982e-15
-5.99513e-16
-7.01957e-15
-5.30416e-16
-7.14245e-15
-4.63112e-16
-6.64146e-15
-5.80516e-16
-6.42424e-15
-5.22465e-16
-5.74842e-15
-8.0373e-16
-4.8691e-15
-5.99586e-16
-4.76632e-15
-2.16102e-16
-5.25592e-15
2.26933e-16
-5.54923e-15
7.53819e-16
-6.51137e-15
3.7924e-16
-7.08399e-15
-8.08753e-16
-6.40516e-15
-1.3362e-15
-5.98716e-15
-8.83537e-16
-6.77939e-15
4.9234e-16
-8.25879e-15
1.38114e-15
-9.56274e-15
8.665e-16
-1.06369e-14
1.00344e-15
-1.00561e-14
2.0767e-16
-9.20098e-15
-6.76326e-16
-9.37678e-15
-3.50157e-16
-9.62879e-15
-3.53341e-16
-9.22284e-15
-9.64912e-16
-8.48237e-15
-1.185e-15
-8.46227e-15
-1.66058e-15
-9.31086e-15
-1.34012e-15
-9.77672e-15
-1.13011e-15
-8.84692e-15
-5.80967e-16
-7.80874e-15
5.01905e-18
-8.06954e-15
1.06373e-15
-7.72171e-15
5.51325e-16
-6.59815e-15
-1.94126e-16
-6.60651e-15
-1.6988e-16
-6.97483e-15
-1.07209e-15
-6.8557e-15
-1.25406e-15
-7.52508e-15
-4.88683e-16
-8.95623e-15
2.62287e-16
-9.67767e-15
-9.8758e-16
-9.13393e-15
-2.2679e-15
-8.48597e-15
-1.24745e-15
-9.23054e-15
2.3637e-16
-9.3527e-15
-1.38636e-16
-9.05119e-15
2.51808e-16
-9.81222e-15
2.42328e-16
-9.89669e-15
-5.10884e-16
-9.11652e-15
-2.12775e-17
-8.8155e-15
8.15534e-16
-9.06557e-15
4.97049e-16
-9.96535e-15
3.16727e-16
-1.03212e-14
-3.01946e-16
-1.00178e-14
-1.35215e-15
-9.08504e-15
-1.57299e-15
-8.59235e-15
-4.51175e-16
-9.37524e-15
3.70543e-16
-1.02143e-14
4.84385e-16
-1.02997e-14
-2.66331e-16
-9.815e-15
-7.94992e-16
-8.99896e-15
-3.46752e-16
-8.51698e-15
2.81012e-16
-8.46686e-15
-2.525e-16
-8.88643e-15
-7.34278e-16
-9.15316e-15
-4.18986e-16
-8.6303e-15
-1.53626e-16
-7.8991e-15
-2.22143e-16
-7.77763e-15
3.92477e-16
-8.42563e-15
6.64749e-16
-9.64641e-15
3.81757e-16
-1.04267e-14
2.30555e-16
-1.06335e-14
-3.00427e-16
-1.15034e-14
-9.4923e-18
-1.25343e-14
4.51664e-16
-1.1837e-14
1.19147e-15
-1.07386e-14
5.90135e-16
-1.09216e-14
-9.30171e-16
-1.13699e-14
-1.19815e-15
-1.14465e-14
-4.30919e-16
-1.23751e-14
-1.29138e-15
-1.27796e-14
-1.60067e-15
-1.28795e-14
-6.7863e-17
-1.39895e-14
1.66824e-15
-1.61641e-14
2.18142e-15
-1.63744e-14
-6.2703e-16
-1.4553e-14
-1.95365e-15
-1.3527e-14
-1.25116e-15
-1.20855e-14
-2.07999e-15
-1.11521e-14
-9.63182e-16
-1.14838e-14
2.57183e-16
-1.17095e-14
-7.2575e-16
-1.1666e-14
-1.25673e-15
-1.19052e-14
8.54526e-17
-1.24879e-14
1.89536e-16
-1.33811e-14
-2.6025e-17
-1.55095e-14
1.58268e-15
-1.59692e-14
4.43087e-16
-1.36368e-14
-1.21368e-15
-1.17573e-14
-9.62312e-16
-1.08349e-14
-2.21744e-16
-9.9759e-15
-5.42062e-17
-9.2334e-15
-6.17417e-16
-9.25313e-15
-3.69188e-16
-1.04933e-14
4.94042e-16
-1.16579e-14
2.00129e-16
-1.20845e-14
6.60629e-17
-1.24865e-14
4.63669e-16
-1.21303e-14
-9.47765e-17
-1.151e-14
-8.83442e-16
-1.18906e-14
-1.60433e-15
-1.25713e-14
-1.37234e-15
-1.30073e-14
-8.11236e-16
-1.29566e-14
4.06003e-16
-1.25098e-14
7.84679e-16
-1.1202e-14
-2.43807e-16
-8.91804e-15
-1.98213e-17
-8.30346e-15
3.29156e-16
-1.06933e-14
7.04954e-16
-1.30371e-14
4.12125e-16
-1.28979e-14
-6.3301e-16
-1.11499e-14
-9.73408e-16
-9.76933e-15
-1.28916e-15
-9.14851e-15
-1.26195e-15
-8.894e-15
-1.99112e-17
-1.05655e-14
3.52993e-16
-1.28471e-14
-5.46843e-16
-1.39024e-14
-3.29705e-17
-1.53193e-14
9.89382e-16
-1.74998e-14
1.85796e-15
-1.91689e-14
1.70791e-15
-1.89301e-14
7.08721e-16
-1.61781e-14
-6.85243e-16
-1.25204e-14
-3.17451e-15
-1.08904e-14
-3.34592e-15
-1.12378e-14
-1.69738e-15
-1.26059e-14
9.1355e-16
-1.41811e-14
1.10625e-15
-1.5647e-14
1.67386e-16
-1.56019e-14
-3.8327e-16
-1.46627e-14
1.60079e-16
-1.44396e-14
7.00338e-16
-1.45224e-14
1.44333e-16
-1.47333e-14
-1.28355e-16
-1.52377e-14
-3.27567e-16
-1.53105e-14
3.43105e-16
-1.45064e-14
1.87953e-15
-1.3321e-14
2.69658e-15
-1.2939e-14
1.12706e-15
-1.40298e-14
-7.11983e-16
-1.48964e-14
-1.41596e-15
-1.43621e-14
-8.64868e-16
-1.27797e-14
-1.26137e-15
-1.21313e-14
-1.47341e-15
-1.29942e-14
9.83555e-19
-1.36086e-14
1.10261e-15
-1.32406e-14
2.21375e-16
-1.34153e-14
3.04064e-17
-1.34817e-14
3.52631e-17
-1.31015e-14
-2.26299e-16
-1.23904e-14
5.6295e-18
-1.19536e-14
1.80347e-16
-1.27177e-14
1.61183e-16
-1.38528e-14
2.90298e-16
-1.44624e-14
1.27537e-17
-1.45589e-14
2.26132e-16
-1.53817e-14
1.11012e-15
-1.57861e-14
7.18247e-16
-1.5486e-14
-8.64818e-16
-1.49388e-14
-1.85501e-15
-1.55341e-14
-1.59824e-15
-1.57424e-14
-1.69177e-15
-1.40176e-14
-2.1888e-15
-1.24179e-14
-1.65731e-15
-1.24384e-14
6.46977e-16
-1.30283e-14
1.7344e-15
-1.34804e-14
-3.08595e-16
-1.47644e-14
-8.823e-16
-1.44493e-14
-1.0442e-15
-1.20941e-14
-1.42622e-15
-1.10918e-14
-3.72396e-16
-1.23373e-14
9.7688e-16
-1.48193e-14
1.67816e-15
-1.7049e-14
1.94939e-15
-1.79274e-14
1.24811e-15
-1.83552e-14
7.17983e-16
-1.89694e-14
1.06132e-15
-1.86505e-14
8.84161e-16
-1.75513e-14
1.98674e-15
-1.67105e-14
2.11582e-15
-1.53601e-14
6.4577e-16
-1.28597e-14
-1.82929e-15
-1.21795e-14
-2.98977e-15
-1.28845e-14
-3.00046e-15
-1.37451e-14
-2.31421e-15
-1.45748e-14
-1.183e-15
-1.47022e-14
-1.45081e-15
-1.53005e-14
1.3754e-16
-1.54072e-14
1.71126e-15
-1.49216e-14
9.6445e-16
-1.50152e-14
1.26694e-15
-1.47356e-14
2.0675e-15
-1.40559e-14
1.2689e-15
-1.43235e-14
4.2134e-16
-1.54521e-14
-1.05235e-16
-1.6095e-14
-4.90554e-16
-1.69161e-14
3.4791e-16
-1.7814e-14
8.71509e-16
-1.81377e-14
-5.99873e-16
-1.69869e-14
-2.35982e-15
-1.45904e-14
-1.33122e-15
-1.20763e-14
3.70743e-16
-1.05317e-14
-6.10137e-16
-1.19437e-14
-8.21396e-16
-1.50381e-14
1.54344e-15
-1.68088e-14
8.45906e-16
-1.72461e-14
-8.05991e-16
-1.81148e-14
6.9812e-16
-1.84227e-14
1.80653e-15
-1.93528e-14
2.49497e-15
-1.95378e-14
1.47629e-15
-1.84782e-14
-1.16551e-15
-1.94135e-14
1.72506e-16
-1.92955e-14
2.76156e-16
-1.85985e-14
-5.8674e-16
-1.7151e-14
-8.86422e-16
-1.50245e-14
-1.42675e-15
-1.49395e-14
-6.08641e-16
-1.66366e-14
5.75939e-16
-1.70547e-14
5.43265e-16
-1.63554e-14
5.16923e-16
-1.58618e-14
7.86606e-16
-1.69933e-14
1.85233e-15
-2.06103e-14
1.66221e-15
-2.20439e-14
-2.21526e-15
-2.11416e-14
-2.02162e-15
-2.27105e-14
1.8786e-15
-2.5793e-14
3.82805e-15
-2.82249e-14
4.46451e-15
-2.79037e-14
2.64293e-15
-2.64898e-14
-4.51926e-16
-2.64781e-14
1.39886e-16
-2.32015e-14
-1.15032e-15
-1.85435e-14
-3.28515e-15
-1.55913e-14
-3.18761e-15
-1.51493e-14
-2.27598e-15
-1.8031e-14
1.36885e-16
-2.16681e-14
1.87538e-15
-2.30392e-14
9.15135e-16
-2.18007e-14
-2.04883e-16
-1.94686e-14
-6.02599e-16
-1.87736e-14
-2.65547e-16
-1.906e-14
1.30374e-15
-1.82667e-14
1.13023e-15
-1.76139e-14
-1.30061e-16
-1.75943e-14
1.14424e-15
-1.72328e-14
1.51133e-15
-1.69086e-14
-1.07991e-17
-1.78561e-14
-7.58906e-16
-1.98928e-14
1.28045e-16
-2.08566e-14
3.136e-16
-1.97413e-14
-7.14186e-16
-2.01198e-14
1.51744e-15
-2.32255e-14
4.11601e-15
-2.57222e-14
4.77124e-15
-2.38955e-14
3.36961e-15
-1.98626e-14
1.14378e-15
-1.75965e-14
-1.35312e-15
-1.75779e-14
-2.00398e-15
-1.74453e-14
-6.79062e-16
-1.78562e-14
-6.06825e-16
-2.01922e-14
-3.45968e-16
-2.33807e-14
1.3387e-15
-2.55605e-14
1.26582e-16
-2.44571e-14
-3.4054e-15
-2.12163e-14
-3.32728e-15
-1.97851e-14
-2.09745e-16
-1.86721e-14
6.06652e-16
-1.87796e-14
1.75112e-15
-2.00992e-14
3.35282e-15
-2.16212e-14
5.00094e-15
-2.22409e-14
3.15866e-15
-2.31179e-14
1.00648e-16
-2.37781e-14
-1.96959e-15
-2.42257e-14
-9.02664e-16
-2.73138e-14
4.09792e-16
-2.74055e-14
-1.76529e-15
-2.4367e-14
-8.0578e-16
-2.44069e-14
1.75453e-15
-2.47681e-14
6.78217e-17
-2.16998e-14
-1.86391e-15
-1.84345e-14
-1.00432e-15
-1.86062e-14
8.38262e-16
-2.13579e-14
1.63394e-15
-2.44828e-14
2.72486e-15
-2.67603e-14
2.47834e-15
-2.66042e-14
3.50804e-16
-2.43247e-14
-2.33503e-15
-2.44306e-14
-1.88922e-15
-2.54419e-14
-1.56471e-15
-2.44824e-14
-2.90389e-15
-2.0531e-14
-4.24878e-15
-1.82828e-14
-8.33496e-16