/*--------------------------------*- C++ -*----------------------------------*\
  =========                 |
  \\      /  F ield         | OpenFOAM: The Open Source CFD Toolbox
   \\    /   O peration     | Website:  https://openfoam.org
    \\  /    A nd           | Version:  7
     \\/     M anipulation  |
\*---------------------------------------------------------------------------*/
FoamFile
{
    version     2.0;
    format      ascii;
    class       volScalarField;
    location    "5000";
    object      rho;
}
// * * * * * * * * * * * * * * * * * * * * * * * * * * * * * * * * * * * * * //

dimensions      [1 -3 0 0 0 0 0];

internalField   nonuniform List<scalar> 
160000
(
22.5475
22.546
19.6137
19.6082
17.5353
18.148
24.8466
28.5832
23.2481
21.8197
20.4217
19.62
19.7943
19.6851
19.6837
22.4287
24.4634
24.4617
24.4321
24.4304
24.4288
19.0489
19.0475
21.9725
23.852
18.3441
17.7361
17.7344
17.7339
17.7311
21.6058
24.9645
24.9661
24.9617
24.9621
19.1332
19.1318
19.1305
19.1292
22.8296
23.9008
23.8988
18.3074
17.4427
17.4412
17.4396
25.6765
25.9938
25.9903
25.9909
18.4495
16.7014
16.6995
16.7003
16.6969
16.6992
22.6948
22.6949
20.0418
19.8925
21.2288
22.2121
22.2109
22.2098
21.9562
21.9551
21.9568
21.9529
21.9524
16.2052
16.204
16.2028
16.2016
16.2011
20.172
22.7166
23.1295
22.9127
23.4102
23.4093
23.4083
23.4073
23.4062
21.6273
20.3418
20.3411
20.3398
20.3391
20.3404
20.3374
20.2838
20.2802
20.2822
21.1498
21.1513
19.9994
20.0895
23.1388
23.2183
23.2143
23.2149
21.6446
21.6412
21.642
19.1844
19.1816
19.1831
19.1808
19.1819
23.1978
24.05
24.0358
24.0359
24.0353
21.7099
21.7101
20.1706
18.9447
19.9572
24.9464
24.9431
22.8954
22.8962
22.892
22.8951
23.6076
24.3492
24.3481
24.3478
24.3469
24.3466
21.6757
20.3606
20.3598
20.3591
20.3584
20.3585
20.4498
20.4493
20.1163
20.4896
20.4856
20.1151
20.1095
20.1144
20.1088
20.1137
21.513
23.1165
23.1162
19.4791
19.4787
19.4763
19.4778
19.3453
19.3454
19.3424
21.8013
21.7986
21.799
19.3426
19.2822
19.504
22.5463
21.279
18.8489
18.8489
16.4995
16.499
16.4991
18.2828
27.7898
27.7885
27.7892
27.659
20.8052
20.805
21.5083
23.8991
23.906
23.8988
23.8994
23.8972
20.83
19.926
20.3462
20.347
20.106
13.8996
12.3525
14.9383
16.6494
19.6537
24.5959
24.5977
16.9388
10.0955
14.7634
52.1411
52.1673
52.1414
52.1475
39.1437
19.635
15.1895
15.1886
20.1503
26.6978
26.6878
26.6907
26.6875
26.6878
25.955
24.8967
24.508
23.2447
20.8049
20.805
22.2568
25.8199
25.8276
25.8204
25.8203
19.2673
18.7991
18.8002
18.7957
18.8005
19.6294
22.8227
22.8222
21.762
19.9735
19.975
19.9722
19.9751
19.9715
23.0607
25.5671
25.5672
25.5672
21.7105
21.1937
18.7383
15.3913
10.2339
8.12208
8.12224
9.74372
43.121
54.6011
54.6164
54.6011
38.3565
24.045
21.1812
20.3861
15.9466
15.9463
15.9467
23.5542
23.7703
23.7708
20.0387
18.3999
19.7134
19.7139
17.6352
13.7424
13.7422
24.3354
28.4432
28.4368
28.4426
27.2265
17.4287
17.4294
17.4253
21.6106
21.6037
21.5929
16.3878
16.2916
16.2935
17.2181
26.694
26.6876
26.688
22.2718
22.1644
22.1646
21.1571
21.1585
21.2164
26.007
26.0063
26.0056
14.1254
8.36179
5.30784
5.30915
8.80936
63.5695
63.6548
63.5686
63.6054
63.5569
44.7469
28.7882
19.0425
16.5705
16.0122
15.2798
15.28
16.6348
24.8365
24.8268
24.8357
24.0023
17.8471
14.399
11.2985
9.49809
9.50124
9.49682
9.50199
15.6373
27.5075
28.4571
28.4564
26.9869
25.2535
25.2522
25.2509
24.2632
21.3167
16.2077
14.5296
14.5287
19.5491
21.495
21.4957
21.4948
15.6577
15.6578
15.6578
15.6578
20.75
27.8305
27.8574
27.8301
27.5402
20.0484
19.0436
19.0437
19.389
25.2913
25.2794
25.2913
25.2795
24.9539
19.5559
19.2267
18.9692
18.9641
18.9693
18.9582
18.9694
21.4117
25.7346
25.7344
25.7347
25.0893
25.0944
23.6637
23.6645
22.583
19.6039
19.6039
19.6038
21.8711
24.5717
22.5938
22.5969
22.5893
22.5965
22.5873
22.5925
22.402
18.5601
17.8889
15.3986
14.7583
13.6365
9.73622
9.73563
13.4197
14.3682
15.7697
15.774
20.8357
20.834
25.5494
20.3528
18.8037
18.1775
18.176
19.9751
21.127
22.0628
22.061
21.1945
19.6868
19.6853
19.6835
22.6829
24.4615
19.7689
19.7672
19.7656
21.2424
19.0999
23.8556
23.8542
23.8524
17.7383
17.7361
17.7354
17.7318
22.0113
22.1188
22.1174
23.6315
24.9623
24.96
19.1332
19.1318
19.1305
19.5054
23.9024
23.9001
23.8994
21.4911
17.4424
17.4408
17.4392
17.4373
20.8347
25.9923
25.9885
21.6398
17.4072
21.9067
22.0004
21.9994
19.2727
22.6954
21.1829
19.8936
19.8922
19.8907
22.212
22.085
21.1054
21.1031
21.6159
19.4572
19.456
19.4546
20.2427
20.2416
20.2406
17.8768
18.9728
22.8976
23.1304
23.1305
22.0126
18.8758
19.8152
23.0754
21.2384
20.7333
20.7322
20.7313
20.7304
20.7296
20.2862
20.2822
20.2846
20.2805
20.283
21.1665
21.1688
20.0001
19.9985
23.2198
23.2191
23.2184
23.1627
23.2135
23.2138
18.7704
18.7689
21.1498
19.1837
22.5426
24.0541
24.0506
24.0526
24.0491
21.5833
19.9917
19.5904
19.3297
19.3287
18.9445
18.9439
21.718
24.9496
24.9458
24.9483
24.9444
24.9441
24.3538
24.3498
24.3491
23.6899
24.3474
24.3471
24.3461
20.3618
20.361
20.3601
21.6157
20.3484
20.602
20.6035
20.116
20.1164
20.1126
20.1156
20.1115
20.4511
22.7326
22.7319
23.1189
23.1196
23.1173
20.2896
20.2893
20.289
19.3466
19.344
19.3457
19.3421
19.3448
19.3429
19.1003
19.1007
19.0992
19.2819
22.5465
22.5469
19.2456
18.8492
19.3863
17.2251
16.435
18.9489
24.0621
27.7887
21.7446
21.7443
22.841
23.4787
23.9002
23.8993
23.9006
23.8989
23.8996
23.8986
23.8781
16.7232
16.722
17.8638
14.8129
8.67934
6.41249
6.4123
16.1209
48.595
46.3617
27.6534
14.4245
10.0955
10.0954
14.9809
52.1594
52.1376
52.1433
36.0023
22.038
15.7128
15.1887
18.1087
26.6982
26.6879
26.6928
26.6875
26.0499
23.1302
20.671
21.5699
22.2702
20.5881
20.8038
24.5248
25.8196
25.8214
25.8156
21.682
19.0109
18.8005
18.8005
18.7962
18.8005
18.7956
18.8018
18.7952
25.6476
26.6539
26.6574
26.6539
26.6545
19.9739
21.2027
25.567
25.5672
25.5671
24.3248
17.7692
16.9003
14.9217
8.00865
6.57267
6.57384
30.8003
54.6171
54.602
54.6173
51.2411
30.6609
26.0355
23.7833
19.445
15.9477
15.9462
19.5388
23.7728
23.7722
23.7727
18.7169
18.3998
18.3994
18.399
18.5312
13.7398
13.7397
27.7174
28.4432
28.4367
28.4433
28.4367
21.5505
17.4295
17.4254
17.4297
17.4248
18.2974
16.8578
16.3879
17.2511
26.6911
26.6957
26.6894
26.6907
24.624
22.47
21.6693
19.5195
21.1541
27.7616
27.7632
18.3995
14.1813
14.3834
9.87633
5.30779
5.30916
5.30785
16.5378
63.6534
63.5629
56.2061
32.2452
22.3652
19.2462
18.2939
16.6143
15.279
15.2789
15.2792
17.1991
24.8368
24.8262
24.8343
22.838
16.0159
12.9775
10.5968
9.50213
9.50119
17.0495
32.8786
32.8703
32.8783
28.6313
28.4597
25.3651
18.9544
18.1527
19.1132
20.4614
21.6155
21.3004
17.6536
17.0457
19.6678
20.9847
20.5681
20.5679
20.6868
15.6578
15.6578
15.6579
18.9608
27.8304
27.8579
27.8306
27.8335
22.8121
19.0436
19.0436
19.0437
20.8351
20.5904
20.9393
24.768
25.2808
23.8867
20.4995
18.9658
18.96
26.5842
26.5705
26.5873
26.5699
26.5773
24.8973
22.5093
21.6114
21.6693
19.7079
19.6235
19.6055
19.6052
19.6038
20.9004
22.841
25.1312
25.131
25.1313
25.1314
22.7591
22.7588
22.7589
19.1066
18.5553
18.5546
18.555
17.2028
17.2012
14.5299
9.73562
11.6873
11.6544
14.3099
15.7741
15.7784
20.8357
20.834
25.5496
24.5528
24.5513
20.1148
19.6883
22.4684
20.8589
20.8572
20.8556
21.1886
19.6871
19.6851
20.1521
21.9951
24.4611
24.4593
19.7672
19.7655
19.7637
23.8571
23.8557
21.4569
21.0143
21.0123
21.2449
19.6297
22.6038
22.6019
19.0214
20.9475
23.9374
24.9611
21.756
19.3718
22.7904
22.7888
22.1077
19.6867
18.8773
19.1491
20.9994
21.4776
21.9217
21.9208
19.2929
19.2921
19.2912
22.342
22.34
19.6138
19.278
19.2765
19.2744
19.2741
21.0854
23.9397
23.9381
23.9369
18.3046
18.1261
21.9891
21.9876
21.9288
21.9276
21.9263
21.9249
19.4533
19.4522
19.4086
19.4071
19.9493
19.9487
18.8773
18.8778
18.8737
18.876
18.872
22.8132
22.9815
22.9804
22.9792
22.4895
20.9336
19.1396
20.0973
21.5626
21.5606
20.283
20.2838
20.6797
20.116
20.1147
20.1141
17.7023
17.7011
17.7005
19.0865
19.4758
18.9078
22.4509
20.5834
18.2174
21.1496
23.7783
24.3124
21.4752
21.4747
21.4729
21.4733
21.9739
22.0776
20.6622
20.6614
20.439
18.9439
20.315
23.6764
24.2011
20.9943
19.9168
19.9168
20.6152
22.5444
21.6401
19.9744
19.9738
19.973
20.1942
21.2213
24.2359
24.235
24.2343
21.6959
20.3472
20.1177
20.1154
20.1168
20.1138
21.4688
22.9955
22.9962
19.9231
19.9214
19.9221
20.4312
23.1186
23.1182
19.5925
19.5917
19.5918
19.5905
20.9649
20.9645
20.9643
20.6154
22.1304
22.1306
22.0489
19.1004
19.0989
19.0999
22.5464
22.5479
22.5479
20.2309
15.8182
15.4463
16.8316
27.1671
27.7879
27.7871
27.7871
21.7977
20.4967
20.4962
20.4957
20.4947
23.2382
23.8987
22.5831
19.5583
17.2436
11.9469
7.87651
6.41052
6.41047
6.41034
16.1848
75.748
71.9282
43.419
24.8127
14.827
10.4493
10.0955
12.6589
22.7007
28.4186
23.2805
16.626
14.5356
17.0106
22.9227
26.6865
26.6876
23.4105
22.3147
22.3161
23.3173
20.3714
20.3713
20.3712
20.3712
20.5137
23.9614
25.8167
25.8183
21.3367
18.8018
18.803
18.8007
18.8017
22.613
24.4259
20.9702
19.3118
22.5199
25.4355
26.0251
26.6577
26.6539
21.928
16.8209
20.4097
22.7869
21.7601
21.7602
21.7602
23.7431
22.7997
14.0035
7.78889
6.57265
6.57295
6.5725
33.2608
54.6018
54.6172
52.1997
25.3722
19.0164
18.0083
17.4812
16.4334
15.9473
15.9478
20.8262
23.7724
23.7707
18.4898
18.0008
18.5204
19.3321
16.236
13.708
13.7381
23.7206
28.5127
25.4959
24.4273
24.4266
24.4275
20.9813
17.4289
17.4296
17.4253
17.43
19.7821
26.6958
26.6967
26.694
26.6947
24.4847
20.928
21.0161
24.2892
24.2316
22.0964
16.8574
11.5302
7.53868
5.65798
5.65707
5.65665
5.6565
5.30843
5.30914
5.39151
27.003
62.3477
62.3654
32.0937
20.86
18.8679
18.8675
21.7228
19.8251
16.7331
15.958
16.7041
18.508
23.0624
24.8254
24.4626
19.1128
16.2205
14.511
11.5645
10.0067
10.0021
27.7377
32.8787
32.8709
32.8787
29.0105
22.1783
21.2135
20.1193
18.1527
18.1514
23.0576
23.0576
22.8582
21.927
19.3411
19.2513
22.2866
25.1717
24.7383
21.0061
16.5002
16.4328
20.4836
26.3006
27.8295
27.8553
27.8305
27.2319
21.0513
21.8315
23.5918
23.5919
23.5918
22.2621
19.4309
21.4222
24.77
24.479
20.1569
18.9657
18.9575
18.963
26.5705
26.5784
26.57
26.5705
25.4426
21.4704
21.4719
21.4733
21.6589
29.0812
29.7441
29.744
29.7439
26.1316
20.0825
20.0809
20.0827
20.0811
20.2645
25.13
25.1303
21.9541
21.9496
21.9525
21.9471
21.5335
16.1305
16.1295
16.1294
15.2443
15.0188
14.7602
11.6464
12.8837
15.7784
15.7828
20.9328
23.0251
22.9394
22.9602
23.688
23.6863
21.8356
22.4682
20.9343
21.8674
21.8657
21.6549
21.3327
19.6855
19.6832
19.6824
19.6801
20.2217
19.8092
20.8043
19.4141
19.4125
19.4109
20.2474
23.7049
23.7034
22.1989
22.6054
22.6034
17.6041
17.5829
17.5818
17.5797
17.5787
17.5763
23.7387
23.7371
21.3838
18.8802
18.8785
18.8769
18.8753
19.0033
19.5787
21.9222
21.9203
21.9195
21.9176
21.3134
19.3584
19.3571
19.3558
19.2785
19.4395
19.8259
19.8245
18.9119
18.9108
18.1192
18.1181
18.1171
18.1254
22.8877
19.9606
19.9594
19.9432
17.8456
15.4067
22.0386
22.1405
22.1399
17.466
16.4795
20.471
22.3578
22.3528
22.3527
22.3509
22.352
19.1421
19.1437
19.1393
19.142
19.136
19.1403
19.1334
19.1387
19.1337
21.4464
21.4441
20.6261
20.6806
20.6798
20.1195
18.107
21.0371
20.442
17.7
17.6997
17.6985
17.6984
14.8967
14.8973
16.4581
20.6761
25.069
25.313
24.8737
24.8729
24.8722
22.0792
22.0787
22.0781
19.6651
18.9453
18.9441
18.944
18.9422
22.725
22.4001
20.364
20.3633
20.3626
19.0807
19.0804
19.0797
20.3538
20.3522
19.9726
20.5679
20.6955
21.1959
19.7683
18.0894
17.2843
20.3292
21.4717
22.4999
22.7675
25.2548
26.1568
22.996
19.9235
19.9194
19.9224
19.9183
19.9207
22.9747
21.2737
21.3916
21.391
21.3909
21.2302
18.9992
18.6711
18.6699
18.6699
18.6686
18.6688
18.403
19.9151
21.2866
23.4116
25.3236
21.5858
16.9496
15.5348
15.2613
15.4434
24.2794
27.165
25.8951
23.6744
23.6739
23.6842
23.6839
23.6834
21.6319
18.5755
19.177
23.8985
20.9771
14.0415
11.1149
8.74075
6.97234
6.41055
7.74844
41.8278
90.4525
87.4302
48.888
32.1404
29.7492
25.4956
16.7707
11.8825
11.8829
14.1736
17.7579
17.9603
14.4019
14.4022
14.4012
19.696
26.6863
26.6864
24.3815
23.9104
23.9099
21.6995
20.3716
20.3715
23.4125
24.9632
24.9619
24.9621
24.0861
21.1378
18.8033
18.8037
18.8014
22.3626
27.244
27.244
27.2441
24.3859
21.0153
19.0739
19.0743
19.6735
24.0791
22.1337
15.9664
15.0582
20.5814
25.5333
27.5327
27.5328
27.1795
23.1659
15.0491
8.92847
6.57263
6.57289
6.57268
9.02193
49.7237
54.6171
54.5914
27.0186
19.719
18.4497
16.9184
16.4339
16.4334
17.3571
22.1108
23.7735
23.7739
20.6636
16.9391
17.9988
20.6763
20.6767
17.9394
13.708
13.7069
16.7206
28.5111
28.5181
28.5112
28.5183
26.6039
17.4295
17.4298
17.4265
17.4299
20.0051
30.4522
30.4523
26.1459
20.9897
19.4785
19.4784
20.9283
21.2082
22.4365
23.2061
21.1382
13.5058
7.19223
5.65882
5.65835
5.65797
5.65673
21.4366
37.3964
41.1
41.1061
40.6192
20.4606
21.7165
20.4312
22.0858
25.6703
27.2233
26.8339
23.8482
21.4985
20.2144
17.9801
17.9789
18.9665
24.5811
24.6527
21.4291
15.9442
10.8706
10.0089
10.0063
20.6056
32.8785
32.8708
32.8763
24.256
18.0023
16.5957
18.5854
21.5939
20.1726
17.0333
15.177
15.0078
15.0032
23.521
28.8518
32.8655
34.0929
34.0932
33.5612
24.7734
18.5731
16.4345
16.4347
25.4982
27.8339
26.2482
24.2997
22.6341
20.4383
20.4991
20.9136
22.0809
23.521
22.3253
19.3836
17.3831
17.3791
23.1207
23.1211
23.1211
21.3105
18.5202
18.5221
19.3103
18.2195
17.747
22.1836
21.4689
21.6607
21.4748
22.5202
29.2718
29.7439
29.7442
29.7011
23.1437
20.0794
20.0826
21.0697
20.0829
20.0812
22.2127
25.1285
25.1288
24.6627
24.6614
21.5318
21.5304
21.8273
18.9801
14.5346
14.5337
14.5341
12.6977
11.6461
13.8983
15.7827
15.7871
23.1304
24.1647
22.6462
22.5952
22.0752
21.907
20.2482
20.3596
20.9342
20.4325
21.3178
20.2388
20.2376
21.1217
21.1204
19.6816
19.681
19.6783
19.678
20.8036
20.8029
20.4364
19.4107
19.4092
19.4077
18.431
18.4296
18.4282
18.7986
23.7388
23.7359
23.736
23.3827
23.7319
16.7435
16.743
16.74
16.7411
20.6888
24.4785
20.3325
23.7534
23.7519
20.4668
19.8053
19.8038
19.8024
19.8009
20.65
20.6486
20.0649
20.0928
20.0915
18.9252
18.9239
18.9226
18.9211
20.8615
20.8604
18.6152
18.3113
22.9199
25.7883
25.7912
25.7865
25.7861
25.783
15.406
15.4048
15.4055
15.4026
15.4052
15.7503
18.4218
19.9843
22.3534
21.4618
21.4605
22.3504
22.3525
22.3432
19.1428
19.1388
20.486
21.0172
21.0178
21.0112
19.1909
18.7301
18.7292
18.7284
17.8052
17.8042
17.8037
17.8023
22.4026
23.1348
23.139
23.1338
23.1355
23.1316
14.8968
14.895
14.8967
14.8926
15.803
25.3128
24.3854
22.4911
22.8312
21.9458
21.9451
22.0764
22.0757
22.075
21.8693
18.9433
18.943
20.1565
18.9312
20.3165
19.7769
18.7872
19.3556
20.0406
20.0407
18.9176
18.6458
18.645
24.1172
24.7819
24.7871
24.7815
24.7812
15.0671
15.0654
15.0677
15.0636
15.9312
25.3072
26.1565
26.1563
26.1551
22.3739
20.1743
20.1746
19.5842
18.4877
18.4875
18.4865
18.4865
18.4847
21.4606
22.7885
22.7842
22.7878
22.7836
20.2269
16.2854
16.2819
16.2849
16.2814
17.094
26.3127
26.2691
18.177
24.5227
15.2598
15.2611
15.9048
22.6849
25.1951
24.1379
22.0243
22.025
22.2538
22.2978
20.7901
18.5751
17.1844
17.1828
19.421
17.508
11.2434
9.85277
24.6624
91.3029
91.344
91.302
90.4685
46.332
25.6844
22.4004
25.8101
25.161
17.6785
14.6067
17.5807
22.7212
21.1239
22.4141
14.4019
14.4013
14.4021
15.9273
26.6862
26.6859
23.1186
21.1419
20.9045
20.9044
22.0892
24.9631
24.9646
24.963
22.0605
20.0096
20.0095
20.0099
20.2717
22.9382
22.4262
21.7351
23.7916
25.4646
22.0636
19.1017
18.9163
18.918
22.0665
24.078
24.0787
22.7602
20.1301
13.7567
20.4554
24.3882
19.5218
15.3276
14.4421
14.4412
13.5337
9.18149
6.6155
8.56732
17.7746
38.36
54.4568
54.4699
29.5618
18.7544
16.8214
16.8214
16.8468
18.3886
21.7594
23.7758
23.7739
23.7744
22.6055
18.9195
16.9391
16.9392
20.3248
20.6764
17.7569
16.9399
13.7069
13.7069
17.4601
28.5111
28.5138
23.1614
17.4298
17.4304
17.4294
29.3179
30.4547
30.4592
30.4546
24.6688
21.586
21.5865
21.6973
19.8429
19.8431
19.8433
21.6089
23.2061
19.3065
10.375
5.87329
5.65913
5.65887
16.8739
52.0496
52.073
52.05
52.0545
29.2776
18.0021
12.9698
12.97
19.1928
27.2945
27.2895
27.2924
22.9528
18.2381
17.9768
17.974
17.977
17.9741
21.7099
29.7035
26.4692
18.2117
13.6471
11.3343
12.926
22.6845
32.8782
32.8707
32.8779
26.8516
17.4208
15.6708
15.6707
18.2154
21.6538
21.6451
21.6467
17.7853
17.7829
15.0032
15.0032
17.2835
28.7133
34.0931
31.9471
26.349
26.3555
26.3492
26.3558
26.3488
26.3514
23.1672
19.9094
19.576
19.3419
19.266
19.547
24.2773
24.2799
24.2769
20.7031
18.9192
18.2162
17.3782
17.3764
19.185
19.5512
18.8148
19.6659
22.0624
20.7955
22.058
15.5506
15.5506
19.4306
25.1217
28.8286
30.738
30.7389
28.233
20.0803
20.0825
20.0799
20.0825
20.0779
22.0387
24.3407
24.3407
24.3408
22.9656
19.5059
19.5038
22.1791
22.1787
21.8629
21.976
21.9753
21.976
21.6116
13.4165
12.7923
13.9124
17.1705
15.7783
15.7915
20.9647
22.6149
21.4784
21.2519
20.2517
20.2498
20.2479
20.2461
20.244
20.2425
20.2405
20.2389
20.2372
20.2359
21.0377
22.1552
22.1532
19.6796
19.677
19.6766
19.7535
22.2481
22.2467
19.4093
19.7607
20.864
18.4296
18.7796
18.0656
19.9345
23.7378
23.7344
23.7346
23.7319
16.7433
16.7412
16.7417
16.7382
16.7399
24.4766
24.9787
24.53
21.5087
19.8072
19.8056
20.9467
20.9454
19.8007
19.3251
20.6484
20.647
18.928
18.9265
18.9254
18.9238
18.9764
21.7958
21.7945
20.2287
20.2274
20.5252
21.0457
25.7924
25.7871
25.7899
25.7846
25.7852
16.7385
15.4064
15.4039
20.469
24.3441
24.3449
22.1111
19.985
21.6669
21.7662
21.7649
20.5737
19.1445
19.1447
19.1409
19.1417
19.1393
19.1401
19.1376
19.4035
22.0688
22.0679
22.0267
17.9317
17.8049
19.7525
20.548
20.5475
21.3149
18.6498
18.649
23.077
23.1324
22.4586
14.8967
14.8972
14.8943
18.7741
23.6478
21.3527
21.3524
21.3552
22.8309
22.8302
22.7418
19.4992
19.4985
20.97
21.8688
21.4494
18.7901
18.7902
18.7872
18.7884
18.7852
18.787
18.785
19.8438
18.9362
19.736
23.485
24.7908
24.7824
24.7914
24.782
24.7847
24.5594
15.0666
15.0675
15.065
15.6106
23.2844
25.3108
24.4255
22.382
22.8878
22.8873
22.5189
19.5943
19.5933
21.3314
21.3307
21.146
18.6784
18.4828
18.4837
18.5519
22.7413
21.8174
17.8947
16.2856
16.2836
16.2851
16.2817
19.6987
26.3206
26.3126
26.3191
26.312
26.3118
15.2581
15.2597
17.6011
22.0213
22.022
22.0227
22.0234
22.0724
22.2814
22.1019
20.3312
17.9604
17.9296
17.0631
11.3707
5.59309
3.87136
11.5554
87.4733
91.3444
91.3024
91.2884
40.1954
21.3212
17.9503
17.9306
21.3648
25.1588
21.1728
17.8912
20.6621
22.7244
22.4274
22.4194
14.4014
14.4017
14.4007
16.3958
25.7746
26.139
23.3381
21.4146
20.9045
20.9044
24.154
24.9646
24.9631
24.9631
22.043
20.0093
20.0096
20.9673
22.992
22.9928
20.3796
18.9148
18.912
18.9149
18.912
18.9149
18.9132
22.5281
24.0772
24.0781
22.1041
15.2978
17.0773
12.5956
16.402
16.6566
13.11
13.5392
15.4171
15.417
11.5791
10.2662
14.0496
23.1533
34.0031
35.2146
31.7431
28.0835
21.0532
16.9171
16.8214
16.8214
19.7288
23.7738
23.7757
23.7739
23.7744
20.5427
16.9391
16.9391
16.9391
16.9388
20.5022
20.6755
16.1524
16.154
13.7069
14.6748
28.5016
28.5039
24.35
19.4192
17.431
17.4299
19.8726
30.4534
30.4576
27.1607
23.2378
22.6061
22.6033
23.5682
23.5647
23.5684
23.5649
23.3343
20.5921
17.8973
13.3782
8.16564
5.87407
5.93729
22.0083
52.0471
52.0655
46.0179
37.3571
29.4469
16.7034
15.5174
12.9698
12.9699
17.6997
27.2894
27.2933
26.5469
19.5579
17.9768
17.9756
17.9769
23.1534
29.7074
29.705
29.7079
25.2084
16.1468
13.41
13.4085
16.52
21.4617
27.4605
27.7061
21.8472
16.9612
15.6707
15.6709
15.6709
16.2722
21.6449
21.6544
21.6471
17.0282
17.0298
15.0031
15.0032
16.6881
33.2123
33.8203
26.5333
25.282
25.2816
25.2815
24.7093
24.7092
25.3976
26.9284
21.5136
19.2622
19.2652
19.2555
20.4816
24.2798
24.2774
24.2799
24.075
21.8986
21.0325
19.3686
16.7759
15.529
15.5281
18.3624
22.0624
22.0711
22.0634
22.0666
15.5506
15.5507
15.5499
26.5174
29.1263
29.1245
29.5241
31.9565
31.9606
31.9561
29.0994
24.1659
23.6559
24.3397
24.3407
22.1268
20.2378
22.9015
20.7083
19.5019
19.501
19.5007
19.5006
19.4985
19.4985
19.4987
16.2652
13.4168
15.8719
21.01
22.2199
23.0081
23.6854
23.722
20.233
20.5209
20.254
20.2521
22.4661
22.4644
21.4095
20.4111
21.9325
20.2405
20.2386
21.7849
21.7829
21.7182
22.155
19.7651
19.7631
19.6782
20.3295
22.2498
22.2483
19.4111
19.4095
20.0583
20.8641
18.4295
18.9523
18.0657
19.7695
23.7361
23.7361
23.2888
23.7308
16.7433
16.743
16.7398
19.7645
20.6043
20.6022
24.9828
24.9814
23.1833
21.1496
22.7757
22.7745
19.1101
19.1086
18.9324
18.931
18.9296
18.928
18.9269
19.9487
20.2998
20.2986
21.7957
21.7838
20.7965
20.0431
18.8307
19.7273
25.7876
25.7911
25.7858
20.9351
25.4218
15.4074
15.4051
15.4068
15.4042
15.4055
17.3203
24.4632
24.4634
23.6337
21.3756
21.766
21.7639
21.7642
21.7618
21.2253
19.1401
19.1409
19.1383
19.2117
19.4041
18.513
18.3301
18.3292
18.3161
18.8491
20.548
20.5478
20.4114
18.508
18.5071
21.4552
23.074
22.2217
22.2229
14.8979
14.8961
14.8978
20.4521
25.8653
25.8653
21.3519
21.3515
21.3503
20.2062
19.4998
19.4984
21.6139
21.6131
21.0656
18.8714
18.8717
23.8441
23.8456
23.843
23.8024
19.7011
17.9235
17.9228
17.9221
17.9211
19.2577
20.2953
23.4058
24.7819
24.7839
22.4326
23.208
15.0679
15.0663
15.0679
17.739
26.111
26.1107
22.1896
21.1348
21.1338
21.1341
22.0096
22.9757
22.9742
21.3172
18.4846
18.4848
18.4832
18.484
18.482
18.6058
22.741
21.8134
17.3231
16.2849
16.2854
16.284
25.9232
26.315
26.3112
26.3187
26.3123
26.3127
26.3098
15.2565
15.2579
15.527
23.4398
23.4395
22.0236
22.0244
24.721
25.9229
25.9234
24.3047
20.7123
16.0744
10.4051
5.30604
2.29599
2.29611
7.9239
69.3609
91.3028
89.3555
45.9416
27.519
21.0957
18.6168
17.6579
17.657
19.4721
22.7271
22.7214
22.7258
22.7214
22.7225
22.3692
14.4014
14.4008
14.4016
14.3994
16.8524
26.1378
26.1377
22.4261
20.9984
24.2842
24.2835
23.4
23.1004
24.7564
23.1401
20.0094
20.0092
20.0096
20.0091
21.486
21.1617
20.3748
18.9148
18.9119
20.1872
21.951
21.9525
21.2698
21.801
23.9333
22.1653
15.2882
16.2887
10.7979
10.7967
10.7992
10.7953
10.7997
12.4291
19.4377
19.6867
18.762
20.5658
25.563
30.38
30.337
24.5396
20.252
17.9142
16.8214
16.8214
16.8215
17.0619
17.6166
19.7487
22.6805
23.7726
23.7466
22.4153
22.4152
22.2728
18.9051
18.2649
20.6737
19.8525
19.8511
13.7072
13.8383
22.6371
24.1694
23.3025
19.7332
17.4304
18.9569
26.752
30.404
28.3579
26.5884
26.5881
25.7754
22.2596
20.1362
20.1366
20.6218
22.906
21.9522
18.7408
14.5081
10.1775
6.62692
5.87491
6.15937
25.9663
52.0629
44.8751
24.3054
19.7598
19.8693
15.6535
16.4404
13.8443
19.9457
25.0831
25.082
24.8039
22.5274
19.5572
20.3198
27.385
27.3905
27.3852
25.9126
22.5893
20.6142
19.8626
19.8621
21.0994
20.4014
19.8454
19.9733
23.1196
27.7027
25.4795
19.1259
15.7491
15.6708
15.6709
19.8691
21.6558
21.647
21.6553
21.6472
21.5096
15.0032
15.003
15.0028
29.4601
33.6121
25.2833
25.2826
25.2821
28.2249
27.586
26.9325
26.9321
26.9317
22.3431
19.2651
19.2562
19.2652
20.9851
24.2773
22.9645
21.2167
21.2169
21.217
22.1027
19.1396
15.9154
15.5282
18.7478
22.0614
22.072
22.0624
22.0697
22.0621
15.5506
15.5507
19.9259
28.6974
29.1214
29.123
29.1245
30.4915
31.4373
23.8212
23.3735
23.9036
24.3387
24.3401
21.9644
20.0089
20.008
20.0081
20.0041
20.0049
23.4129
23.4183
23.4129
22.694
22.6942
22.6943
20.3749
14.9211
14.9208
14.9208
21.0237
23.4446
23.6967
20.468
20.2329
20.231
21.2882
21.2863
20.6452
20.6433
20.6414
22.4246
22.4229
21.9157
20.1377
20.136
20.1342
20.1325
19.768
19.7657
22.5501
22.5481
20.6873
22.1981
20.8095
20.8077
21.8733
21.3866
20.5335
20.5303
20.5293
18.3258
22.6482
23.7368
20.5204
18.6358
18.6343
18.2785
22.3931
22.3922
20.2541
19.4706
20.6008
20.6
20.5991
20.7111
20.71
22.7583
23.3842
23.3816
23.3809
23.3788
23.3725
21.462
21.4608
21.4594
19.1938
19.1927
18.8359
18.8339
18.8338
18.8308
18.8316
18.8285
18.8299
22.2961
21.5904
17.2895
15.4119
15.4104
15.4079
20.0488
23.7104
27.4155
27.4137
27.4128
22.6689
19.7023
19.7012
19.7001
19.699
19.6983
19.6976
19.6969
20.2122
21.2603
21.2589
20.5776
19.3138
19.3133
20.7189
22.5753
19.2264
17.9794
17.9787
17.9779
17.9769
19.1262
22.4718
21.7699
21.456
21.8112
22.507
22.2505
14.9077
19.5795
20.4559
20.4552
20.4547
21.2572
22.9985
22.9961
22.9971
22.9944
21.0792
19.1874
19.0601
19.0595
19.0588
19.057
23.6976
23.6979
20.5492
20.5486
20.548
20.5473
21.171
21.1705
21.0877
17.9217
17.9214
18.0149
23.8949
21.2973
15.3966
15.0726
15.0716
15.0691
22.9514
26.1278
26.1288
25.3183
22.297
22.2499
22.8005
22.9786
22.9767
22.9778
22.9758
19.988
18.4854
18.4853
19.3859
19.3865
18.483
18.4835
18.4819
21.407
21.7154
19.5289
18.8844
18.6491
20.3159
23.2679
22.0791
17.5829
17.5831
17.5823
21.6555
18.6409
15.2533
20.4388
25.678
25.6777
23.4389
23.4432
27.937
27.9366
22.7219
21.1746
21.0891
15.5347
7.63938
3.61328
2.29606
2.2961
2.29597
7.92562
49.2528
75.1355
36.2539
23.2302
22.236
22.2358
21.3247
17.9118
17.6571
17.6569
17.6621
20.0635
17.8978
17.2335
17.2322
17.6245
16.1277
16.1289
15.7485
14.5213
15.2617
21.6806
26.138
26.1359
26.1375
26.1356
22.5718
20.0099
20.0098
20.009
20.0095
20.0082
21.6911
23.2406
23.2419
23.216
20.4153
18.9161
18.9131
22.2213
22.22
20.5964
17.8015
17.8368
18.8083
17.2922
15.148
14.5014
14.4487
11.8553
12.1538
12.27
15.576
20.4996
23.2009
22.6807
22.3865
21.6904
19.3965
18.3525
18.3526
18.3523
20.4292
20.271
20.6382
19.4565
17.4506
17.0131
17.0137
17.0144
17.0791
19.6801
20.1394
21.2419
22.415
22.4152
21.0815
16.2953
14.5038
14.5021
14.5039
15.1776
13.7072
17.0159
22.9649
25.1861
25.1865
23.6525
21.0913
22.8564
25.9887
26.0804
22.6544
20.0983
20.8151
23.0087
22.8895
21.4093
20.2292
18.3903
16.4805
16.4797
16.4783
16.4799
12.3643
7.39695
5.87584
8.39901
30.0919
52.0446
36.6707
16.6759
12.9064
12.9063
12.9066
16.6415
22.7572
24.8066
24.808
20.124
19.5611
19.5606
19.558
26.5267
27.3912
27.3851
26.5598
20.1442
18.7566
20.2601
23.926
23.9275
21.4717
19.8451
19.8461
19.8423
19.8475
19.9576
23.7159
19.2142
16.2085
16.6456
20.2695
21.1589
21.1628
15.8003
15.2299
15.2295
15.2297
15.0031
15.0032
22.6102
34.1189
34.1195
31.9302
31.5859
31.5845
30.5399
24.0088
22.8123
24.0625
22.2061
19.2815
19.2636
19.2652
19.2601
21.1768
23.2617
21.0035
21.0028
21.2478
23.3113
23.3109
23.3114
21.5526
17.254
17.2262
17.23
20.3379
21.4764
18.0527
15.5631
15.5579
24.5493
32.2352
32.2356
29.1229
29.1249
34.5933
34.5932
34.5925
27.6368
23.3736
23.6805
24.339
21.1282
20.0099
20.0082
20.009
20.0057
20.065
23.4125
23.4188
22.1394
20.0563
20.0553
20.0545
19.8865
17.1025
17.1027
17.6759
17.6773
17.6747
23.0147
23.7081
21.1235
20.2814
20.2309
21.2881
20.8412
21.4305
21.0877
20.6412
20.3318
19.7351
20.6988
21.2409
21.3018
21.3002
19.7701
19.7679
20.2066
20.9636
20.6403
21.2885
22.1982
20.8099
21.408
21.8734
21.3868
21.7895
21.7886
20.0397
21.1977
23.7376
23.7368
23.7345
23.7333
23.7306
17.8409
17.8404
17.8376
17.8386
17.8363
24.502
24.4996
22.4365
20.7235
20.9356
21.9635
22.8858
22.9131
19.7991
19.7975
19.7957
20.1608
19.2067
19.2054
19.2042
18.8371
18.8347
18.8349
18.8321
18.8327
20.9361
24.3082
24.3401
24.3432
24.3387
24.3415
24.3363
24.335
15.4093
15.4087
15.409
15.4058
21.1765
24.1827
23.7563
23.7552
23.7542
23.5233
20.4611
19.6985
20.0304
22.3338
22.3333
21.1428
19.3869
19.3858
19.3142
19.3261
20.9034
22.5753
22.5748
20.8397
17.9787
19.3372
22.5102
22.5137
22.509
22.511
22.5076
22.5093
22.506
22.5055
14.9091
14.909
14.9089
20.609
22.9106
21.9307
22.7704
22.639
19.463
18.5475
18.5483
18.5451
19.3218
22.3819
22.3813
22.3807
21.7911
20.6962
20.6954
21.4927
21.4921
21.3575
20.4606
20.4147
21.4258
22.0541
22.4901
25.4481
26.0443
26.0501
26.0432
26.0474
26.0416
15.0712
15.0714
15.0715
22.3842
22.2519
22.2512
22.2503
22.6391
22.9771
22.9769
19.9063
18.9966
18.9959
18.9951
19.7977
18.7613
18.7605
18.76
18.4831
18.4825
20.7312
22.6005
22.6002
22.5999
20.5554
18.4224
22.6935
27.6402
27.6527
27.641
27.6511
27.6405
26.2341
15.2517
15.2532
15.2615
19.4093
26.3878
27.9373
27.9368
24.7793
22.0272
20.9329
15.9084
7.65747
3.14282
2.29611
2.29616
2.29598
6.89913
28.9617
46.0034
35.7201
22.7304
18.6107
18.6104
19.2896
19.3496
18.1206
17.9564
19.6359
21.5378
21.5372
21.5367
21.5361
21.534
21.5332
14.9361
14.9348
14.9336
14.9323
14.9335
14.9348
18.2409
26.1376
26.1356
26.1366
25.4399
25.4391
25.4384
23.6364
20.101
19.8967
19.8952
19.8967
20.0563
23.2152
22.1069
22.0631
22.2228
22.2233
18.7277
16.2476
17.8066
21.6742
21.682
21.6747
21.682
21.6747
21.6748
11.8572
11.8589
11.8606
13.7012
30.5295
30.7281
30.7286
28.6006
22.4344
18.5181
18.3525
18.3526
18.3526
20.3645
20.7297
20.7306
18.8256
17.4509
17.5578
20.6384
21.884
22.1034
20.1126
18.0013
18.0021
18.0012
19.9524
22.4629
22.468
22.4631
22.4638
17.6516
16.5318
13.7086
13.8793
23.4065
23.4076
18.757
19.7895
25.8514
29.3851
29.3852
27.7235
21.7522
19.8124
21.8111
23.0084
21.5031
18.037
17.3588
17.3585
17.3582
17.7505
17.7512
13.8901
12.0166
12.0151
19.8788
30.312
32.5381
32.5437
24.2522
20.9479
20.9468
20.9462
20.9453
20.9442
17.6466
17.6469
26.0272
26.9655
23.463
19.561
19.5607
19.5612
26.9395
27.3905
27.3852
21.9977
18.7567
18.7567
20.1777
23.9274
23.9276
23.9197
21.4869
20.6901
21.8861
23.9442
23.9428
22.2619
18.4538
17.0859
17.4471
20.9914
22.4795
22.4795
22.4794
20.6752
20.6738
15.0033
15.0032
28.3509
34.1194
33.5833
27.3482
24.0986
22.8725
22.136
20.9618
20.9518
21.496
26.1428
24.3292
19.7282
19.2618
19.2652
23.043
25.0274
25.0208
25.0218
20.8368
20.4754
21.082
23.196
23.1961
19.9832
19.1774
22.3959
22.4017
22.3963
22.4016
22.3956
15.5631
15.564
21.4605
36.0948
36.3214
36.3211
36.3215
29.7749
23.8179
23.8169
23.8168
23.1723
22.4347
22.4337
24.0982
24.0976
24.0973
22.0647
20.0668
20.0697
20.0703
20.0736
21.137
22.954
22.9542
22.9543
18.9161
17.1025
17.4411
14.9235
14.2364
14.2341
23.7194
26.4618
20.5562
20.2307
20.1633
20.8409
22.2711
20.8423
21.3157
21.314
19.7354
20.2389
20.21
19.9733
20.0548
20.7106
20.7091
20.0713
20.0697
20.0251
20.0233
20.0221
22.3081
22.3069
21.8259
21.8244
21.8229
19.7582
19.7564
23.0329
22.7513
20.1645
20.163
20.1613
20.0647
17.8417
17.8395
17.8397
18.1375
20.1247
24.5011
24.4999
22.5656
22.034
22.0326
21.5364
19.8019
19.7992
19.7987
19.7967
19.7962
19.7944
19.2068
19.2055
19.2299
18.8368
19.8269
19.8818
19.6689
18.8322
18.832
19.3228
19.8545
19.8528
19.8522
22.7105
24.336
20.7118
15.4099
18.4856
18.5145
19.3724
23.4827
24.471
24.4701
22.3035
21.1437
19.7008
19.6998
19.6987
20.0081
21.9921
20.4184
20.4178
21.0742
21.0733
21.0038
19.3222
19.3207
22.0865
22.5747
22.5739
22.5731
22.5722
19.9124
17.7101
17.128
17.0703
17.0703
17.0684
17.0684
17.0673
17.0652
25.569
25.6361
25.6358
25.6346
25.6342
22.6404
19.4854
18.5489
18.5488
18.5449
18.5477
18.5436