/*--------------------------------*- C++ -*----------------------------------*\
  =========                 |
  \\      /  F ield         | OpenFOAM: The Open Source CFD Toolbox
   \\    /   O peration     | Website:  https://openfoam.org
    \\  /    A nd           | Version:  7
     \\/     M anipulation  |
\*---------------------------------------------------------------------------*/
FoamFile
{
    version     2.0;
    format      ascii;
    class       volScalarField;
    location    "5000";
    object      T;
}
// * * * * * * * * * * * * * * * * * * * * * * * * * * * * * * * * * * * * * //

dimensions      [0 0 0 1 0 0 0];

internalField   nonuniform List<scalar> 
160000
(
300.097
300.288
300.476
300.664
300.856
301.045
301.231
301.413
301.589
301.772
301.957
302.135
302.313
302.495
302.672
302.843
303.01
303.176
303.347
303.519
303.684
303.844
304.004
304.164
304.319
304.474
304.636
304.795
304.952
305.104
305.25
305.394
305.543
305.69
305.83
305.971
306.117
306.262
306.401
306.537
306.674
306.807
306.941
307.074
307.207
307.343
307.474
307.597
307.72
307.843
307.964
308.091
308.217
308.338
308.46
308.578
308.696
308.811
308.92
309.029
309.144
309.258
309.365
309.469
309.571
309.676
309.783
309.888
309.99
310.086
310.187
310.289
310.387
310.485
310.58
310.673
310.766
310.857
310.948
311.038
311.127
311.218
311.306
311.391
311.477
311.562
311.645
311.725
311.804
311.885
311.963
312.04
312.12
312.198
312.273
312.344
312.415
312.486
312.556
312.624
312.692
312.759
312.826
312.895
312.961
313.026
313.089
313.151
313.215
313.277
313.337
313.395
313.452
313.509
313.565
313.62
313.675
313.729
313.785
313.839
313.891
313.941
313.991
314.04
314.089
314.139
314.188
314.234
314.278
314.323
314.366
314.407
314.45
314.494
314.538
314.58
314.62
314.659
314.697
314.733
314.769
314.808
314.843
314.878
314.914
314.949
314.983
315.015
315.047
315.078
315.107
315.137
315.166
315.195
315.223
315.251
315.279
315.306
315.333
315.358
315.383
315.408
315.431
315.454
315.476
315.498
315.52
315.542
315.563
315.583
315.603
315.623
315.641
315.659
315.676
315.693
315.709
315.726
315.742
315.757
315.772
315.786
315.8
315.813
315.826
315.839
315.851
315.863
315.875
315.887
315.898
315.908
315.917
315.926
315.935
315.943
315.952
315.961
315.969
315.976
315.983
315.989
315.995
316
316.006
316.011
316.016
316.02
316.024
316.028
316.031
316.034
316.036
316.039
316.041
316.043
316.044
316.046
316.047
316.047
316.048
316.048
316.048
316.048
316.047
316.047
316.046
316.045
316.043
316.041
316.04
316.038
316.035
316.033
316.03
316.027
316.024
316.021
316.017
316.014
316.01
316.006
316.002
315.997
315.993
315.987
315.982
315.976
315.97
315.965
315.959
315.954
315.949
315.943
315.938
315.932
315.926
315.919
315.913
315.906
315.899
315.891
315.885
315.878
315.871
315.864
315.856
315.849
315.841
315.833
315.825
315.818
315.81
315.803
315.795
315.788
315.78
315.771
315.762
315.754
315.746
315.738
315.73
315.722
315.713
315.705
315.697
315.688
315.68
315.672
315.663
315.655
315.647
315.638
315.629
315.62
315.61
315.601
315.593
315.583
315.573
315.562
315.552
315.544
315.536
315.528
315.52
315.512
315.504
315.496
315.488
315.48
315.472
315.463
315.455
315.446
315.438
315.43
315.422
315.415
315.407
315.399
315.391
315.383
315.374
315.366
315.357
315.35
315.342
315.335
315.328
315.321
315.314
315.307
315.3
315.293
315.286
315.279
315.272
315.265
315.258
315.252
315.246
315.24
315.234
315.227
315.221
315.215
315.209
315.203
315.197
315.192
315.187
315.181
315.176
315.171
315.166
315.161
315.156
315.151
315.147
315.142
315.138
315.133
315.129
315.125
315.12
315.116
315.112
315.109
315.105
315.102
315.099
315.095
315.092
315.089
315.087
315.084
315.081
315.079
315.077
315.074
315.072
315.07
315.068
315.066
315.065
315.063
315.062
315.06
315.059
315.058
315.057
315.056
315.056
315.055
315.055
315.054
315.054
315.054
300.1
300.291
300.477
300.666
300.855
301.041
301.228
301.413
301.593
301.774
301.957
302.136
302.311
302.489
302.67
302.843
303.007
303.177
303.351
303.522
303.686
303.846
304.007
304.167
304.32
304.472
304.632
304.795
304.951
305.103
305.251
305.397
305.543
305.689
305.829
305.971
306.121
306.26
306.395
306.536
306.675
306.808
306.942
307.074
307.206
307.342
307.474
307.596
307.718
307.844
307.969
308.093
308.215
308.338
308.459
308.575
308.694
308.809
308.92
309.032
309.144
309.256
309.365
309.469
309.572
309.678
309.781
309.885
309.988
310.088
310.19
310.291
310.388
310.484
310.579
310.673
310.766
310.857
310.947
311.038
311.128
311.217
311.304
311.389
311.475
311.562
311.646
311.726
311.805
311.884
311.964
312.042
312.12
312.198
312.272
312.343
312.415
312.485
312.556
312.624
312.692
312.76
312.826
312.894
312.963
313.027
313.09
313.153
313.215
313.277
313.337
313.395
313.452
313.509
313.564
313.62
313.675
313.73
313.785
313.839
313.891
313.942
313.992
314.041
314.09
314.139
314.187
314.233
314.278
314.322
314.365
314.407
314.45
314.495
314.538
314.579
314.619
314.659
314.697
314.733
314.77
314.807
314.843
314.879
314.915
314.949
314.982
315.015
315.047
315.077
315.107
315.138
315.166
315.195
315.224
315.252
315.279
315.306
315.332
315.358
315.383
315.408
315.431
315.454
315.476
315.498
315.52
315.542
315.563
315.584
315.604
315.623
315.641
315.659
315.676
315.693
315.709
315.726
315.742
315.757
315.772
315.786
315.8
315.813
315.826
315.839
315.851
315.864
315.875
315.887
315.899
315.908
315.917
315.926
315.935
315.943
315.952
315.961
315.969
315.976
315.983
315.989
315.995
316
316.006
316.011
316.016
316.02
316.024
316.028
316.031
316.034
316.036
316.039
316.041
316.043
316.044
316.046
316.047
316.047
316.048
316.048
316.048
316.048
316.047
316.047
316.046
316.045
316.043
316.042
316.04
316.038
316.035
316.033
316.03
316.027
316.024
316.021
316.017
316.014
316.01
316.006
316.002
315.997
315.993
315.987
315.982
315.976
315.97
315.965
315.96
315.954
315.949
315.943
315.938
315.932
315.926
315.919
315.913
315.906
315.899
315.892
315.885
315.878
315.871
315.864
315.856
315.849
315.841
315.833
315.825
315.818
315.81
315.803
315.795
315.788
315.78
315.771
315.763
315.754
315.746
315.738
315.73
315.722
315.713
315.705
315.697
315.689
315.68
315.672
315.664
315.655
315.647
315.638
315.629
315.62
315.61
315.601
315.592
315.583
315.572
315.561
315.552
315.544
315.536
315.528
315.52
315.512
315.504
315.496
315.488
315.48
315.471
315.463
315.455
315.446
315.438
315.43
315.423
315.415
315.407
315.399
315.391
315.383
315.374
315.366
315.358
315.35
315.343
315.335
315.328
315.321
315.314
315.307
315.299
315.293
315.286
315.279
315.272
315.265
315.259
315.252
315.246
315.24
315.233
315.227
315.221
315.215
315.209
315.203
315.198
315.192
315.187
315.181
315.176
315.171
315.166
315.161
315.156
315.151
315.147
315.142
315.138
315.133
315.129
315.124
315.12
315.116
315.112
315.109
315.105
315.102
315.099
315.095
315.092
315.089
315.087
315.084
315.081
315.079
315.077
315.074
315.072
315.07
315.068
315.066
315.065
315.063
315.062
315.06
315.059
315.058
315.057
315.056
315.056
315.055
315.055
315.054
315.054
315.054
300.097
300.286
300.477
300.667
300.856
301.044
301.227
301.414
301.595
301.774
301.958
302.137
302.31
302.485
302.666
302.841
303.01
303.183
303.352
303.521
303.687
303.85
304.01
304.166
304.321
304.476
304.633
304.791
304.949
305.102
305.248
305.395
305.542
305.689
305.832
305.974
306.119
306.259
306.395
306.534
306.674
306.81
306.944
307.075
307.209
307.343
307.47
307.593
307.717
307.846
307.973
308.096
308.216
308.336
308.456
308.574
308.692
308.808
308.922
309.034
309.144
309.255
309.365
309.47
309.572
309.678
309.783
309.886
309.988
310.09
310.19
310.289
310.389
310.484
310.578
310.673
310.766
310.857
310.95
311.039
311.128
311.217
311.305
311.389
311.474
311.56
311.644
311.727
311.808
311.886
311.965
312.043
312.12
312.197
312.271
312.342
312.413
312.484
312.554
312.624
312.691
312.76
312.827
312.895
312.963
313.028
313.092
313.153
313.215
313.276
313.336
313.395
313.452
313.508
313.564
313.62
313.675
313.73
313.785
313.839
313.891
313.941
313.992
314.041
314.09
314.139
314.186
314.233
314.278
314.322
314.365
314.408
314.451
314.495
314.537
314.578
314.619
314.659
314.697
314.733
314.77
314.807
314.843
314.879
314.914
314.949
314.982
315.015
315.046
315.077
315.107
315.137
315.166
315.195
315.224
315.252
315.279
315.306
315.332
315.358
315.383
315.407
315.432
315.455
315.477
315.498
315.52
315.541
315.563
315.584
315.604
315.623
315.641
315.659
315.676
315.692
315.709
315.726
315.742
315.757
315.772
315.786
315.799
315.813
315.826
315.839
315.852
315.864
315.876
315.888
315.899
315.908
315.917
315.926
315.935
315.943
315.952
315.961
315.969
315.976
315.983
315.989
315.995
316
316.006
316.011
316.016
316.02
316.024
316.028
316.031
316.034
316.036
316.039
316.041
316.043
316.044
316.046
316.047
316.047
316.048
316.048
316.048
316.048
316.047
316.047
316.046
316.045
316.043
316.042
316.04
316.038
316.035
316.033
316.03
316.027
316.024
316.021
316.017
316.014
316.01
316.006
316.002
315.997
315.992
315.987
315.981
315.975
315.97
315.965
315.96
315.955
315.949
315.943
315.938
315.932
315.925
315.919
315.913
315.906
315.899
315.892
315.885
315.878
315.871
315.864
315.856
315.849
315.841
315.833
315.825
315.818
315.81
315.803
315.795
315.788
315.779
315.771
315.763
315.754
315.746
315.738
315.73
315.722
315.713
315.705
315.697
315.689
315.681
315.672
315.664
315.655
315.647
315.638
315.629
315.619
315.609
315.6
315.592
315.581
315.571
315.562
315.553
315.545
315.537
315.528
315.52
315.512
315.504
315.496
315.488
315.48
315.471
315.463
315.454
315.446
315.438
315.431
315.423
315.415
315.407
315.399
315.39
315.382
315.374
315.366
315.358
315.35
315.343
315.335
315.328
315.321
315.314
315.307
315.299
315.292
315.286
315.279
315.272
315.265
315.259
315.252
315.246
315.24
315.233
315.227
315.221
315.215
315.209
315.203
315.198
315.192
315.187
315.181
315.176
315.171
315.166
315.161
315.156
315.151
315.147
315.142
315.138
315.133
315.129
315.124
315.12
315.116
315.112
315.109
315.105
315.102
315.098
315.095
315.092
315.089
315.087
315.084
315.081
315.079
315.077
315.074
315.072
315.07
315.068
315.066
315.065
315.063
315.062
315.06
315.059
315.058
315.057
315.056
315.056
315.055
315.055
315.054
315.054
315.054
300.097
300.287
300.477
300.668
300.858
301.047
301.23
301.415
301.599
301.78
301.959
302.133
302.308
302.485
302.664
302.839
303.01
303.182
303.352
303.522
303.687
303.851
304.011
304.166
304.325
304.48
304.633
304.792
304.95
305.1
305.246
305.392
305.538
305.686
305.833
305.977
306.119
306.257
306.392
306.534
306.676
306.813
306.946
307.077
307.209
307.34
307.468
307.593
307.719
307.845
307.972
308.099
308.218
308.336
308.457
308.575
308.691
308.806
308.92
309.032
309.144
309.255
309.364
309.468
309.571
309.676
309.781
309.886
309.989
310.093
310.192
310.288
310.386
310.483
310.58
310.676
310.768
310.859
310.951
311.038
311.127
311.216
311.303
311.388
311.473
311.559
311.644
311.727
311.808
311.887
311.966
312.043
312.12
312.196
312.27
312.342
312.414
312.483
312.552
312.622
312.691
312.759
312.828
312.896
312.963
313.029
313.093
313.154
313.215
313.276
313.335
313.394
313.452
313.509
313.564
313.62
313.674
313.73
313.786
313.839
313.89
313.941
313.992
314.041
314.09
314.139
314.187
314.233
314.278
314.322
314.365
314.408
314.452
314.494
314.537
314.578
314.619
314.658
314.697
314.734
314.771
314.807
314.843
314.878
314.914
314.949
314.982
315.015
315.046
315.077
315.108
315.137
315.167
315.195
315.224
315.252
315.279
315.306
315.332
315.358
315.383
315.408
315.432
315.455
315.477
315.498
315.519
315.541
315.563
315.584
315.604
315.623
315.641
315.659
315.676
315.693
315.709
315.725
315.741
315.756
315.771
315.786
315.799
315.813
315.827
315.84
315.853
315.865
315.877
315.888
315.898
315.908
315.917
315.926
315.935
315.943
315.952
315.96
315.968
315.976
315.982
315.989
315.995
316.001
316.006
316.011
316.016
316.02
316.024
316.027
316.031
316.034
316.037
316.039
316.041
316.043
316.044
316.046
316.047
316.047
316.048
316.048
316.048
316.048
316.047
316.047
316.046
316.045
316.043
316.042
316.04
316.038
316.035
316.033
316.03
316.027
316.024
316.021
316.017
316.014
316.01
316.006
316.002
315.997
315.992
315.987
315.981
315.975
315.97
315.965
315.96
315.955
315.949
315.943
315.938
315.932
315.925
315.919
315.912
315.906
315.899
315.892
315.885
315.878
315.871
315.864
315.856
315.849
315.841
315.833
315.825
315.818
315.81
315.803
315.795
315.787
315.779
315.771
315.762
315.754
315.746
315.738
315.73
315.722
315.714
315.705
315.697
315.689
315.681
315.672
315.664
315.655
315.647
315.637
315.627
315.617
315.608
315.599
315.591
315.581
315.572
315.563
315.554
315.545
315.537
315.529
315.52
315.512
315.504
315.496
315.488
315.48
315.471
315.463
315.454
315.446
315.439
315.431
315.423
315.415
315.406
315.398
315.39
315.382
315.374
315.366
315.358
315.351
315.343
315.336
315.328
315.321
315.314
315.307
315.299
315.292
315.285
315.278
315.272
315.265
315.259
315.252
315.246
315.24
315.233
315.227
315.221
315.215
315.209
315.203
315.198
315.192
315.187
315.181
315.176
315.171
315.166
315.161
315.156
315.151
315.147
315.142
315.137
315.133
315.129
315.124
315.12
315.116
315.112
315.109
315.105
315.102
315.098
315.095
315.092
315.089
315.087
315.084
315.081
315.079
315.077
315.074
315.072
315.07
315.068
315.066
315.065
315.063
315.062
315.06
315.059
315.058
315.057
315.056
315.056
315.055
315.055
315.054
315.054
315.054
300.095
300.285
300.478
300.671
300.86
301.049
301.233
301.416
301.601
301.781
301.959
302.13
302.303
302.489
302.668
302.838
303.008
303.179
303.349
303.522
303.691
303.853
304.011
304.167
304.325
304.479
304.632
304.791
304.947
305.099
305.249
305.394
305.537
305.684
305.833
305.976
306.115
306.255
306.397
306.539
306.676
306.813
306.947
307.077
307.207
307.338
307.465
307.591
307.72
307.848
307.973
308.098
308.219
308.337
308.456
308.575
308.691
308.806
308.92
309.032
309.143
309.254
309.363
309.467
309.57
309.675
309.78
309.885
309.99
310.093
310.193
310.29
310.388
310.485
310.581
310.677
310.77
310.86
310.95
311.04
311.128
311.215
311.302
311.387
311.473
311.559
311.643
311.726
311.808
311.887
311.965
312.042
312.12
312.196
312.269
312.342
312.414
312.484
312.552
312.621
312.69
312.759
312.827
312.895
312.963
313.029
313.093
313.154
313.215
313.276
313.335
313.393
313.451
313.509
313.566
313.62
313.674
313.729
313.785
313.838
313.89
313.941
313.991
314.041
314.091
314.14
314.187
314.233
314.278
314.323
314.366
314.409
314.452
314.494
314.536
314.578
314.619
314.658
314.697
314.735
314.771
314.807
314.843
314.878
314.913
314.948
314.982
315.014
315.046
315.077
315.107
315.137
315.167
315.196
315.224
315.252
315.28
315.306
315.332
315.357
315.383
315.408
315.433
315.455
315.477
315.498
315.519
315.541
315.563
315.584
315.604
315.622
315.641
315.658
315.676
315.693
315.709
315.725
315.74
315.756
315.771
315.785
315.8
315.814
315.828
315.841
315.854
315.866
315.877
315.888
315.898
315.908
315.917
315.926
315.935
315.944
315.952
315.96
315.968
315.975
315.982
315.989
315.995
316
316.006
316.011
316.016
316.02
316.024
316.027
316.031
316.034
316.037
316.039
316.041
316.043
316.044
316.046
316.047
316.047
316.048
316.048
316.048
316.048
316.047
316.047
316.046
316.045
316.043
316.042
316.04
316.038
316.035
316.033
316.03
316.027
316.024
316.021
316.017
316.014
316.01
316.006
316.002
315.997
315.992
315.986
315.981
315.976
315.971
315.966
315.96
315.955
315.949
315.943
315.938
315.932
315.925
315.919
315.912
315.906
315.899
315.892
315.885
315.878
315.871
315.864
315.857
315.849
315.841
315.833
315.825
315.818
315.81
315.803
315.795
315.787
315.779
315.771
315.763
315.754
315.746
315.738
315.73
315.722
315.714
315.705
315.697
315.689
315.681
315.672
315.664
315.655
315.646
315.636
315.626
315.616
315.608
315.599
315.591
315.582
315.573
315.563
315.554
315.545
315.537
315.529
315.521
315.513
315.505
315.496
315.488
315.48
315.471
315.463
315.454
315.447
315.439
315.431
315.423
315.414
315.406
315.398
315.39
315.382
315.374
315.366
315.359
315.351
315.343
315.336
315.328
315.321
315.314
315.307
315.299
315.292
315.285
315.278
315.272
315.265
315.259
315.252
315.246
315.24
315.233
315.227
315.221
315.215
315.209
315.204
315.198
315.192
315.187
315.181
315.176
315.171
315.166
315.161
315.156
315.151
315.146
315.142
315.137
315.133
315.129
315.124
315.12
315.116
315.112
315.109
315.105
315.102
315.098
315.095
315.092
315.089
315.087
315.084
315.081
315.079
315.077
315.074
315.072
315.07
315.068
315.066
315.065
315.063
315.062
315.06
315.059
315.058
315.057
315.056
315.056
315.055
315.055
315.054
315.054
315.054
300.095
300.281
300.473
300.669
300.859
301.049
301.237
301.42
301.6
301.777
301.956
302.131
302.307
302.489
302.667
302.842
303.012
303.178
303.346
303.517
303.687
303.854
304.014
304.168
304.324
304.482
304.635
304.79
304.943
305.098
305.25
305.395
305.539
305.683
305.83
305.975
306.115
306.256
306.399
306.54
306.678
306.813
306.946
307.076
307.207
307.338
307.465
307.591
307.718
307.847
307.975
308.097
308.217
308.338
308.457
308.574
308.691
308.806
308.919
309.032
309.143
309.252
309.361
309.467
309.57
309.675
309.781
309.885
309.989
310.093
310.194
310.292
310.391
310.487
310.581
310.677
310.771
310.861
310.95
311.039
311.127
311.216
311.302
311.387
311.473
311.558
311.643
311.726
311.808
311.888
311.964
312.041
312.12
312.196
312.27
312.342
312.413
312.484
312.553
312.622
312.689
312.758
312.828
312.898
312.965
313.029
313.091
313.153
313.215
313.277
313.336
313.393
313.45
313.508
313.566
313.62
313.674
313.728
313.783
313.837
313.89
313.941
313.991
314.041
314.091
314.14
314.187
314.234
314.279
314.323
314.366
314.409
314.452
314.493
314.535
314.578
314.62
314.659
314.698
314.735
314.771
314.807
314.843
314.879
314.914
314.947
314.981
315.014
315.046
315.077
315.107
315.137
315.167
315.197
315.225
315.252
315.279
315.305
315.332
315.358
315.384
315.409
315.433
315.455
315.477
315.498
315.52
315.541
315.563
315.584
315.603
315.622
315.64
315.658
315.676
315.692
315.709
315.724
315.74
315.755
315.77
315.785
315.799
315.814
315.829
315.843
315.855
315.866
315.877
315.887
315.898
315.908
315.917
315.927
315.935
315.944
315.952
315.96
315.968
315.975
315.982
315.988
315.995
316
316.006
316.011
316.016
316.02
316.024
316.027
316.031
316.034
316.037
316.039
316.041
316.043
316.044
316.046
316.047
316.047
316.048
316.048
316.048
316.048
316.047
316.047
316.046
316.045
316.043
316.042
316.04
316.038
316.035
316.033
316.03
316.027
316.024
316.021
316.017
316.014
316.01
316.006
316.001
315.997
315.991
315.986
315.981
315.976
315.971
315.966
315.96
315.955
315.949
315.944
315.938
315.931
315.925
315.919
315.912
315.906
315.899
315.892
315.885
315.878
315.871
315.864
315.856
315.848
315.84
315.833
315.825
315.818
315.811
315.803
315.795
315.787
315.779
315.771
315.763
315.755
315.747
315.738
315.73
315.722
315.714
315.705
315.697
315.689
315.681
315.672
315.664
315.655
315.645
315.634
315.625
315.616
315.608
315.599
315.591
315.582
315.573
315.564
315.555
315.546
315.537
315.529
315.521
315.513
315.505
315.496
315.488
315.479
315.471
315.463
315.454
315.447
315.439
315.431
315.422
315.414
315.406
315.398
315.39
315.382
315.374
315.367
315.359
315.351
315.343
315.336
315.328
315.321
315.314
315.307
315.3
315.292
315.285
315.278
315.272
315.265
315.259
315.252
315.246
315.24
315.233
315.227
315.221
315.215
315.209
315.204
315.198
315.192
315.187
315.181
315.176
315.171
315.166
315.161
315.156
315.151
315.146
315.142
315.137
315.133
315.129
315.124
315.12
315.116
315.112
315.109
315.105
315.102
315.098
315.095
315.092
315.089
315.087
315.084
315.081
315.079
315.077
315.074
315.072
315.07
315.068
315.066
315.065
315.063
315.062
315.06
315.059
315.058
315.057
315.056
315.056
315.055
315.055
315.054
315.054
315.054
300.094
300.282
300.472
300.664
300.855
301.048
301.238
301.422
301.603
301.781
301.957
302.132
302.312
302.493
302.668
302.84
303.01
303.179
303.346
303.513
303.686
303.852
304.01
304.166
304.323
304.482
304.638
304.792
304.945
305.098
305.25
305.396
305.539
305.682
305.827
305.972
306.117
306.26
306.4
306.538
306.676
306.813
306.946
307.077
307.208
307.339
307.465
307.592
307.719
307.846
307.974
308.097
308.217
308.339
308.457
308.573
308.69
308.805
308.918
309.031
309.141
309.25
309.36
309.468
309.572
309.675
309.78
309.887
309.992
310.093
310.193
310.293
310.394
310.489
310.583
310.677
310.77
310.861
310.951
311.039
311.128
311.215
311.301
311.387
311.474
311.559
311.642
311.726
311.807
311.887
311.964
312.041
312.119
312.196
312.269
312.34
312.412
312.484
312.555
312.622
312.689
312.759
312.829
312.898
312.965
313.029
313.091
313.152
313.215
313.276
313.335
313.392
313.45
313.508
313.565
313.62
313.674
313.729
313.784
313.838
313.89
313.941
313.991
314.041
314.091
314.14
314.187
314.233
314.279
314.324
314.366
314.409
314.451
314.493
314.535
314.578
314.62
314.661
314.698
314.735
314.771
314.807
314.843
314.879
314.914
314.948
314.981
315.013
315.045
315.076
315.107
315.138
315.167
315.197
315.226
315.253
315.279
315.305
315.332
315.358
315.384
315.409
315.432
315.455
315.477
315.499
315.52
315.541
315.563
315.583
315.603
315.622
315.64
315.658
315.676
315.692
315.708
315.724
315.74
315.755
315.77
315.785
315.799
315.815
315.831
315.845
315.856
315.867
315.877
315.887
315.898
315.908
315.917
315.927
315.936
315.944
315.952
315.96
315.968
315.975
315.982
315.988
315.994
316
316.006
316.011
316.016
316.02
316.024
316.027
316.031
316.034
316.036
316.039
316.041
316.043
316.044
316.046
316.047
316.048
316.048
316.048
316.048
316.048
316.048
316.047
316.046
316.045
316.043
316.042
316.04
316.038
316.035
316.033
316.03
316.027
316.024
316.021
316.017
316.013
316.01
316.006
316.001
315.996
315.992
315.986
315.981
315.976
315.971
315.966
315.961
315.955
315.949
315.944
315.938
315.932
315.925
315.919
315.912
315.906
315.899
315.892
315.885
315.878
315.871
315.864
315.856
315.848
315.84
315.833
315.825
315.818
315.811
315.803
315.795
315.787
315.779
315.771
315.763
315.755
315.747
315.738
315.73
315.722
315.714
315.705
315.697
315.689
315.681
315.672
315.663
315.654
315.644
315.634
315.625
315.616
315.608
315.599
315.591
315.582
315.573
315.564
315.555
315.546
315.538
315.529
315.521
315.513
315.504
315.496
315.488
315.479
315.471
315.463
315.455
315.447
315.439
315.43
315.422
315.414
315.406
315.398
315.39
315.382
315.374
315.367
315.359
315.351
315.343
315.336
315.328
315.321
315.314
315.307
315.299
315.292
315.285
315.278
315.272
315.265
315.259
315.252
315.246
315.239
315.233
315.227
315.221
315.215
315.21
315.204
315.198
315.192
315.187
315.181
315.176
315.171
315.166
315.161
315.156
315.151
315.146
315.142
315.137
315.133
315.129
315.124
315.12
315.116
315.112
315.109
315.105
315.102
315.098
315.095
315.092
315.089
315.087
315.084
315.081
315.079
315.077
315.074
315.072
315.07
315.068
315.066
315.065
315.063
315.062
315.06
315.059
315.058
315.057
315.056
315.056
315.055
315.055
315.054
315.054
315.054
300.094
300.285
300.473
300.662
300.856
301.047
301.234
301.42
301.605
301.784
301.961
302.135
302.312
302.493
302.668
302.838
303.009
303.183
303.35
303.514
303.681
303.847
304.008
304.167
304.323
304.479
304.639
304.796
304.947
305.099
305.249
305.394
305.538
305.684
305.831
305.975
306.117
306.257
306.398
306.538
306.675
306.811
306.945
307.077
307.209
307.339
307.466
307.594
307.722
307.849
307.973
308.096
308.218
308.338
308.456
308.572
308.688
308.803
308.916
309.03
309.142
309.251
309.36
309.468
309.572
309.676
309.782
309.889
309.994
310.095
310.195
310.296
310.395
310.489
310.582
310.676
310.77
310.86
310.949
311.039
311.128
311.215
311.302
311.389
311.474
311.558
311.642
311.726
311.808
311.887
311.964
312.04
312.117
312.194
312.268
312.341
312.412
312.483
312.554
312.624
312.692
312.761
312.83
312.898
312.964
313.028
313.091
313.152
313.214
313.275
313.335
313.393
313.45
313.508
313.564
313.619
313.675
313.73
313.784
313.837
313.89
313.941
313.991
314.042
314.092
314.14
314.186
314.232
314.279
314.324
314.366
314.408
314.45
314.494
314.537
314.58
314.621
314.66
314.698
314.734
314.771
314.808
314.843
314.878
314.913
314.947
314.98
315.012
315.045
315.076
315.107
315.137
315.167
315.197
315.226
315.253
315.28
315.306
315.332
315.358
315.384
315.409
315.432
315.455
315.477
315.499
315.52
315.541
315.563
315.584
315.603
315.622
315.64
315.659
315.676
315.692
315.708
315.724
315.739
315.754
315.769
315.784
315.8
315.817
315.832
315.845
315.856
315.866
315.877
315.888
315.898
315.908
315.917
315.927
315.936
315.944
315.952
315.96
315.968
315.975
315.982
315.988
315.994
316
316.006
316.011
316.016
316.02
316.024
316.028
316.031
316.034
316.036
316.039
316.041
316.043
316.044
316.046
316.047
316.048
316.048
316.048
316.048
316.048
316.048
316.047
316.046
316.045
316.043
316.042
316.04
316.038
316.035
316.033
316.03
316.027
316.024
316.02
316.017
316.013
316.009
316.005
316.001
315.996
315.992
315.987
315.982
315.976
315.971
315.966
315.961
315.955
315.95
315.944
315.938
315.932
315.925
315.919
315.912
315.906
315.899
315.892
315.885
315.878
315.871
315.864
315.856
315.848
315.841
315.833
315.825
315.818
315.81
315.803
315.795
315.787
315.779
315.771
315.763
315.755
315.747
315.739
315.73
315.722
315.714
315.706
315.697
315.689
315.68
315.672
315.663
315.653
315.643
315.633
315.625
315.617
315.608
315.599
315.591
315.582
315.573
315.564
315.555
315.546
315.538
315.53
315.521
315.513
315.504
315.496
315.488
315.479
315.471
315.463
315.455
315.446
315.438
315.43
315.422
315.414
315.406
315.398
315.39
315.382
315.374
315.367
315.359
315.351
315.343
315.336
315.328
315.321
315.314
315.307
315.299
315.292
315.285
315.278
315.272
315.265
315.259
315.252
315.246
315.24
315.233
315.227
315.221
315.215
315.21
315.204
315.198
315.192
315.187
315.181
315.176
315.171
315.166
315.161
315.156
315.151
315.146
315.142
315.137
315.133
315.128
315.124
315.12
315.116
315.112
315.109
315.105
315.102
315.098
315.095
315.092
315.089
315.087
315.084
315.081
315.079
315.077
315.074
315.072
315.07
315.068
315.066
315.065
315.063
315.062
315.06
315.059
315.058
315.057
315.056
315.056
315.055
315.054
315.054
315.054
315.054
300.096
300.285
300.473
300.665
300.854
301.046
301.236
301.42
301.602
301.781
301.961
302.139
302.317
302.496
302.668
302.837
303.011
303.183
303.348
303.513
303.68
303.845
304.008
304.168
304.325
304.482
304.64
304.795
304.947
305.099
305.247
305.393
305.538
305.684
305.831
305.975
306.116
306.255
306.397
306.54
306.678
306.811
306.944
307.076
307.209
307.339
307.467
307.594
307.722
307.85
307.973
308.094
308.216
308.338
308.455
308.571
308.687
308.801
308.915
309.03
309.142
309.251
309.36
309.467
309.574
309.679
309.783
309.888
309.994
310.096
310.196
310.297
310.394
310.489
310.583
310.678
310.77
310.859
310.948
311.038
311.128
311.216
311.303
311.389
311.474
311.558
311.641
311.726
311.808
311.887
311.964
312.041
312.117
312.192
312.266
312.34
312.411
312.483
312.554
312.624
312.692
312.761
312.831
312.898
312.965
313.029
313.091
313.153
313.213
313.273
313.332
313.392
313.451
313.508
313.565
313.62
313.675
313.73
313.784
313.837
313.89
313.941
313.991
314.042
314.092
314.14
314.187
314.233
314.278
314.322
314.366
314.409
314.451
314.494
314.537
314.58
314.621
314.66
314.698
314.735
314.772
314.808
314.844
314.878
314.913
314.947
314.98
315.013
315.045
315.076
315.107
315.137
315.167
315.197
315.226
315.254
315.28
315.307
315.333
315.359
315.384
315.409
315.432
315.455
315.477
315.499
315.519
315.541
315.562
315.583
315.603
315.622
315.641
315.658
315.675
315.692
315.708
315.724
315.739
315.754
315.77
315.786
315.802
315.818
315.832
315.844
315.855
315.866
315.877
315.888
315.898
315.908
315.917
315.927
315.936
315.944
315.953
315.96
315.968
315.975
315.982
315.988
315.994
316
316.005
316.011
316.015
316.02
316.024
316.028
316.031
316.034
316.036
316.039
316.041
316.043
316.044
316.046
316.047
316.048
316.048
316.048
316.048
316.048
316.048
316.047
316.046
316.045
316.043
316.042
316.04
316.038
316.035
316.033
316.03
316.027
316.024
316.02
316.017
316.013
316.009
316.005
316.001
315.997
315.992
315.987
315.982
315.977
315.971
315.966
315.961
315.955
315.95
315.944
315.938
315.932
315.925
315.919
315.912
315.906
315.899
315.892
315.885
315.878
315.871
315.864
315.856
315.849
315.841
315.833
315.826
315.818
315.81
315.803
315.795
315.787
315.779
315.771
315.763
315.755
315.747
315.739
315.73
315.722
315.714
315.705
315.697
315.688
315.68
315.671
315.662
315.652
315.643
315.634
315.625
315.617
315.608
315.599
315.591
315.582
315.573
315.564
315.555
315.547
315.538
315.53
315.521
315.513
315.504
315.496
315.488
315.479
315.471
315.463
315.455
315.446
315.438
315.43
315.422
315.414
315.406
315.398
315.39
315.382
315.374
315.367
315.359
315.351
315.343
315.336
315.329
315.321
315.314
315.307
315.299
315.292
315.285
315.278
315.272
315.265
315.259
315.252
315.246
315.24
315.233
315.227
315.221
315.215
315.21
315.204
315.198
315.192
315.187
315.181
315.176
315.171
315.166
315.161
315.156
315.151
315.146
315.142
315.137
315.133
315.128
315.124
315.12
315.116
315.112
315.109
315.105
315.102
315.098
315.095
315.092
315.089
315.087
315.084
315.081
315.079
315.077
315.074
315.072
315.07
315.068
315.066
315.065
315.063
315.062
315.06
315.059
315.058
315.057
315.056
315.056
315.055
315.054
315.054
315.054
315.054
300.098
300.29
300.476
300.662
300.855
301.047
301.233
301.418
301.6
301.78
301.959
302.139
302.318
302.494
302.669
302.84
303.01
303.182
303.347
303.51
303.677
303.847
304.012
304.169
304.327
304.485
304.64
304.794
304.948
305.098
305.245
305.393
305.54
305.684
305.828
305.973
306.118
306.258
306.396
306.538
306.676
306.81
306.943
307.077
307.208
307.338
307.467
307.596
307.724
307.851
307.974
308.093
308.216
308.337
308.455
308.571
308.687
308.8
308.914
309.029
309.141
309.251
309.36
309.468
309.575
309.682
309.785
309.89
309.994
310.095
310.196
310.295
310.393
310.489
310.584
310.678
310.77
310.859
310.949
311.039
311.128
311.215
311.302
311.389
311.474
311.558
311.641
311.725
311.808
311.887
311.964
312.041
312.118
312.192
312.265
312.338
312.41
312.482
312.554
312.624
312.693
312.763
312.832
312.898
312.964
313.029
313.092
313.153
313.213
313.272