/*--------------------------------*- C++ -*----------------------------------*\
  =========                 |
  \\      /  F ield         | OpenFOAM: The Open Source CFD Toolbox
   \\    /   O peration     | Website:  https://openfoam.org
    \\  /    A nd           | Version:  7
     \\/     M anipulation  |
\*---------------------------------------------------------------------------*/
FoamFile
{
    version     2.0;
    format      ascii;
    class       volScalarField;
    location    "15";
    object      alpha.wetting;
}
// * * * * * * * * * * * * * * * * * * * * * * * * * * * * * * * * * * * * * //

dimensions      [0 0 0 0 0 0 0];

internalField   nonuniform List<scalar> 
49920
(
-6.60469e-317
9.34162e-317
1.74214e-316
1.52533e-316
1.56771e-316
1.31354e-316
1.47509e-316
2.00721e-316
1.77156e-316
1.45896e-316
1.54138e-316
1.76552e-316
1.55581e-316
9.26078e-317
1.28692e-316
-7.10351e-317
-6.22488e-317
-6.36047e-317
-6.52108e-317
-9.98381e-317
-1.01066e-316
-1.01634e-316
1.01881e-316
-1.02004e-316
3.06223e-316
3.06353e-316
3.06439e-316
3.06499e-316
3.06543e-316
3.06562e-316
3.06554e-316
3.06537e-316
3.06523e-316
3.06511e-316
3.06501e-316
3.06493e-316
3.06485e-316
3.06479e-316
3.06474e-316
3.06469e-316
3.06465e-316
3.06462e-316
3.06459e-316
-3.06457e-316
-3.06456e-316
-3.06455e-316
-3.06454e-316
-3.06454e-316
-3.06455e-316
-3.06455e-316
-3.06457e-316
-3.06458e-316
-3.74562e-316
-2.48575e-314
-1.45874e-312
-9.01786e-311
-5.82973e-309
-4.20187e-307
-3.30219e-305
-2.81372e-303
-2.57938e-301
-2.52131e-299
-2.62011e-297
-2.89179e-295
-3.40525e-293
-4.29614e-291
-5.83943e-289
-8.57163e-287
-1.35905e-284
-2.32438e-282
-4.26966e-280
-8.41874e-278
-1.7709e-275
-3.98855e-273
-9.5504e-271
-2.45526e-268
-6.70156e-266
-1.97429e-263
-6.17867e-261
-2.11958e-258
-9.46245e-309
1.03314e-316
1.20036e-316
1.33402e-316
1.35347e-316
1.02632e-316
1.55258e-316
1.12212e-316
1.45625e-316
1.34868e-316
1.27199e-316
1.40752e-316
1.59549e-316
1.10536e-316
1.11152e-316
1.02158e-316
6.14723e-317
5.91628e-317
5.98106e-317
6.1482e-317
6.30087e-317
9.59554e-317
9.67263e-317
9.71348e-317
-2.92096e-316
-2.92516e-316
-2.92789e-316
-2.92976e-316
3.25679e-316
4.41661e-299
1.47506e-296
1.69649e-294
1.25889e-292
7.16247e-291
3.38519e-289
1.39119e-287
5.11897e-286
1.72132e-284
5.37164e-283
1.57521e-281
4.38863e-280
1.17422e-278
3.05254e-277
7.81777e-276
2.0065e-274
5.26693e-273
1.44405e-271
4.20418e-270
1.30817e-268
4.33119e-267
1.50816e-265
5.45917e-264
2.03508e-262
7.78259e-261
3.03395e-259
1.21773e-257
5.02408e-256
2.14121e-254
9.46324e-253
4.36085e-251
2.10239e-249
1.06502e-247
5.67794e-246
3.19369e-244
1.89539e-242
1.18862e-240
7.877e-239
5.52547e-237
4.10901e-235
3.24744e-233
2.73797e-231
2.46983e-229
2.39775e-227
2.51085e-225
2.85983e-223
3.548e-221
4.85589e-219
7.3457e-217
1.25385e-214
2.42936e-212
-3.14981e-308
9.63795e-317
9.67831e-317
1.0631e-316
1.06724e-316
1.01851e-316
1.46879e-316
1.04103e-316
1.06569e-316
1.53942e-316
1.55914e-316
1.52474e-316
1.2515e-316
1.04658e-316
9.59771e-317
1.27402e-316
9.20084e-317
5.80279e-317
5.69734e-317
5.77428e-317
5.91527e-317
9.05476e-317
9.17264e-317
-9.24114e-317
-2.78425e-316
-2.79149e-316
-3.10685e-316
-3.11038e-316
8.33786e-309
1.74691e-280
3.13026e-278
2.14641e-276
9.70865e-275
3.39998e-273
9.94627e-272
2.53894e-270
5.81614e-269
1.21922e-267
2.37286e-266
4.3363e-265
7.5107e-264
1.24315e-262
1.98145e-261
3.0652e-260
4.64174e-259
6.95128e-258
1.04238e-256
1.58952e-255
2.50885e-254
4.17134e-253
7.40357e-252
1.4096e-250
2.85295e-249
6.16821e-248
1.40096e-246
3.31998e-245
8.18144e-244
2.09412e-242
5.57353e-241
1.54511e-239
4.47384e-238
1.35609e-236
4.31471e-235
1.44371e-233
5.0913e-232
1.89521e-230
7.46224e-229
3.11369e-227
1.38045e-225
6.52274e-224
3.29729e-222
1.79179e-220
1.05199e-218
6.71701e-217
4.69101e-215
3.61093e-213
3.07971e-211
2.93411e-209
3.14525e-207
3.82746e-205
-3.96635e-308
1.21997e-316
8.8994e-317
1.24628e-316
9.29985e-317
9.18098e-317
1.25455e-316
9.21355e-317
9.01159e-317
1.3016e-316
1.33204e-316
1.33689e-316
1.2933e-316
1.2555e-316
9.06036e-317
1.52723e-316
9.00463e-317
5.71696e-317
5.52549e-317
5.50623e-317
5.59591e-317
5.71003e-317
8.70137e-317
1.75802e-316
-2.65321e-316
-2.66318e-316
-2.96623e-316
-2.97107e-316
5.31054e-295
1.55114e-268
1.61879e-266
7.60862e-265
2.44931e-263
6.20553e-262
1.32534e-260
2.48415e-259
4.19497e-258
6.50085e-257
9.37229e-256
1.27054e-254
1.63376e-253
2.00763e-252
2.37345e-251
2.71654e-250
3.0293e-249
3.31346e-248
3.58262e-247
3.86429e-246
4.20596e-245
4.68271e-244
5.41717e-243
6.53586e-242
8.53505e-241
1.19583e-239
1.79462e-238
2.86668e-237
4.84093e-236
8.59219e-235
1.59792e-233
3.10931e-232
6.33416e-231
1.35238e-229
3.03246e-228
7.15379e-227
1.77952e-225
4.67596e-224
1.30077e-222
3.83879e-221
1.20491e-219
4.03445e-218
1.44599e-216
5.57323e-215
2.32058e-213
1.05081e-211
5.20379e-210
2.84214e-208
1.72139e-206
1.16733e-204
8.91013e-203
7.7225e-201
-2.47491e-308
2.91321e-316
8.52013e-317
1.16479e-316
8.62919e-317
8.57979e-317
1.16163e-316
-3.14797e-316
-1.95514e-316
-8.28292e-316
-1.18754e-316
-1.48406e-316
-9.50588e-316
-7.34292e-316
-5.52315e-316
-8.19452e-316
-4.91966e-316
-1.95399e-316
-1.34514e-316
-1.05964e-316
-1.06632e-316
-1.35502e-316
-1.65277e-316
-1.95139e-316
-2.24735e-316
-2.54047e-316
-2.83152e-316
2.83746e-316
3.22617e-265
1.30921e-259
8.45272e-258
2.89904e-256
7.12366e-255
1.40625e-253
2.3669e-252
3.52133e-251
4.74269e-250
5.88203e-249
6.80381e-248
7.41394e-247
7.67314e-246
7.59514e-245
7.23425e-244
6.66749e-243
5.97801e-242
5.24177e-241
4.51996e-240
3.85702e-239
3.28061e-238
2.76377e-237
2.40577e-236
2.15782e-235
2.02248e-234
2.00765e-233
2.13144e-232
2.43086e-231
2.97419e-230
3.88598e-229
5.39095e-228
7.90601e-227
1.22209e-225
1.98941e-224
3.41065e-223
6.16571e-222
1.17692e-220
2.37672e-219
5.08695e-218
1.15656e-216
2.79984e-215
7.23732e-214
2.00438e-212
5.97056e-211
1.92245e-209
6.7259e-208
2.57449e-206
1.08499e-204
5.0765e-203
2.6555e-201
1.56667e-199
1.04934e-197
-1.3319e-308
6.12327e-316
1.09581e-316
1.10736e-316
8.20187e-317
8.15545e-317
1.09717e-316
-2.71094e-316
-1.86065e-316
6.68062e-316
4.42407e-316
4.7044e-316
1.00935e-315
1.26408e-315
1.20709e-315
1.20676e-315
6.3902e-316
2.70408e-316
1.56856e-316
1.27935e-316
1.02125e-316
1.29085e-316
1.57227e-316
1.85763e-316
2.14181e-316
2.42338e-316
2.7027e-316
2.98046e-316
1.95957e-249
3.87187e-247
1.70354e-245
4.55069e-244
9.09575e-243
1.49013e-241
2.10412e-240
2.64269e-239
3.01607e-238
3.17666e-237
3.12403e-236
2.89523e-235
2.54759e-234
2.14183e-233
1.72976e-232
1.34832e-231
1.01861e-230
7.48697e-230
5.3724e-229
3.77593e-228
2.56648e-227
1.74567e-226
1.1734e-225
7.81633e-225
5.17333e-224
3.41129e-223
2.2468e-222
1.48215e-221
9.81846e-221
6.55037e-220
4.41353e-219
3.01282e-218
2.09033e-217
1.47941e-216
1.07217e-215
7.99336e-215
6.16393e-214
4.9551e-213
4.20614e-212
3.86376e-211
4.02598e-210
5.12504e-209
8.52912e-208
1.85301e-206
4.932e-205
1.50911e-203
5.13354e-202
1.91599e-200
7.84738e-199
3.53662e-197
1.7685e-195
9.86812e-194
2.17756e-305
7.18185e-316
5.01843e-316
6.0998e-316
3.93485e-316
3.12582e-316
3.39651e-316
-2.8471e-316
-2.03587e-316
3.93322e-316
3.93359e-316
5.01279e-316
-1.15093e-315
-1.00303e-249
-1.04935e-248
-2.78704e-248
-1.46559e-248
-2.88112e-249
-4.55299e-250
-8.23967e-251
-1.72291e-251
-3.8712e-252
-8.51877e-253
-1.65588e-253
-2.56559e-254
-2.87476e-255
-2.08313e-256
-7.44932e-258
5.41544e-236
2.62125e-234
5.39518e-233
7.51846e-232
8.20356e-231
7.52346e-230
6.04428e-229
4.3696e-228
2.89622e-227
1.78439e-226
1.03277e-225
5.66263e-225
2.96156e-224
1.48602e-223
7.18938e-223
3.36813e-222
1.53388e-221
6.81299e-221
2.89394e-220
1.23327e-219
5.1688e-219
2.13466e-218
8.70066e-218
3.5024e-217
1.39198e-216
5.44879e-216
2.08801e-215
7.72185e-215
2.66183e-214
7.69236e-214
9.5507e-214
-1.21173e-212
-1.74363e-211
-1.74745e-210
-1.62771e-209
-1.52473e-208
-1.48669e-207
-1.53501e-206
-1.6939e-205
-2.00734e-204
-2.56201e-203
-3.52972e-202
-5.2596e-201
-8.49949e-200
-1.49303e-198
-2.86233e-197
-6.00668e-196
-1.38793e-194
-3.54504e-193
-1.00915e-191
-3.22284e-190
-1.16465e-188
6.26948e-268
6.50187e-299
6.32601e-316
5.81371e-316
4.52013e-316
3.74889e-316
3.49331e-316
-2.9721e-316
-2.20552e-316
3.23279e-316
3.49059e-316
4.2629e-316
-7.35802e-316
-8.93255e-250
-7.64043e-248
-3.61619e-247
-1.97894e-247
-3.73188e-248
-5.22473e-249
-8.26806e-250
-1.55441e-250
-3.25711e-251
-6.94734e-252
-1.35792e-252
-2.17065e-253
-2.51726e-254
-1.82253e-255
6.34187e-230
2.33561e-227
7.37546e-226
1.52086e-224
2.6701e-223
4.29709e-222
6.39507e-221
8.77144e-220
1.10954e-218
1.30104e-217
1.42419e-216
1.46605e-215
1.42884e-214
1.32658e-213
1.17966e-212
1.0096e-211
8.35264e-211
6.70567e-210
5.25229e-209
4.01059e-208
3.00248e-207
2.21e-206
1.604e-205
1.15083e-204
8.18404e-204
5.78197e-203
4.06839e-202
2.85718e-201
2.00755e-200
1.41414e-199
1.001e-198
7.13442e-198
5.13195e-197
3.73309e-196
2.7527e-195
2.0618e-194
1.5726e-193
1.22414e-192
9.7508e-192
7.96746e-191
6.69748e-190
5.80845e-189
5.21314e-188
4.85827e-187
4.7157e-186
4.78431e-185
5.08392e-184
5.6674e-183
6.605e-182
7.97847e-181
9.85227e-180
1.34731e-178
4.12521e-177
6.30267e-207
2.18041e-213
3.3137e-239
2.02973e-278
5.04561e-316
4.30735e-316
3.57615e-316
3.08017e-316
2.58967e-316
3.08006e-316
3.33036e-316
4.06816e-316
-6.27855e-316
-6.2226e-250
-5.5088e-248
-7.4355e-247
-6.05169e-247
-1.3424e-247
-1.90953e-248
-2.9314e-249
-5.37783e-250
-1.11841e-250
-2.41411e-251
-4.86877e-252
-8.1269e-253
-9.74618e-254
2.12992e-253
1.03402e-215
7.24913e-214
1.97078e-212
3.53938e-211
4.91035e-210
5.66898e-209
5.68484e-208
5.09023e-207
4.14858e-206
3.12123e-205
2.19137e-204
1.44811e-203
9.07042e-203
5.41698e-202
3.10004e-201
1.70763e-200
9.08872e-200
4.64668e-199
2.33364e-198
1.14692e-197
5.57577e-197
2.76656e-196
1.53389e-195
1.13759e-194
1.25778e-193
1.81944e-192
2.92112e-191
4.84007e-190
8.10291e-189
1.3656e-187
2.31827e-186
3.97352e-185
6.89082e-184
1.21219e-182
2.16736e-181
3.94771e-180
7.33713e-179
1.39404e-177
2.71101e-176
5.40363e-175
1.10497e-173
2.32018e-172
5.00666e-171
1.11085e-169
2.53629e-168
5.95963e-167
1.44224e-165
3.59278e-164
9.21396e-163
2.42961e-161
6.57501e-160
1.8191e-158
5.09976e-157
2.10295e-179
2.60991e-181
9.07995e-193
5.81881e-222
1.76591e-253
3.14765e-307
5.2978e-308
9.98327e-309
2.57705e-309
1.43864e-309
1.38823e-309
7.8562e-309
1.63261e-295
-4.62167e-250
1.01058e-242
8.1573e-241
5.30097e-241
8.16478e-242
6.84323e-243
5.8611e-244
6.11792e-245
7.48733e-246
9.81629e-247
1.23259e-247
1.29062e-248
9.32732e-250
2.9297e-207
1.21507e-204
4.17752e-203
8.09921e-202
1.14184e-200
1.29833e-199
1.258e-198
1.07423e-197
8.26857e-197
5.8303e-196
3.8119e-195
2.3329e-194
1.34666e-193
7.37828e-193
3.85729e-192
1.93297e-191
9.32126e-191
4.30127e-190
1.93904e-189
8.49179e-189
3.62171e-188
1.50772e-187
6.13878e-187
2.44897e-186
9.58699e-186
3.68747e-185
1.39461e-184
5.18513e-184
1.88837e-183
6.62638e-183
2.07419e-182
3.15908e-182
-4.87839e-181
-1.03551e-179
-1.61812e-178
-2.39923e-177
-3.52737e-176
-5.19458e-175
-7.68175e-174
-1.14181e-172
-1.70635e-171
-2.56418e-170
-3.87409e-169
-5.88347e-168
-8.97952e-167
-1.37768e-165
-2.12938e-164
-3.33801e-163
-5.40433e-162
-9.40983e-161
-1.88793e-159
-4.67668e-158
-1.43888e-156
-5.1846e-155
3.69887e-166
-4.28941e-169
-1.89181e-176
9.63829e-194
1.16579e-204
8.98093e-224
2.39707e-225
3.77157e-226
9.79808e-227
4.77996e-227
4.32839e-227
1.92016e-226
2.54276e-223
2.23046e-217
5.46289e-213
1.08669e-211
7.53826e-212
1.09165e-212
6.88074e-214
4.08144e-215
3.04035e-216
2.76353e-217
2.76766e-218
2.68786e-219
2.14192e-220
1.06843e-221
1.22859e-200
5.49966e-199
1.0014e-197
1.15721e-196
9.52869e-196
5.5183e-195
1.59489e-194
-1.04016e-193
-2.20753e-192
-2.31607e-191
-1.89459e-190
-1.33698e-189
-8.49247e-189
-4.97012e-188
-2.72014e-187
-1.40699e-186
-6.90686e-186
-3.25972e-185
-1.48276e-184
-6.52968e-184
-2.79443e-183
-1.16617e-182
-4.75992e-182
-1.90552e-181
-7.50017e-181
-2.9093e-180
-1.11447e-179
-4.22461e-179
-1.58751e-178
-5.92375e-178
-2.19799e-177
-8.11523e-177
-2.97367e-176
-1.06128e-175
-3.27326e-175
2.05115e-176
2.41924e-173
5.65777e-172
1.14727e-170
2.25628e-169
4.36958e-168
8.33334e-167
1.56025e-165
2.85414e-164
5.06766e-163
8.64895e-162
1.39918e-160
2.09903e-159
2.81905e-158
3.17325e-157
2.54889e-156
4.91358e-156
4.66938e-159
-1.55878e-156
-2.10701e-152
-7.90463e-161
-3.36452e-163
6.13733e-176
5.14155e-180
2.714e-187
2.56493e-190
7.3419e-191
3.03668e-191
2.10968e-191
2.75688e-191
1.22083e-190
3.60466e-189
2.44514e-187
6.11855e-186
2.13824e-185
1.16021e-185
1.3848e-186
5.45007e-188
1.75068e-189
7.69735e-191
4.47417e-192
2.98e-193
1.92079e-194
9.46725e-196
1.32575e-196
1.21591e-194
3.36583e-193
5.59619e-192
6.89997e-191
6.93741e-190
5.98907e-189
4.58055e-188
3.1682e-187
2.01071e-186
1.18367e-185
6.5182e-185
3.38075e-184
1.66102e-183
7.76822e-183
3.45681e-182
1.48178e-181
6.11495e-181
2.43653e-180
9.39905e-180
3.51826e-179
1.28062e-178
4.54059e-178
1.57059e-177
5.30561e-177
1.75172e-176
5.65351e-176
1.78308e-175
5.49234e-175
1.65618e-174
5.00391e-174
1.72195e-173
9.7377e-173
1.05042e-171
1.49572e-170
2.25097e-169
3.40588e-168
5.14291e-167
7.7428e-166
1.16225e-164
1.73918e-163
2.59472e-162
3.86172e-161
5.74272e-160
8.5631e-159
1.28839e-157
1.97843e-156
3.16356e-155
5.48352e-154
1.10317e-152
2.71743e-151
3.11034e-150
2.62706e-150
2.3925e-148
2.41441e-141
-1.48726e-142
-3.02916e-153
-7.31594e-155
-3.67383e-170
-3.13313e-171
-1.84227e-174
-9.27245e-178
-2.47608e-178
-1.04463e-178
-6.95839e-179
-8.08236e-179
-2.29329e-178
-2.3394e-177
-4.73901e-176
8.28226e-175
2.12667e-173
1.63947e-173
1.95185e-174
3.61766e-176
2.46913e-178
3.94735e-180
1.11281e-181
3.97125e-183
1.33624e-184
2.60544e-186
1.10413e-192
3.83431e-191
7.18599e-190
9.44957e-189
9.8266e-188
8.62613e-187
6.64576e-186
4.60596e-185
2.92011e-184
1.71385e-183
9.39652e-183
4.84703e-182
2.36622e-181
1.09861e-180
4.86216e-180
2.06617e-179
8.44777e-179
3.33336e-178
1.273e-177
4.71711e-177
1.70007e-176
5.97184e-176
2.04862e-175
6.8747e-175
2.26028e-174
7.28973e-174
2.30866e-173
7.18409e-173
2.1973e-172
6.60393e-172
1.94955e-171
5.65968e-171
1.64071e-170
5.20123e-170
2.46956e-169
2.28531e-168
3.02825e-167
4.34425e-166
6.2723e-165
9.0056e-164
1.28416e-162
1.81821e-161
2.55554e-160
3.56516e-159
4.9388e-158
6.80781e-157
9.37704e-156
1.30127e-154
1.84302e-153
2.73455e-152
4.57228e-151
3.52203e-150
1.48582e-149
5.71334e-147
4.18484e-141
-6.60645e-140
3.64631e-151
3.25954e-151
2.03315e-151
8.66366e-153
2.43765e-154
9.98132e-158
8.02671e-160
2.30019e-161
3.46966e-162
1.80187e-162
8.994e-162
8.94541e-161
1.02156e-160
1.47883e-160
1.23166e-160
3.41789e-161
1.97638e-162
4.98342e-176
2.95927e-178
4.54093e-180
1.25257e-181
4.9123e-183
1.55241e-184
2.80502e-186
1.80851e-189
3.78319e-188
5.36784e-187
5.83564e-186
5.23916e-185
4.07225e-184
2.82495e-183
1.78473e-182
1.04135e-181
5.66899e-181
2.90167e-180
1.40509e-179
6.46928e-179
2.84511e-178
1.19848e-177
4.85605e-177
1.89834e-176
7.18065e-176
2.63495e-175
9.40351e-175
3.27103e-174
1.11149e-173
3.6965e-173
1.20547e-172
3.8611e-172
1.21657e-171
3.77577e-171
1.15571e-170
3.49192e-170
1.0423e-169
3.07443e-169
8.96004e-169
2.57621e-168
7.27843e-168
2.00243e-167
5.32697e-167
1.51965e-166
8.63685e-166
1.21025e-164
2.00596e-163
3.15368e-162
4.69149e-161
6.70089e-160
9.27555e-159
1.25055e-157
1.64595e-156
2.11805e-155
2.66667e-154
3.28495e-153
3.936e-152
4.48623e-151
3.37868e-150
7.42561e-150
7.56188e-148
5.60304e-145
-4.88107e-138
-3.03323e-141
-4.13541e-146
-4.14785e-147
-2.50699e-148
-2.1261e-148
-3.22935e-150
-7.50344e-151
-1.06678e-151
-1.10182e-151
-1.19696e-150
-2.07366e-149
-9.31476e-147
-3.6938e-148
-2.76478e-148
-1.99262e-148
-3.97095e-149
-8.04864e-151
6.73934e-176
3.45214e-178
5.09179e-180
1.37333e-181
5.31684e-183
1.66182e-184
3.02386e-186
9.97422e-187
1.49457e-185
1.69782e-184
1.56211e-183
1.22442e-182
8.47566e-182
5.3121e-181
3.0672e-180
1.65169e-179
8.36957e-179
4.01771e-178
1.83652e-177
8.04695e-177
3.37381e-176
1.36142e-175
5.30177e-175
1.99762e-174
7.2992e-174
2.59236e-173
8.96749e-173
3.02762e-172
9.9953e-172
3.23264e-171
1.02588e-170
3.19975e-170
9.82216e-170
2.9713e-169
8.86729e-169
2.61311e-168
7.60885e-168
2.19014e-167
6.23157e-167
1.75167e-166
4.8552e-166
1.32039e-165
3.47234e-165
8.41978e-165
1.53142e-164
-1.22655e-164
-3.74181e-163
-2.32533e-162
4.9362e-162
4.15747e-160
8.58307e-159
1.37431e-157
1.95276e-156
2.5656e-155
3.16205e-154
3.65707e-153
3.91214e-152
3.67662e-151
2.4853e-150
4.99671e-150
2.5876e-149
1.43371e-146
-2.11591e-136
-1.2194e-137
-1.16524e-140
-7.70268e-141
-1.41725e-141
-2.27055e-142
2.132e-143
2.09535e-142
1.20624e-142
6.7436e-143
1.68959e-143
-1.4876e-145
-3.45863e-143
6.95317e-141
5.43587e-141
3.6016e-141
6.55691e-143
2.68411e-151
1.1281e-150
1.58095e-161
5.51422e-180
1.47717e-181
5.66958e-183
1.76336e-184
2.0936e-185
2.60756e-184
3.00858e-183
2.80518e-182
2.19418e-181
1.49119e-180
9.05843e-180
5.02664e-179
2.59034e-178
1.25528e-177
5.77552e-177
2.54116e-176
1.07868e-175
4.40364e-175
1.73932e-174
6.6596e-174
2.47544e-173
8.94367e-173
3.14444e-172
1.07704e-171
3.59835e-171
1.17406e-170
3.74577e-170
1.17001e-169
3.58233e-169
1.07634e-168
3.17683e-168
9.21898e-168
2.63238e-167
7.40013e-167
2.04901e-166
5.5894e-166
1.50235e-165
3.97914e-165
1.03866e-164
2.67213e-164
6.76964e-164
1.67681e-163
3.90991e-163
6.93643e-163
-9.40413e-163
-2.64653e-161
-2.71612e-160
-2.29565e-159
-1.68723e-158
-9.83608e-158
-2.32875e-157
5.13901e-156
1.1856e-154
1.68586e-153
1.89441e-152
1.68056e-151
9.77641e-151
2.02145e-150
4.37026e-150
3.37983e-148
-1.29533e-134
-9.20435e-135
-8.51388e-136
-2.05253e-135
-1.58971e-135
-2.67286e-136
-1.7424e-141
-6.88818e-146
-9.0547e-134
-4.8506e-134
-1.96152e-134
-6.85153e-135
-2.03854e-135
-4.82227e-136
-8.19037e-137
9.58218e-139
2.76366e-137
1.58082e-142
-1.20175e-146
8.77935e-156
1.22103e-174
1.55402e-181
5.96338e-183
5.16394e-184
4.01586e-183
4.29097e-182
3.91779e-181
3.03873e-180
2.03338e-179
1.19669e-178
6.31022e-178
3.02996e-177
1.3435e-176
5.57051e-176
2.18565e-175
8.21558e-175
2.98971e-174
1.06391e-173
3.73191e-173
1.29646e-172
4.46694e-172
1.52431e-171
5.13614e-171
1.70272e-170
5.53573e-170
1.76021e-169
5.46332e-169
1.65259e-168
4.86527e-168
1.39184e-167
3.86075e-167
1.03477e-166
2.66461e-166
6.5268e-166
1.49256e-165
3.0615e-165
5.03945e-165
3.45353e-165
-2.1017e-164
-1.42553e-163
-6.10993e-163
-2.1828e-162
-6.896e-162
-1.94256e-161
-4.84362e-161
-1.159e-160
-4.64841e-160
-4.30822e-159
-4.62025e-158
-4.46728e-157
-3.86829e-156
-3.02033e-155
-2.10389e-154
-1.26978e-153
-6.45266e-153
-3.21022e-152
-2.89937e-151
-3.0024e-150
1.11568e-150
9.00462e-150
-6.28501e-129
-1.22357e-128
-3.6531e-129
-1.02054e-132
-6.38331e-132
-1.98873e-131
-6.99861e-133
-2.85924e-127
-6.54963e-128
-1.41409e-128
-3.01947e-129
-6.10672e-130
-1.0841e-130
-1.52327e-131
-4.00002e-132
-1.46776e-132
-5.42846e-134
-8.82571e-143
-4.28697e-147
2.26784e-155
1.85983e-166
1.6348e-181
1.47567e-182
7.45113e-182
6.422e-181
5.20743e-180
3.83051e-179
2.52099e-178
1.47769e-177
7.74135e-177
3.6465e-176
1.55361e-175
6.01257e-175
2.11698e-174
6.76492e-174
1.92758e-173
4.85869e-173
1.01498e-172
1.41669e-172
-7.9462e-173
-1.58542e-171
-7.81939e-171
-2.90154e-170
-9.30801e-170
-2.72002e-169
-7.4899e-169
-2.01278e-168
-5.5203e-168
-1.62167e-167
-5.24632e-167
-1.84669e-166
-6.81218e-166
-2.54065e-165
-9.36942e-165
-3.3803e-164
-1.18866e-163
-4.07158e-163
-1.35957e-162
-4.42918e-162
-1.40846e-161
-4.36971e-161
-1.32036e-160
-3.87004e-160
-1.09186e-159
-2.92107e-159
-7.18863e-159
-1.51762e-158
-2.22618e-158
-9.51727e-160
1.82495e-158
-1.72853e-156
-2.42963e-155
-1.97068e-154
-8.25454e-154
7.06421e-153
2.63822e-151
5.45359e-150
9.99103e-149
8.8185e-148
9.30693e-148
-1.10968e-125
1.27989e-124
-1.97234e-131
8.6431e-127
9.26596e-118
8.50645e-118
5.63571e-119
1.91031e-121
-3.69904e-138
-5.9219e-143
9.05065e-140
2.20883e-123
2.20645e-123
1.93568e-123
2.72286e-124
-9.29618e-132
-8.13113e-136
-3.59673e-135
-1.48912e-147
-2.15316e-149
5.87901e-158
-2.51133e-168
-4.49874e-167
-7.439e-166
-1.11472e-164
-1.46075e-163
-1.62813e-162
-1.51992e-161
-1.1801e-160
-7.6496e-160
-4.032e-159
-1.73686e-158
-6.03159e-158
-1.65331e-157
-3.39411e-157
-5.1549e-157
-5.28997e-157
-3.24411e-157
-9.47101e-158
-2.18891e-160
-1.01672e-160
-6.09593e-162
1.78455e-168
-2.72e-168
-1.37474e-167
-4.27819e-167
-1.20332e-166
-3.28692e-166
-8.9853e-166
-2.50955e-165
-7.2647e-165
-2.19081e-164
-6.85089e-164
-2.197e-163
-7.13631e-163
-2.32326e-162
-7.52456e-162
-2.41276e-161
-7.63742e-161
-2.38202e-160
-7.30982e-160
-2.20369e-159
-6.51295e-159
-1.88078e-158
-5.27767e-158
-1.42518e-157
-3.6361e-157
-8.42612e-157
-1.59331e-156
-1.37816e-156
7.75089e-156
6.53645e-155
4.12752e-154
3.57326e-153
4.43662e-152
5.96787e-151
6.96137e-150
1.99654e-149
3.66472e-149
3.46429e-145
7.36518e-113
7.36365e-113
3.7458e-113
2.52597e-114
-5.31558e-116
1.63294e-117
1.63452e-117
1.62797e-117
1.61996e-117
1.61123e-117
2.38146e-118
-1.06322e-119
-3.47911e-120
-3.4178e-121
-1.4581e-122
-1.06277e-124
-7.15702e-129
-6.60316e-136
-1.96791e-142
5.4603e-146
-9.13435e-155
6.34459e-158
1.28709e-156
2.49555e-155
4.48666e-154
7.1935e-153
9.91614e-152
1.14363e-150
1.09117e-149
9.57563e-149
8.9756e-148
4.12159e-147
1.097e-146
1.96018e-146
2.59956e-146
2.47162e-146
1.58328e-146
3.47495e-147
-5.06058e-149
-2.96981e-149
-2.08364e-150
-8.39328e-151
-6.63578e-155
1.22093e-154
-1.99683e-154
-2.6851e-154
-2.69358e-154
-2.01452e-154
-9.89525e-155
-3.18398e-155
-4.08009e-160
-3.55258e-160
3.47492e-160
3.79985e-160
4.08357e-160
4.27696e-160
4.21985e-160
3.36731e-160
-9.80453e-162
-1.20551e-159
-5.09696e-159
-1.73292e-158
-5.47131e-158
-1.65984e-157
-4.88242e-157
-1.39331e-156
-3.84097e-156
-1.01279e-155
-2.50327e-155
-5.53892e-155
-9.52213e-155
-2.88692e-155
9.37338e-154
8.37528e-153
7.14474e-152
6.89117e-151
6.49691e-150
3.37336e-149
2.73829e-150
-1.28727e-148
-1.80153e-110
-2.10512e-110
-1.21893e-110
-6.06275e-111
-1.37324e-111
-1.3813e-112
-1.063e-113
-1.05913e-114
-1.68907e-115
-3.58175e-116
-9.93047e-117
-4.47628e-117
-1.45813e-117
-3.31751e-118
-3.65357e-119
-5.74171e-126
2.29755e-129
-3.99588e-133
2.52549e-138
7.31271e-146
4.52466e-154
-9.35329e-154
-1.08033e-152
-1.56315e-151
-2.20524e-150
-2.81788e-149
-3.14797e-148
-2.9987e-147
-2.38488e-146
-1.54985e-145
-8.01679e-145
-3.18232e-144
-9.01771e-144
-1.69331e-143
-1.75867e-143
-9.34431e-144
-1.51567e-143
-1.33772e-143
-3.26038e-144
-1.11021e-145
-9.06827e-146
-6.87917e-147
-3.39542e-146
-7.01651e-145
-1.52358e-146
-2.21708e-148
-2.73064e-148
-4.79209e-148
-4.62375e-148
-1.46158e-149
7.74632e-153
-6.54653e-152
-5.23174e-155
1.40738e-157
1.31342e-157
1.19308e-157
1.08171e-157
9.92713e-158
9.29687e-158
8.75101e-158
7.54272e-158
3.13817e-158
-1.26767e-157
-6.5612e-157
-2.33182e-156
-7.40344e-156
-2.21425e-155
-6.32419e-155
-1.72533e-154
-4.45708e-154
-1.06715e-153
-2.2452e-153
-3.42362e-153
1.8529e-153
6.13725e-152
5.49163e-151
4.35016e-150
2.35978e-149
4.60087e-152
-4.71189e-147
-4.87388e-106
-2.42794e-106
-1.08128e-106
-3.49951e-107
-7.12245e-108
-8.82967e-109
-8.13063e-110
-8.34572e-111
-1.18595e-111
-2.24763e-112
-5.06716e-113
-1.1943e-113
-2.49382e-114
-3.48274e-115
-1.29659e-116
-1.78779e-124
-5.7861e-130
-6.06977e-133
1.9523e-138
1.37295e-156
-1.60214e-146
-5.74892e-148
-7.98967e-147
-3.67712e-146
-2.89021e-145
-2.99391e-144
-3.6654e-143
-4.32677e-142
-4.43055e-141
-3.7775e-140
-2.62091e-139
-1.46513e-138
-6.18371e-138
-1.93517e-137
-4.12234e-137
-5.49328e-137
-3.46425e-137
-6.3133e-140
-1.07603e-139
-1.2261e-139
-1.35933e-139
-1.47886e-139
-6.52077e-140
-5.77434e-141
4.35649e-139
-1.25517e-143
-1.65402e-142
-1.74387e-142
-3.70375e-144
-3.90067e-144
-2.08006e-146
-8.22403e-152
-9.73646e-152
-3.64913e-151
-5.9621e-154
-7.45347e-154
-8.13277e-154
-8.66271e-154
-9.03197e-154
-9.21102e-154
-9.17693e-154
-8.94118e-154
-8.54211e-154
-8.02672e-154
-7.43897e-154
-6.83573e-154
-6.35586e-154
-6.40272e-154
-8.11167e-154
-1.44809e-153
-3.27379e-153
-7.79186e-153
-1.72062e-152
-3.03426e-152
-1.50024e-152
2.61728e-151
2.24569e-150
1.12428e-149
-8.453e-150
1.57957e-150
-6.41682e-103
-2.31813e-103
-8.07511e-104
-2.42091e-104
-5.54552e-105
-9.11188e-106
-1.14239e-106
-1.33708e-107
-1.77655e-108
-2.82049e-109
-5.01509e-110
-8.77995e-111
-1.22698e-111
-8.30822e-113
-1.62273e-116
-9.4723e-124
-5.37522e-128
-4.47853e-131
-1.63592e-138
5.52195e-137
3.06344e-136
1.02888e-135
2.65968e-135
1.06605e-134
7.46351e-134
3.85384e-133
1.17398e-132
1.62244e-132
1.62577e-132
1.62994e-132
1.65672e-132
1.69106e-132
1.69267e-132
1.11373e-132
2.6478e-130
1.43966e-129
1.44245e-129
1.44452e-129
1.44585e-129
1.44641e-129
1.44641e-129
1.44638e-129
5.92072e-130
9.27545e-131
1.47401e-149
6.03219e-152
-1.06434e-136
3.84501e-134
2.68482e-134
2.38248e-134
1.59305e-136
-3.19399e-138
2.40823e-142
-9.95685e-147
-6.10659e-150
-6.19553e-150
-6.29486e-150
-6.466e-150
-6.59297e-150
-6.6014e-150
-6.47817e-150
-6.23415e-150
-5.89962e-150
-5.50953e-150
-5.08981e-150
-4.65468e-150
-4.21227e-150
-3.76975e-150
-3.333e-150
-2.9072e-150
-2.49671e-150
-2.10626e-150
-1.74205e-150
-1.41155e-150
-1.10364e-150
-6.764e-151
5.80096e-151
4.23784e-150
-1.0029e-149
-1.4173e-148
-2.10388e-100
-7.42359e-101
-2.54718e-101
-7.84197e-102
-1.9868e-102
-3.91962e-103
-6.09787e-104
-8.2279e-105
-1.09328e-105
-1.52786e-106
-2.16764e-107
-2.72353e-108
-2.21776e-109
-1.83006e-111
-2.49116e-116
-6.69034e-123
-4.22002e-126
2.93974e-128
-1.76354e-133
-5.43176e-134
-1.92349e-133
-6.10579e-133
-2.13981e-132
-8.5657e-132
-4.12412e-131
-2.23888e-130
-1.20537e-129
-5.89094e-129
-2.50973e-128
-9.1155e-128
-2.76053e-127
-6.67591e-127
-1.13058e-126
-4.55247e-127
6.66942e-127
-1.6907e-126
-4.33706e-126
-6.08711e-126
-5.14656e-126
-2.6098e-126
-1.3155e-126
-5.54435e-127
-1.23695e-127
-1.56567e-128
4.47868e-129
-4.90495e-136
2.375e-129
-9.73686e-132
-1.43668e-131
-7.75013e-132
-1.43602e-133
4.65177e-137
4.71578e-137
-3.19907e-139
-3.86155e-141
-9.17864e-145
-3.58013e-145
-9.16407e-146
-2.97271e-146
-2.83142e-146
-3.0094e-146
-2.96837e-146
-2.81531e-146
-2.62787e-146
-2.42851e-146
-2.22447e-146
-2.0193e-146
-1.81575e-146
-1.61631e-146
-1.423e-146
-1.23763e-146
-1.06178e-146
-8.9692e-147
-7.44316e-147
-6.051e-147
-4.79978e-147
-3.68995e-147
-2.69665e-147
-1.59735e-147
-1.07006e-148
-3.80551e-98
-1.32283e-98
-4.49827e-99
-1.41094e-99
-3.82643e-100
-8.5532e-101
-1.55893e-101
-2.39832e-102
-3.31163e-103
-4.26022e-104
-4.89834e-105
-4.19275e-106
-1.27347e-107
-2.5972e-111
-5.05345e-116
-1.24218e-122
-8.24635e-126
2.94242e-128
-8.94458e-129
-3.01803e-128
-1.02404e-127
-3.52003e-127
-1.20757e-126
-4.03629e-126
-1.28351e-125
-3.80666e-125
-1.03354e-124
-2.51112e-124
-5.29649e-124
-9.10203e-124
-1.22809e-123
-1.05584e-123
-9.70958e-125
6.32367e-124
-7.07509e-124
-7.83811e-123
-2.31672e-122
-4.32818e-122
-5.66927e-122
-5.52225e-122
-3.82033e-122
-1.70793e-122
-3.79215e-123
-1.94429e-125
3.25981e-124
3.86741e-123
2.83827e-122
-5.92408e-122
-8.25409e-128
-1.83573e-128
-1.41574e-128
-4.43479e-131
-6.71767e-131
3.73154e-134
2.04104e-135
1.8616e-135
7.24931e-136
2.6975e-136
9.85273e-137
-1.29212e-141
-5.34896e-142
-2.89563e-142
-2.43596e-142
-2.00487e-142
-6.74686e-143
-6.20639e-143
-5.58848e-143
-4.94788e-143
-4.30662e-143
-3.67483e-143
-3.06039e-143
-2.4699e-143
-1.90958e-143
-1.38632e-143
-9.08098e-144
-4.79498e-144
-6.23568e-145
4.60664e-152
1.58096e-140
1.58111e-140
-4.14639e-96
-1.42922e-96
-4.84023e-97
-1.54154e-97
-4.39505e-98
-1.07663e-98
-2.21618e-99
-3.83007e-100
-5.61841e-101
-6.94223e-102
-6.64284e-103
-3.52095e-104
-5.89191e-107
-7.89278e-111
-1.10196e-115
-2.16606e-121
5.16555e-125
-7.44158e-124
-3.05627e-123
-1.19488e-122
-4.57704e-122
-1.71748e-121
-6.19645e-121
-2.08958e-120
-6.37684e-120
-1.69069e-119
-3.66346e-119
-6.28347e-119
-1.01908e-118
-1.54054e-118
-2.13139e-118
-2.75367e-118
-3.48154e-118
-4.65157e-118
-6.98717e-118
-1.14566e-117
-1.8583e-117
-2.73763e-117
-3.50444e-117
-3.82203e-117
-3.94566e-117
-4.37762e-117
-5.62397e-117
-7.35968e-117
-8.32968e-117
-6.9461e-117
2.87739e-132
3.84156e-124
1.00649e-127
-3.88946e-121
2.28687e-123
1.03182e-123
-1.02892e-126
-6.6251e-127
1.62822e-131
1.6285e-131
1.62903e-131
1.62938e-131
1.62869e-131
8.73228e-132
4.1499e-132
2.63954e-132
2.64036e-132
2.641e-132
3.22797e-134
7.30545e-134
3.12894e-134
1.26758e-134
5.2516e-135
2.21692e-135
9.01179e-136
3.1251e-136
6.31994e-137
-1.12733e-141
-5.43908e-142
-2.26103e-142
1.16355e-136
1.59965e-135
-1.6494e-135
1.58096e-140
-2.93621e-94
-1.0092e-94
-3.41955e-95
-1.10516e-95
-3.27969e-96
-8.62857e-97
-1.95771e-97
-3.74802e-98
-5.90929e-99
-7.28779e-100
-6.05455e-101
-1.68597e-102
-7.69459e-106
-2.37985e-110
-2.21222e-115
-1.04293e-121
-1.66258e-120
-5.53034e-137
-2.4838e-136
-7.97478e-120
-9.8128e-119
-1.87601e-118
-4.31267e-118
4.12802e-110
2.81112e-109
1.19497e-108
2.49782e-108
2.50496e-108
2.50826e-108
2.51028e-108
2.51123e-108
2.51123e-108
2.51123e-108
2.32168e-108
2.14749e-108
2.40472e-108
1.66842e-108
7.90709e-109
3.33839e-109
1.48877e-109
5.49202e-110
2.71803e-110
1.87159e-110
1.72627e-110
1.08766e-110
9.98991e-111
7.55949e-110
-1.61094e-110
3.41651e-110
8.36595e-130
-6.49967e-124
4.66808e-124
-3.94911e-124
-6.07458e-124
-3.98961e-124
-2.59363e-124
-1.22794e-124
-7.3951e-125
-3.75747e-125
-7.38594e-126
-1.22565e-126
-1.42293e-127
-3.10551e-128
-3.49051e-129
6.49179e-131
4.73803e-130
5.38093e-130
5.23845e-130
4.68704e-130
4.01773e-130
3.39839e-130
2.86392e-130
2.39373e-130
1.95806e-130
1.55099e-130
1.17879e-130
8.07381e-131
2.81339e-131
-2.45933e-132
-2.0319e-128
-1.44193e-92
-4.96674e-93
-1.69119e-93
-5.55193e-94
-1.70589e-94
-4.76046e-95
-1.17108e-95
-2.45474e-96
-4.18198e-97
-5.31559e-98
-4.06348e-99
-4.48627e-101
-5.01524e-105
-5.70323e-110
-2.20681e-114
-6.12474e-114
0
-1.66576e-116
-4.23432e-116
2.54978e-108
2.2058e-107
2.88057e-107
4.65159e-107
6.43329e-107
6.49164e-107
2.24881e-109
-2.02927e-106
-5.51927e-106
-1.01005e-105
-1.48784e-105
-1.8578e-105
-1.9765e-105
-1.61191e-105
-2.91462e-106
2.03702e-105
4.61572e-105
6.28207e-105
6.85278e-105
1.2888e-104
1.28443e-104
1.34249e-104
2.11962e-104
3.58175e-104
5.87695e-104
9.05443e-104
1.32302e-103
6.28763e-105
-1.05769e-105
1.99248e-106