/*--------------------------------*- C++ -*----------------------------------*\
  =========                 |
  \\      /  F ield         | OpenFOAM: The Open Source CFD Toolbox
   \\    /   O peration     | Website:  https://openfoam.org
    \\  /    A nd           | Version:  7
     \\/     M anipulation  |
\*---------------------------------------------------------------------------*/
FoamFile
{
    version     2.0;
    format      ascii;
    class       surfaceScalarField;
    location    "15";
    object      alphaPhi;
}
// * * * * * * * * * * * * * * * * * * * * * * * * * * * * * * * * * * * * * //

dimensions      [0 3 -1 0 0 0 0];

internalField   nonuniform List<scalar> 
99520
(
0
0
0
0
0
0
0
0
0
0
0
0
0
0
0
0
0
0
0
0
0
0
0
0
0
0
0
0
0
0
0
0
0
0
0
0
0
0
0
0
0
0
0
0
0
0
0
0
0
0
0
0
0
0
0
0
0
0
0
0
0
0
0
0
0
0
0
0
0
0
0
0
0
0
0
0
0
0
0
0
0
0
0
0
0
0
0
0
0
0
0
0
0
0
0
0
0
0
0
0
0
0
0
0
0
0
-4.94066e-324
8.89318e-323
-1.82804e-322
5.31121e-321
-1.0741e-320
3.36953e-319
-6.63866e-319
2.37686e-317
-4.29159e-317
1.82646e-315
-3.09319e-315
1.51729e-313
-2.43087e-313
1.35672e-311
-2.07126e-311
1.28887e-309
-1.89875e-309
1.3037e-307
-1.85597e-307
1.39318e-305
-1.92871e-305
1.59397e-303
-2.12865e-303
1.93885e-301
-2.50664e-301
2.55271e-299
-3.16235e-299
3.58713e-297
-4.29845e-297
5.48708e-295
-6.30943e-295
8.90718e-293
-1.00041e-292
1.56801e-290
-1.71092e-290
2.89476e-288
-3.14294e-288
5.78369e-286
-6.1968e-286
1.20086e-283
-1.30358e-283
2.69629e-281
-2.93587e-281
6.23388e-279
-7.0303e-279
1.56399e-276
-1.80727e-276
4.00835e-274
-4.93329e-274
1.12987e-271
-1.45326e-271
3.23991e-269
-4.54843e-269
-1.56027e-266
1.03259e-266
0
4.01691e-317
-5.17002e-317
0
0
0
0
0
0
0
0
0
0
0
0
0
0
0
0
0
0
0
0
0
0
0
0
0
0
0
0
0
0
0
0
0
0
0
0
0
0
0
0
0
0
0
0
0
0
0
0
0
0
0
0
0
0
0
0
-2.57393e-307
3.2741e-307
-8.05039e-305
1.09199e-304
-9.0495e-303
1.25464e-302
-6.59493e-301
9.30319e-301
-3.6921e-299
5.28998e-299
-1.71775e-297
2.49906e-297
-6.95468e-296
1.02664e-295
-2.52188e-294
3.77643e-294
-8.36426e-293
1.26954e-292
-2.57694e-291
3.96087e-291
-7.47575e-290
1.16126e-289
-2.06683e-288
3.23475e-288
-5.51727e-287
8.65334e-287
-1.44267e-285
2.24918e-285
-3.76197e-284
5.75943e-284
-9.98567e-283
1.47799e-282
-2.75725e-281
3.8791e-281
-8.05165e-280
1.0634e-279
-2.50409e-278
3.09557e-278
-8.25688e-277
9.63094e-277
-2.85534e-275
3.18833e-275
-1.02298e-273
1.11009e-273
-3.76473e-272
4.01781e-272
-1.41685e-270
1.49763e-270
-5.42222e-269
5.7268e-269
-2.13039e-267
2.23232e-267
-8.5839e-266
8.95921e-266
-3.56244e-264
3.69613e-264
-1.52972e-262
1.57516e-262
-6.83224e-261
6.96118e-261
-3.18482e-259
3.20774e-259
-1.55697e-257
1.5464e-257
-7.98629e-256
7.8335e-256
-4.31675e-254
4.17612e-254
-2.45233e-252
2.34895e-252
-1.47172e-250
1.39401e-250
-9.28046e-249
8.74209e-249
-6.19972e-247
5.79322e-247
-4.35717e-245
4.0639e-245
-3.26243e-243
3.02202e-243
-2.57735e-241
2.38849e-241
-2.18732e-239
2.01372e-239
-1.96962e-237
1.81661e-237
-1.92518e-235
1.76355e-235
-2.00809e-233
1.84689e-233
-2.2993e-231
2.10356e-231
-2.83464e-229
2.60998e-229
-3.90787e-227
3.57207e-227
-5.90372e-225
5.40408e-225
-1.02438e-222
9.22476e-223
1.78752e-220
-2.04026e-220
0
7.32619e-317
-7.37143e-317
0
0
0
0
0
0
0
0
0
0
0
0
0
0
0
0
0
0
0
0
0
0
0
0
0
0
0
0
0
0
0
0
0
0
0
0
0
0
0
0
0
0
0
0
0
0
0
0
0
0
0
0
0
0
2.42868e-319
6.26075e-317
-1.06201e-288
1.30605e-288
-1.80919e-286
2.3331e-286
-1.2165e-284
1.59622e-284
-5.42013e-283
7.20784e-283
-1.87086e-281
2.52093e-281
-5.3978e-280
7.36709e-280
-1.35869e-278
1.87899e-278
-3.06986e-277
4.30135e-277
-6.34615e-276
9.01143e-276
-1.21834e-274
1.75289e-274
-2.19677e-273
3.20182e-273
-3.75745e-272
5.54333e-272
-6.14913e-271
9.1715e-271
-9.71315e-270
1.46129e-269
-1.49434e-268
2.25976e-268
-2.26336e-267
3.42086e-267
-3.41808e-266
5.1213e-266
-5.22905e-265
7.67727e-265
-8.24883e-264
1.17036e-263
-1.36622e-262
1.84675e-262
-2.40699e-261
3.06966e-261
-4.53619e-260
5.44689e-260
-9.05562e-259
1.03681e-258
-1.92643e-257
2.098e-257
-4.29104e-256
4.53503e-256
-9.94813e-255
1.02984e-254
-2.3907e-253
2.44007e-253
-5.95283e-252
6.01219e-252
-1.53667e-250
1.53866e-250
-4.12186e-249
4.0947e-249
-1.15152e-247
1.13502e-247
-3.35938e-246
3.28616e-246
-1.02589e-244
9.96007e-245
-3.28574e-243
3.16886e-243
-1.10623e-241
1.06026e-241
-3.91915e-240
3.73894e-240
-1.46469e-238
1.39177e-238
-5.77904e-237
5.47999e-237
-2.41657e-235
2.28659e-235
-1.07197e-233
1.01378e-233
-5.07306e-232
4.79032e-232
-2.56567e-230
2.42163e-230
-1.3981e-228
1.31602e-228
-8.22535e-227
7.72703e-227
-5.27592e-225
4.93416e-225
-3.6956e-223
3.44619e-223
-2.85962e-221
2.65303e-221
-2.44614e-219
2.26296e-219
-2.33732e-217
2.1563e-217
-2.51757e-215
2.3118e-215
2.81378e-213
-3.12397e-213
0
3.46114e-317
-1.52644e-317
0
0
0
0
0
0
0
0
0
0
0
0
0
0
0
0
0
0
0
0
0
0
0
0
0
0
0
0
0
0
0
0
0
0
0
0
0
0
0
0
0
0
0
0
0
0
0
0
0
0
0
0
0
0
1.34129e-305
4.04613e-303
-9.8786e-277
1.17308e-276
-9.9177e-275
1.21777e-274
-4.58547e-273
5.70163e-273
-1.45669e-271
1.83006e-271
-3.64413e-270
4.62614e-270
-7.68663e-269
9.86241e-269
-1.42258e-267
1.84585e-267
-2.37194e-266
3.11322e-266
-3.62813e-265
4.81939e-265
-5.16292e-264
6.94161e-264
-6.90738e-263
9.4024e-263
-8.76814e-262
1.2081e-261
-1.06398e-260
1.48351e-260
-1.24322e-259
1.75264e-259
-1.40821e-258
2.00471e-258
-1.55766e-257
2.23415e-257
-1.69597e-256
2.44229e-256
-1.83505e-255
2.63921e-255
-1.99607e-254
2.84519e-254
-2.21331e-253
3.09516e-253
-2.54142e-252
3.44434e-252
-3.0336e-251
3.98276e-251
-3.90747e-250
4.80319e-250
-5.38397e-249
6.26987e-249
-7.92175e-248
8.78139e-248
-1.23716e-246
1.31739e-246
-2.0365e-245
2.10372e-245
-3.51362e-244
3.55154e-244
-6.33402e-243
6.30206e-243
-1.19136e-241
1.17176e-241
-2.33972e-240
2.27962e-240
-4.8016e-239
4.64323e-239
-1.03224e-237
9.91219e-238
-2.32702e-236
2.2224e-236
-5.51837e-235
5.24231e-235
-1.37706e-233
1.30398e-233
-3.62987e-232
3.42624e-232
-1.0103e-230
9.53136e-231
-2.98496e-229
2.81282e-229
-9.35267e-228
8.82935e-228
-3.13139e-226
2.95645e-226
-1.11903e-224
1.05974e-224
-4.31416e-223
4.08478e-223
-1.79183e-221
1.7011e-221
-8.12862e-220
7.70376e-220
-4.02044e-218
3.81584e-218
-2.20392e-216
2.08441e-216
-1.33341e-214
1.26279e-214
-9.05912e-213
8.56521e-213
-6.90644e-211
6.53981e-211
5.66992e-209
-6.03903e-209
0
7.97105e-318
-8.71662e-318
0
0
0
0
0
0
0
0
0
0
0
0
0
0
0
0
0
0
0
0
0
0
0
0
0
0
0
0
0
0
0
0
0
0
0
0
0
0
0
0
0
0
0
0
0
0
0
0
0
0
0
0
0
0
1.18235e-276
2.50143e-273
-8.67601e-268
1.00402e-267
-5.46914e-266
6.43162e-266
-1.85228e-264
2.19311e-264
-4.49902e-263
5.36545e-263
-8.78592e-262
1.05554e-261
-1.46202e-260
1.77178e-260
-2.15071e-259
2.63e-259
-2.86224e-258
3.53552e-258
-3.5076e-257
4.37764e-257
-4.00666e-256
5.05635e-256
-4.31155e-255
5.50251e-255
-4.40505e-254
5.68806e-254
-4.30516e-253
5.62386e-253
-4.04873e-252
5.35097e-252
-3.68661e-251
4.92672e-251
-3.26777e-250
4.41298e-250
-2.83709e-249
3.86589e-249
-2.42769e-248
3.33058e-248
-2.06342e-247
2.83967e-247
-1.73056e-246
2.41334e-246
-1.49489e-245
2.03158e-245
-1.32613e-244
1.76712e-244
-1.22577e-243
1.58391e-243
-1.19602e-242
1.48361e-242
-1.24461e-241
1.47187e-241
-1.38693e-240
1.56176e-240
-1.65358e-239
1.78027e-239
-2.0988e-238
2.1772e-238
-2.82098e-237
2.84352e-237
-3.99608e-236
3.94336e-236
-5.95057e-235
5.78131e-235
-9.3035e-234
8.93424e-234
-1.52755e-232
1.45407e-232
-2.6367e-231
2.49241e-231
-4.79058e-230
4.50516e-230
-9.18012e-229
8.59872e-229
-1.85773e-227
1.73637e-227
-3.98093e-226
3.71633e-226
-9.04398e-225
8.44961e-225
-2.18671e-223
2.04561e-223
-5.63455e-222
5.2882e-222
-1.55604e-220
1.46475e-220
-4.61458e-219
4.36383e-219
-1.48107e-217
1.40539e-217
-5.15883e-216
4.91801e-216
-1.96986e-214
1.88302e-214
-8.27329e-213
7.93817e-213
-3.86239e-211
3.71552e-211
-2.01182e-209
1.94431e-209
-1.1826e-207
1.14765e-207
7.69093e-206
-7.91488e-206
0
-2.94134e-318
-9.04047e-318
0
0
0
0
0
0
0
0
0
0
0
0
0
0
0
0
0
0
0
0
0
0
0
0
0
0
0
0
0
0
0
0
0
0
0
0
0
0
0
0
0
0
0
0
0
0
0
0
0
0
0
0
0
0
-1.52339e-257
1.54949e-257
-2.75793e-255
3.01678e-255
-1.1938e-253
1.31331e-253
-3.14904e-252
3.48083e-252
-6.22265e-251
6.91573e-251
-1.00762e-249
1.12767e-249
-1.40629e-248
1.58628e-248
-1.74477e-247
1.98607e-247
-1.96656e-246
2.26063e-246
-2.04429e-245
2.37548e-245
-1.98346e-244
2.33129e-244
-1.81239e-243
2.15649e-243
-1.5717e-242
1.89425e-242
-1.30142e-241
1.58996e-241
-1.03474e-240
1.28207e-240
-7.93429e-240
9.97876e-240
-5.89386e-239
7.52795e-239
-4.256e-238
5.52565e-238
-2.99902e-237
3.95982e-237
-2.03585e-236
2.77967e-236
-1.37831e-235
1.88709e-235
-9.19021e-235
1.2821e-234
-6.05359e-234
8.60874e-234
-3.9491e-233
5.72873e-233
-2.55895e-232
3.78805e-232
-1.65107e-231
2.49565e-231
-1.0639e-230
1.6424e-230
-6.86325e-230
1.08265e-229
-4.44655e-229
7.16722e-229
-2.90058e-228
4.77876e-228
-1.9118e-227
3.21815e-227
-1.27667e-226
2.19583e-226
-8.6737e-226
1.52289e-225
-6.01386e-225
1.07748e-224
-4.27832e-224
7.80661e-224
-3.13621e-223
5.81904e-223
-2.39055e-222
4.48651e-222
-1.91562e-221
3.60647e-221
-1.65699e-220
3.06116e-220
-1.61723e-219
2.81219e-219
-1.92344e-218
2.93035e-218
-2.97131e-217
3.73102e-217
-5.97634e-216
6.20994e-216
-1.46083e-214
1.34957e-214
-4.09315e-213
3.59281e-213
-1.2625e-211
1.0998e-211
-4.2593e-210
3.7424e-210
-1.55858e-208
1.39752e-208
-6.25297e-207
5.7264e-207
-2.74154e-205
2.58246e-205
-1.33589e-203
1.29225e-203
7.21645e-202
-7.25733e-202
0
1.9211e-314
1.65162e-314
0
0
0
0
0
0
0
0
0
0
0
0
0
0
0
0
0
0
0
0
0
0
0
0
-5.47852e-259
-5.10089e-259
-1.03962e-257
-1.14013e-258
-2.99546e-257
-9.52941e-258
-1.72987e-257
-2.80218e-257
-5.27142e-258
-1.50792e-257
-1.33219e-258
-4.42356e-258
-3.06354e-259
-1.11334e-258
-6.43285e-260
-2.60252e-259
-1.20715e-260
-5.63304e-260
-1.94749e-261
-1.1014e-260
-2.54974e-262
-1.864e-261
-2.50203e-263
-2.56304e-262
-1.64228e-264
-2.63164e-263
-5.83605e-266
-1.79731e-264
-4.68884e-268
-6.17871e-266
-2.77181e-244
4.37354e-244
-1.30235e-242
2.07792e-242
-2.65853e-241
4.21992e-241
-3.67872e-240
5.82225e-240
-3.98622e-239
6.30428e-239
-3.62963e-238
5.74671e-238
-2.89398e-237
4.5942e-237
-2.07525e-236
3.30766e-236
-1.3636e-235
2.18465e-235
-8.32316e-235
1.34183e-234
-4.76923e-234
7.74468e-234
-2.58701e-233
4.23558e-233
-1.33756e-232
2.20998e-232
-6.63036e-232
1.10642e-231
-3.16597e-231
5.34152e-231
-1.46279e-230
2.49734e-230
-6.56217e-230
1.1351e-229
-2.80421e-229
5.03219e-229
-1.19735e-228
2.1337e-228
-5.01037e-228
9.07714e-228
-2.05879e-227
3.79805e-227
-8.32089e-227
1.56608e-226
-3.31063e-226
6.37364e-226
-1.29633e-225
2.56207e-225
-4.98408e-225
1.01692e-224
-1.87018e-224
3.97581e-224
-6.75222e-224
1.52184e-223
-2.26563e-223
5.62229e-223
-6.35434e-223
1.93629e-222
-7.63479e-223
5.591e-222
9.34543e-222
6.93664e-222
1.29381e-220
-8.79508e-221
1.24346e-219
-1.26491e-219
1.10777e-218
-1.26709e-218
9.88814e-218
-1.17986e-217
9.16406e-217
-1.10488e-216
8.95477e-216
-1.07714e-215
9.3297e-215
-1.11198e-214
1.03837e-213
-1.2271e-213
1.24199e-212
-1.45413e-212
1.59302e-211
-1.85628e-211
2.20555e-210
-2.5577e-210
3.28409e-209
-3.81253e-209
5.30571e-208
-6.16252e-208
9.25757e-207
-1.08306e-206
1.76481e-205
-2.07716e-205
3.65745e-204
-4.36184e-204
8.36226e-203
-1.00841e-202
2.09794e-201
-2.57775e-201
5.86379e-200
-7.34406e-200
1.83505e-198
-2.34775e-198
-8.49343e-197
6.45077e-197
-7.48013e-308
8.52945e-277
4.21492e-277
0
1.08504e-307
0
0
0
0
0
0
0
0
0
0
0
0
0
0
0
0
0
0
0
0
0
0
-8.75013e-259
-6.2274e-259
-7.17284e-257
-1.14116e-257
-3.10425e-256
-1.52686e-256
-1.7279e-256
-3.75436e-256
-4.73288e-257
-1.80572e-256
-1.08922e-257
-4.64955e-257
-2.36608e-258
-1.05293e-257
-4.84457e-259
-2.30836e-258
-9.08485e-260
-4.84612e-259
-1.49158e-260
-9.42852e-260
-2.00783e-261
-1.61936e-260
-2.01506e-262
-2.28795e-261
-1.29898e-263
-2.40818e-262
-3.8663e-265
-1.62786e-263
-4.02359e-238
5.40567e-238
-1.45146e-235
1.9282e-235
-5.20953e-234
5.95426e-234
-1.23996e-232
1.20811e-232
-2.44287e-231
2.09554e-231
-4.21332e-230
3.3411e-230
-6.47349e-229
4.93554e-229
-8.96357e-228
6.72845e-228
-1.13138e-226
8.46761e-227
-1.31616e-225
9.88505e-226
-1.42519e-224
1.07782e-224
-1.4489e-223
1.10555e-223
-1.3932e-222
1.07395e-222
-1.27527e-221
9.94012e-222
-1.11716e-220
8.81349e-221
-9.41406e-220
7.52179e-220
-7.66173e-219
6.20629e-219
-6.05825e-218
4.9696e-218
-4.65054e-217
3.88286e-217
-3.487e-216
2.95779e-216
-2.56137e-215
2.20921e-215
-1.84867e-214
1.62252e-214
-1.31461e-213
1.17513e-213
-9.23509e-213
8.41445e-213
-6.42518e-212
5.97263e-212
-4.43793e-211
4.21224e-211
-3.05039e-210
2.95904e-210
-2.09121e-209
2.07499e-209
-1.43311e-208
1.45596e-208
-9.83944e-208
1.02432e-207
-6.7822e-207
7.24272e-207
-4.70429e-206
5.15704e-206
-3.28966e-205
3.70645e-205
-2.3252e-204
2.69417e-204
-1.66384e-203
1.98546e-203
-1.20899e-202
1.48638e-202
-8.93124e-202
1.13332e-201
-6.73292e-201
8.8194e-201
-5.1829e-200
7.02427e-200
-4.09356e-199
5.73903e-199
-3.31688e-198
4.82481e-198
-2.77414e-197
4.18473e-197
-2.392e-196
3.75708e-196
-2.14271e-195
3.50226e-195
-1.9882e-194
3.40132e-194
-1.92685e-193
3.4524e-193
-1.93749e-192
3.67132e-192
-2.02967e-191
4.0954e-191
-2.17514e-190
4.77735e-190
-2.36282e-189
5.77641e-189
-2.80706e-188
7.14131e-188
-7.3964e-187
9.77888e-187
2.99831e-185
-6.70908e-185
-1.97735e-222
1.09436e-215
3.34657e-216
-3.12754e-248
3.71923e-222
-1.35586e-287
7.8051e-248
0
6.45133e-287
0
0
0
0
0
0
0
0
0
0
0
0
0
0
0
0
0
0
-7.38728e-259
-6.07577e-259
-5.29015e-257
-2.07253e-257
-5.66591e-256
-4.61288e-256
-4.11485e-256
-1.19775e-255
-1.19173e-256
-6.21618e-256
-2.78348e-257
-1.59049e-256
-6.23077e-258
-3.5373e-257
-1.33537e-258
-7.79404e-258
-2.64349e-259
-1.6774e-258
-4.59266e-260
-3.38765e-259
-6.50249e-261
-6.08214e-260
-6.69415e-262
-8.98215e-261
-4.07849e-263
-9.71878e-262
2.35627e-263
1.96802e-261
-9.11479e-224
9.0581e-224
-6.16334e-222
6.12031e-222
-1.65e-220
1.62126e-220
-2.92554e-219
2.85747e-219
-4.01301e-218
3.90878e-218
-4.58277e-217
4.46359e-217
-4.5467e-216
4.43693e-216
-4.0266e-215
3.94414e-215
-3.24481e-214
3.19469e-214
-2.41235e-213
2.39063e-213
-1.67258e-212
1.67032e-212
-1.09068e-211
1.09891e-211
-6.73621e-211
6.85488e-211
-3.96315e-210
4.07794e-210
-2.23249e-209
2.32509e-209
-1.20914e-208
1.2762e-208
-6.26265e-208
6.76907e-208
-3.17262e-207
3.44931e-207
-1.56666e-206
1.72674e-206
-7.62398e-206
8.46017e-206
-3.77268e-205
4.10067e-205
-2.079e-204
2.02883e-204
-1.52719e-203
1.12181e-203
-1.66717e-202
8.29823e-203
-2.37329e-201
9.15274e-202
-3.73849e-200
1.32097e-200
-6.05831e-199
2.11637e-199
-9.89084e-198
3.49986e-198
-1.62055e-196
5.84889e-197
-2.66689e-195
9.84147e-196
-4.4177e-194
1.66833e-194
-7.38245e-193
2.85593e-193
-1.24767e-191
4.94727e-192
-2.13653e-190
8.69488e-191
-3.71589e-189
1.5534e-189
-6.57179e-188
2.82771e-188
-1.18457e-186
5.25291e-187
-2.17674e-185
9.97735e-186
-4.08714e-184
1.93988e-184
-7.83513e-183
3.86654e-183
-1.53751e-181
7.90682e-182
-3.08203e-180
1.66067e-180
-6.33144e-179
3.58452e-179
-1.32839e-177
7.9573e-178
-2.85771e-176
1.81777e-176
-6.27283e-175
4.27464e-175
-1.41078e-173
1.03529e-173
-3.2306e-172
2.58169e-172
-7.53955e-171
6.62842e-171
-1.78383e-169
1.75011e-169
-4.2569e-168
4.74338e-168
-1.02147e-166
1.31448e-166
3.69181e-165
-2.37957e-165
-1.88927e-190
4.36415e-188
8.09705e-189
-7.546e-202
4.73159e-190
-4.11306e-231
2.02593e-201
-9.03097e-263
1.73572e-230
-5.72937e-317
7.0134e-262
4.67129e-317
1.54429e-315
2.07641e-317
3.02646e-316
7.90509e-318
6.4874e-317
3.56828e-318
1.77425e-317
2.19848e-318
8.8537e-318
2.30307e-318
7.14935e-318
1.34964e-317
3.0197e-317
2.55054e-304
3.9274e-304
-5.9578e-259
-5.77526e-259
1.00457e-251
6.78155e-252
5.88703e-250
7.28281e-250
2.93907e-250
1.13769e-249
5.04323e-251
3.72925e-250
6.73657e-252
5.44874e-251
8.85337e-253
6.76426e-252
1.1508e-253
8.63988e-253
1.41747e-254
1.12206e-253
1.55443e-255
1.40787e-254
1.38515e-256
1.59646e-255
8.59339e-258
1.48553e-256
2.61834e-259
9.66049e-258
-2.84347e-215
2.79607e-215
-1.09337e-212
1.0934e-212
-3.67215e-211
3.60703e-211
-6.99231e-210
6.79175e-210
-9.71839e-209
9.37385e-209
-1.09119e-207
1.04897e-207
-1.04526e-206
1.00379e-206
-8.82523e-206
8.48575e-206
-6.7171e-205
6.47695e-205
-4.68104e-204
4.53413e-204
-3.02335e-203
2.94555e-203
-1.82642e-202
1.79229e-202
-1.03974e-201
1.02908e-201
-5.61275e-201
5.60996e-201
-2.88791e-200
2.91886e-200
-1.42263e-199
1.456e-199
-6.67424e-199
6.9901e-199
-3.04549e-198
3.21177e-198
-1.34441e-197
1.44186e-197
-5.75738e-197
6.28895e-197
-2.39742e-196
2.67174e-196
-9.72928e-196
1.10806e-195
-3.85488e-195
4.49528e-195
-1.49386e-194
1.78716e-194
-5.66884e-194
6.97337e-194
-2.10868e-193
2.67396e-193
-7.68624e-193
1.0084e-192
-2.7362e-192
3.73924e-192
-9.35592e-192
1.35846e-191
-2.84546e-191
4.75628e-191
-4.19785e-191
1.48582e-190
6.2611e-190
2.25891e-190
1.27969e-188
-3.48279e-189
1.91978e-187
-7.38262e-188
2.72422e-186
-1.15228e-186
3.82111e-185
-1.70687e-185
5.35103e-184
-2.50751e-184
7.4989e-183
-3.69051e-183
1.0526e-181
-5.45527e-182
1.47963e-180
-8.10679e-181
2.08347e-179
-1.21141e-179
2.93581e-178
-1.82062e-178
4.14018e-177
-2.7514e-177
5.83433e-176
-4.18028e-176
8.22252e-175
-6.38384e-175
1.15929e-173
-9.80177e-174
1.64716e-172
-1.5164e-172
2.39675e-171
-2.37967e-171
3.71532e-170
-3.85773e-170
6.56568e-169
-6.72654e-169
1.41203e-167
-1.35186e-167
3.72978e-166
-3.35484e-166
1.13849e-164
-1.03434e-164
-3.73525e-163
3.75688e-163
2.44479e-178
8.88552e-175
8.9893e-176
1.37942e-185
-8.45931e-178
-6.77316e-203
-4.17107e-185
-6.4885e-214
2.73418e-202
-2.57914e-233
4.31592e-213
2.34899e-234
4.12474e-232
8.12965e-235
1.29432e-233
2.87048e-235
2.29167e-234
1.25744e-235
6.23407e-235
7.44185e-236
2.81082e-235
7.44316e-236
2.15866e-235
3.37226e-235
7.30976e-235
4.10658e-232
6.47576e-232
3.00108e-226
3.38789e-226
5.57499e-222
5.44101e-222
7.61847e-221
1.31716e-220
3.5126e-221
1.79506e-220
4.52841e-222
5.04174e-221
4.24331e-223
5.33967e-222
4.07312e-224
4.55469e-223
4.04194e-225
4.19287e-224
3.90078e-226
4.11874e-225
3.37023e-227
4.02308e-226
2.30567e-228
3.57806e-227
9.88341e-230
2.5503e-228
1.12698e-231
1.14462e-229
-1.03203e-208
1.20857e-208
-4.24759e-207
5.07901e-207
-7.14935e-206
8.84043e-206
-7.4424e-205
9.89288e-205
-5.09058e-204
7.95737e-204
-1.67102e-203
4.52758e-203
1.20662e-202
1.29054e-202
2.78481e-201
-8.32224e-202
3.13434e-200
-1.7495e-200
2.72107e-199
-1.8204e-199
2.01997e-198
-1.47812e-198
1.33942e-197
-1.03605e-197
8.12991e-197
-6.53937e-197
4.58698e-196
-3.80423e-196
2.43318e-195
-2.07005e-195
1.21878e-194
-1.0648e-194
5.84262e-194
-5.19885e-194
2.68777e-193
-2.44072e-193
1.19219e-192
-1.10453e-192
5.11879e-192
-4.83983e-192
2.13524e-191
-2.06125e-191
8.67991e-191
-8.56193e-191
3.44874e-190
-3.47908e-190
1.34268e-189
-1.38683e-189
5.13491e-189
-5.43654e-189
1.93312e-188
-2.1008e-188
7.17914e-188
-8.01904e-188
2.63485e-187
-3.02975e-187
9.57389e-187
-1.13507e-186
3.44872e-186
-4.22383e-186
1.23252e-185
-1.56336e-185
4.3585e-185
-5.75937e-185
1.49675e-184
-2.10631e-184
4.42813e-184
-7.50465e-184
-2.65374e-185
-2.31131e-183
-2.98341e-182
1.44666e-184
-6.62976e-181
1.70464e-181
-1.27272e-179
3.98376e-180
-2.36169e-178
8.07398e-179
-4.29717e-177
1.58747e-177
-7.67143e-176
3.07402e-176
-1.33767e-174
5.86357e-175
-2.26939e-173
1.09815e-173
-3.71353e-172
2.01002e-172
-5.81215e-171
3.57131e-171
-8.55483e-170
6.10128e-170
-1.16057e-168
9.881e-169
-1.39519e-167
1.48447e-167
-1.39385e-166
1.99671e-166
-9.79703e-166
2.25202e-165
-1.69768e-165
1.81767e-164
4.39474e-165
7.73539e-164
-3.76862e-164
3.15725e-164
3.97803e-161
-1.40576e-155
3.37241e-170
-5.74946e-161
-2.11237e-162
2.09055e-172
-1.71282e-169
-4.04211e-185
-7.54343e-172
-2.89401e-189
1.68226e-184
-9.43041e-197
1.79271e-188
-1.49321e-200
1.16796e-195
7.14667e-200
1.29853e-198
5.13892e-200
4.15169e-199
3.57073e-200
1.78752e-199
3.17989e-200
1.17064e-199
4.69233e-200
1.32115e-199
2.1285e-199
4.59653e-199
5.82594e-198
9.63848e-198
3.31775e-196
4.34757e-196
6.26449e-195
8.1317e-195
1.44908e-194
3.33115e-194
4.54168e-195
3.09489e-194
3.45706e-196
6.59161e-195
1.73167e-197
4.19236e-196
9.88921e-199
1.91036e-197
6.39601e-200
1.04106e-198
4.19965e-201
6.61995e-200
2.46208e-202
4.36531e-201
1.0606e-203
2.60954e-202
2.06315e-205
1.15889e-203
-1.25715e-204
1.46286e-204
-1.28052e-202
1.22982e-202
-3.42281e-201
3.18614e-201
-5.55583e-200
5.04884e-200
-6.74019e-199
6.01341e-199
-6.69372e-198
5.89494e-198
-5.72074e-197
4.99235e-197
-4.33326e-196
3.761e-196
-2.96853e-195
2.56923e-195
-1.8645e-194
1.61345e-194
-1.0855e-193
9.40992e-194
-5.90435e-193
5.13843e-193
-3.02185e-192
2.64435e-192
-1.46284e-191
1.2897e-191
-6.70213e-191
5.98898e-191
-2.94201e-190
2.64699e-190
-1.23761e-189
1.1271e-189
-5.00396e-189
4.62114e-189
-1.95051e-188
1.82961e-188
-7.34749e-188
7.01402e-188
-2.68104e-187
2.60959e-187
-9.49382e-187
9.44293e-187
-3.26794e-186
3.32908e-186
-1.09477e-185
1.14525e-185
-3.57234e-185
3.84864e-185
-1.13578e-184
1.26441e-184
-3.51747e-184
4.06186e-184
-1.06062e-183
1.27553e-183
-3.12107e-183
3.91326e-183
-9.17489e-183
1.17568e-182
-3.06265e-182
3.54031e-182
-1.67507e-181
1.21464e-181
-1.74239e-180
6.85049e-181
-2.38523e-179
7.37241e-180
-3.44069e-178
1.04765e-178
-4.97403e-177
1.57397e-177
-7.15427e-176
2.37812e-176
-1.02231e-174
3.58701e-175
-1.45189e-173
5.39561e-174
-2.04706e-172
8.09478e-173
-2.86783e-171
1.21085e-171
-3.98797e-170
1.80644e-170
-5.52048e-169
2.68883e-169
-7.61499e-168
4.00048e-168
-1.05538e-166
5.96867e-167
-1.48103e-165
8.98922e-166
-2.15295e-164
1.38184e-164
-3.35846e-163
2.21291e-163
-6.03792e-162
3.84177e-162
-1.31408e-160
7.74457e-161
-3.14583e-159
1.9163e-159
-5.76837e-158
5.4895e-158
-2.24177e-155
2.236e-155
-1.66985e-152
1.66741e-152
2.38432e-149
-2.04954e-149
8.70381e-163
-4.55272e-151
5.17292e-151
3.72483e-164
-7.2356e-162
2.17288e-179
-1.70047e-163
1.69354e-180
-9.8829e-179
6.8176e-184
-1.039e-179
1.00278e-187
-7.44546e-183
-2.09049e-187
-4.38487e-186
-1.56075e-187
-1.2999e-186
-1.11323e-187
-5.69422e-187
-9.80274e-188
-3.62234e-187
-1.30859e-187
-3.70299e-187
-3.83742e-187
-8.50946e-187
-3.66389e-186
-6.50513e-186
-6.28189e-185
-9.56594e-185
8.26547e-184
1.37165e-183
1.35992e-182
4.07588e-182
5.17085e-183
4.90392e-182
1.98318e-184
9.70832e-183
2.18002e-186
2.79761e-184
4.68541e-188
2.6624e-186
1.49997e-189
5.26348e-188
5.39373e-191
1.63487e-189
1.68404e-192
5.8413e-191
2.93761e-194
1.8427e-192
-6.31522e-203
3.26143e-194
-1.30876e-200
1.24973e-200
-4.30765e-199
3.97702e-199
-7.77085e-198
6.96275e-198
-9.97194e-197
8.70694e-197
-1.02057e-195
8.72975e-196
-8.86556e-195
7.45986e-195
-6.77474e-194
5.63094e-194
-4.6627e-193
3.83975e-193
-2.93467e-192
2.40189e-192
-1.70914e-191
1.39345e-191
-9.28692e-191
7.56162e-191
-4.74285e-190
3.86374e-190
-2.28861e-189
1.86957e-189
-1.04695e-188
8.60659e-189
-4.57305e-188
3.77807e-188
-1.91277e-187
1.59265e-187
-7.68493e-187
6.46078e-187
-2.97528e-186
2.52967e-186
-1.11296e-185
9.58756e-186
-4.03307e-185
3.52625e-185
-1.41892e-184
1.26165e-184
-4.85707e-184
4.40045e-184
-1.62057e-183
1.49924e-183
-5.27906e-183
4.99804e-183
-1.68123e-182
1.63296e-182
-5.24032e-182
5.23527e-182
-1.59984e-181
1.64875e-181
-4.78548e-181
5.10392e-181
-1.40235e-180
1.55355e-180
-4.02417e-180
4.64864e-180
-1.13226e-179
1.36684e-179
-3.17171e-179
3.95385e-179
-9.68702e-179
1.14256e-178
-4.41803e-178
3.61195e-178
-3.9151e-177
1.71087e-177
-4.95283e-176
1.58001e-176
-6.76067e-175
2.0902e-175
-9.25838e-174
2.99453e-174
-1.25603e-172
4.31938e-173
-1.6866e-171
6.19728e-172
-2.23859e-170
8.83421e-171
-2.9385e-169
1.25066e-169
-3.80713e-168
1.75834e-168
-4.87708e-167
2.45409e-167
-6.1725e-166
3.40263e-166
-7.76592e-165
4.69501e-165
-9.7532e-164
6.47642e-164
-1.24186e-162
9.00176e-163
-1.63627e-161
1.27761e-161
-2.41599e-160
1.89986e-160
-5.14768e-159
3.19833e-159
-7.29611e-158
8.5431e-158
-3.99927e-155
3.95349e-155
-1.37676e-152
3.06334e-152
2.05603e-149
-1.15831e-148
-5.367e-161
-2.2487e-148
2.77003e-148
-1.27908e-160
9.60376e-160
-1.02793e-160
7.96175e-160
-4.2008e-162
-3.70102e-161
-8.5644e-164
-3.82198e-161
-1.27558e-167
-1.91436e-162
1.68957e-167
-1.0001e-165
4.47777e-169
3.90987e-168
2.19854e-170
1.16225e-169
4.46697e-171
1.69107e-170
2.704e-171
7.8549e-171
1.40928e-170
3.27762e-170
1.32504e-169
1.0877e-169
1.28709e-169
2.28661e-169
1.3962e-169
2.9163e-169
7.15068e-170
2.80774e-169
7.82735e-171
1.14248e-169
-2.17546e-186
1.03682e-170
-5.13723e-188
3.91864e-184
-6.63688e-190
3.18269e-186
-3.66472e-192
6.00193e-188
6.74841e-192
1.82977e-189
1.10712e-193
7.24087e-191
-3.62206e-196
2.16434e-192
-6.42895e-199
3.57478e-194
-2.28605e-197
2.09197e-197
-4.51745e-196
4.01382e-196
-6.15793e-195
5.31575e-195
-6.5235e-194
5.48793e-194
-5.76489e-193
4.74369e-193
-4.43787e-192
3.58498e-192
-3.0594e-191
2.43404e-191
-1.92349e-190
1.51158e-190
-1.11719e-189
8.69397e-190
-6.04948e-189
4.67409e-189
-3.07715e-188
2.36551e-188
-1.47839e-187
1.13351e-187
-6.74687e-187
5.1668e-187
-2.93238e-186
2.25054e-186
-1.21993e-185
9.39102e-186
-4.87283e-185
3.76987e-185
-1.87487e-184
1.46023e-184
-6.96757e-184
5.47341e-184
-2.50782e-183
1.99049e-183
-8.76281e-183
7.04099e-183
-2.97946e-182
2.42807e-182
-9.87812e-182
8.18108e-182
-3.19976e-181
2.69862e-181
-1.01447e-180
8.73153e-181
-3.15317e-180
2.77579e-180
-9.62233e-180
8.68416e-180
-2.88656e-179
2.67734e-179
-8.52148e-179
8.14423e-179
-2.47749e-178
2.44673e-178
-7.09684e-178
7.26509e-178
-2.00254e-177
2.13287e-177
-5.55847e-177
6.18972e-177
-1.51153e-176
1.77305e-176
-3.99071e-176
4.99299e-176
-1.01572e-175
1.36983e-175
-2.7635e-175
3.63554e-175
-1.49325e-174
1.03512e-174
-1.98234e-173
5.87422e-174
-3.1024e-172
8.22185e-173
-4.58634e-171
1.36176e-171
-6.39193e-170
2.13996e-170
-8.50997e-169
3.18345e-169
-1.0934e-167
4.54799e-168
-1.35956e-166
6.2998e-167
-1.64201e-165
8.50104e-166
-1.92278e-164
1.12043e-164
-2.18877e-163
1.44404e-163
-2.41078e-162
1.82185e-162
-2.56039e-161
2.24932e-161
-2.54799e-160
2.70275e-160
-2.16009e-159
3.09142e-159
-1.24444e-158
3.13158e-158
-5.46475e-156
5.13594e-156
2.34547e-152
3.94271e-153
1.37635e-150
1.81584e-149
-8.37893e-151
-1.83462e-146
2.26065e-146
1.10911e-155
-8.80257e-150
-2.20806e-156
-1.07235e-154
-8.84362e-159
-1.11719e-155
6.92835e-158
-7.73098e-157
3.47928e-158
-7.66694e-157
-4.55028e-160
1.46795e-158
-3.64672e-160
-3.3952e-159
-9.04091e-161
-5.0045e-160
-1.55641e-160
-5.03271e-160
-1.59844e-159
2.1998e-159
-1.19207e-157
-7.58612e-158
-6.99012e-156
-3.23674e-155
-4.56202e-157
-9.53519e-157
-2.38769e-157
-6.29133e-157
-9.9421e-158
-5.26873e-157
-5.01907e-159
-1.47522e-157
-1.3002e-185
-4.47938e-159
-1.37107e-187
5.43935e-184
-2.32862e-189
3.73353e-186
-5.67949e-191
6.70758e-188
-1.90654e-192
1.99859e-189
-6.22941e-194
7.84588e-191
-1.47421e-195
2.33554e-192
-6.69914e-196
3.90939e-194
-1.32663e-194
1.17528e-194
-1.87517e-193
1.61813e-193
-2.04388e-192
1.71594e-192
-1.83139e-191
1.49833e-191
-1.41418e-190
1.12977e-190
-9.71485e-190
7.59759e-190
-6.07019e-189
4.65677e-189
-3.50148e-188
2.64099e-188
-1.8847e-187
1.40076e-187
-9.54137e-187
7.00355e-187
-4.5692e-186
3.321e-186
-2.08556e-185
1.50052e-185
-9.05658e-185
6.50202e-185
-3.76623e-184
2.69644e-184
-1.50404e-183
1.07641e-183
-5.78437e-183
4.14711e-183
-2.14767e-182
1.54597e-182
-7.7173e-182
5.58915e-182
-2.68976e-181
1.96419e-181
-9.11309e-181
6.72411e-181
-3.00748e-180
2.24709e-180
-9.68643e-180
7.34472e-180
-3.05028e-179
2.35251e-179
-9.40693e-179
7.3966e-179
-2.84558e-178
2.28662e-178
-8.45444e-178
6.96057e-178
-2.47021e-177
2.08914e-177
-7.10432e-177
6.18932e-177
-2.01283e-176
1.81171e-176
-5.62021e-176
5.24318e-176
-1.54672e-175
1.50089e-175
-4.19277e-175
4.24951e-175
-1.11746e-174
1.18935e-174
-2.91338e-174
3.2842e-174
-7.32287e-174
8.90283e-174
-1.69192e-173
2.33495e-173
-2.92256e-173
5.64946e-173
2.21572e-173
1.02577e-172
6.37435e-172
-8.20539e-173
3.72207e-171
-2.50106e-171
-7.39045e-171
-1.55366e-170
-5.79804e-169
3.29793e-170
-1.10865e-167
2.77879e-168
-1.636e-166
5.74083e-167
-2.12657e-165
9.20309e-166
-2.53999e-164
1.30958e-164
-2.81789e-163
1.72398e-163
-2.90901e-162
2.12956e-162
-2.73991e-161
2.46985e-161
-2.23985e-160
2.65031e-160
-1.30103e-159
2.49984e-159
-4.15213e-159
1.71085e-158
-2.5007e-157
1.53105e-157
5.73215e-154
9.42079e-155
7.22382e-152
-9.95338e-151
-3.28252e-146
-8.73756e-145
8.993e-145
1.56182e-150
-3.89127e-146
2.40262e-150
-3.22771e-149
5.22712e-151
-2.12556e-149
6.99461e-152
-4.29174e-150
-3.02833e-153
-7.81623e-151
2.34234e-153
8.26394e-152
8.78644e-152
8.83242e-151
1.07299e-151
5.27006e-151
1.02253e-151
2.88802e-151
7.47464e-152
6.72809e-152
7.46405e-152
-2.62441e-154
-4.31844e-152
-1.0442e-151
1.10781e-149
1.82954e-149
5.88619e-149
1.44252e-149
1.34831e-150
1.48864e-149
1.1995e-154
2.69271e-151
-5.18794e-160
1.1994e-154
-8.68741e-171
-2.26764e-158
-4.14844e-189
-9.4002e-169
-1.14085e-190
7.27493e-188
-4.25451e-192
2.14645e-189
-1.34729e-193
8.37384e-191
-1.77848e-194
2.49336e-192
-2.6078e-193
2.73817e-193
-3.57157e-192
3.1214e-192
-3.88715e-191
3.31692e-191
-3.4674e-190
2.88978e-190
-2.63338e-189
2.14529e-189
-1.75861e-188
1.40213e-188
-1.05963e-187
8.27074e-188
-5.86967e-187
4.48607e-187
-3.03269e-186
2.26923e-186
-1.47704e-185
1.08235e-185
-6.83517e-185
4.90948e-185
-3.03392e-184
2.13167e-184
-1.28786e-183
8.93473e-184
-5.26189e-183
3.60259e-183
-2.07374e-182
1.40556e-182
-7.89624e-182
5.3161e-182
-2.90903e-181
1.9519e-181
-1.03823e-180
6.96571e-181
-3.59449e-180
2.41899e-180
-1.20875e-179
8.18425e-180
-3.95372e-179
2.7012e-179
-1.25958e-178
8.70823e-179
-3.9139e-178
2.74592e-178
-1.18772e-177
8.48004e-178
-3.52454e-177
2.56819e-177
-1.02388e-176
7.63637e-177
-2.91484e-176
2.23183e-176
-8.13849e-176
6.41733e-176
-2.2303e-175
1.81685e-175
-6.00137e-175
5.06772e-175
-1.5863e-174
1.39326e-174
-4.11912e-174
3.77645e-174
-1.05097e-173
1.00932e-173
-2.63485e-173
2.66004e-173
-6.49175e-173
6.91365e-173
-1.57026e-172
1.77217e-172
-3.70219e-172
4.47606e-172
-8.19042e-172
1.10598e-171
-1.3739e-171
2.57397e-171
1.75493e-171
4.56005e-171
4.63455e-170
-6.17682e-171
4.44487e-169
-1.73755e-169
3.49367e-168
-1.78329e-168
2.37585e-167
-1.50794e-167
1.27363e-166
-1.10928e-166
2.755e-166
-6.47541e-166
-5.50913e-165
-1.53581e-165
-1.14183e-163
3.39667e-164
-1.44212e-162
7.85732e-163
-1.42184e-161
1.1208e-161
-1.08849e-160
1.26405e-160
-5.36367e-160
1.12606e-159
-1.00857e-159
6.58349e-159
-2.45321e-158
1.61253e-158
1.20781e-155