/*--------------------------------*- C++ -*----------------------------------*\
  =========                 |
  \\      /  F ield         | OpenFOAM: The Open Source CFD Toolbox
   \\    /   O peration     | Website:  https://openfoam.org
    \\  /    A nd           | Version:  7
     \\/     M anipulation  |
\*---------------------------------------------------------------------------*/
FoamFile
{
    version     2.0;
    format      ascii;
    class       volScalarField;
    location    "15";
    object      epss;
}
// * * * * * * * * * * * * * * * * * * * * * * * * * * * * * * * * * * * * * //

dimensions      [0 0 0 0 0 0 0];

internalField   nonuniform List<scalar> 
49920
(
0.0159485
0.317781
0.658758
0.592118
0.595651
0.524615
0.570919
0.697988
0.648333
0.565988
0.591138
0.649157
0.602801
0.685628
0.531265
0.0962716
0.00462853
3.66239e-05
0
0
0
0
0
0
0
0
0
0
0
0
0
0
0
0
0
0
0
0
0
0
0
0
0
0
0
0
0
0
0
0
0
0
0
0
0
0
0
0
0
0
0
0
0
0
0
0
0
0
0
0
0
0
0
0
0
0
0
0
0
0
0.0164991
0.0608438
0.197651
0.54509
0.550556
0.408593
0.597808
0.438766
0.580041
0.544253
0.516147
0.566262
0.626871
0.437489
0.140455
0.033261
0.00361518
4.73167e-06
0
0
0
0
0
0
0
0
0
0
0
0
0
0
0
0
0
0
0
0
0
0
0
0
0
0
0
0
0
0
0
0
0
0
0
0
0
0
0
0
0
0
0
0
0
0
0
0
0
0
0
0
0
0
0
0
0
0
0
0
0
0
0.00707254
0.0100223
0.0414041
0.131123
0.135754
0.0965677
0.140646
0.10357
0.136924
0.406647
0.413847
0.402034
0.263313
0.108861
0.0356648
0.00991867
0.00218292
0.000226365
0
0
0
0
0
0
0
0
0
0
0
0
0
0
0
0
0
0
0
0
0
0
0
0
0
0
0
0
0
0
0
0
0
0
0
0
0
0
0
0
0
0
0
0
0
0
0
0
0
0
0
0
0
0
0
0
0
0
0
0
0
0
0.00243581
0.001177
0.00944754
0.0290174
0.0328371
0.0234001
0.0342003
0.0253521
0.0349712
0.0779184
0.0969642
0.0979513
0.0654667
0.0398381
0.00899504
0.00243626
0.000821528
0.000232767
3.59848e-05
0
0
0
0
0
0
0
0
0
0
0
0
0
0
0
0
0
0
0
0
0
0
0
0
0
0
0
0
0
0
0
0
0
0
0
0
0
0
0
0
0
0
0
0
0
0
0
0
0
0
0
0
0
0
0
1.65975e-88
1.7154e-87
6.43587e-90
0
0
0
0.000792814
5.15017e-06
0.0022116
0.00646491
0.00889676
0.0061171
0.00828348
0.00626972
0.00877098
0.0114665
0.0281524
0.0229061
0.0134168
0.00693411
0.0023349
0.000722963
0.000302458
0.000159818
6.88489e-05
1.93443e-05
2.00519e-06
0
0
0
0
0
0
0
0
0
0
0
0
0
0
0
0
0
0
0
0
0
0
0
0
0
0
0
0
0
0
0
0
0
0
0
0
0
0
0
0
0
0
0
0
0
0
0
0
0
0
0
0
4.35299e-91
4.95849e-88
0
0
1.13751e-82
2.18483e-85
0
0.00027571
0
0.00047805
0.0013019
0.00236905
0.00179174
0.00209948
0.00188603
0.00262337
0.0010706
0.00542711
0.00331187
0.00194863
0.000934281
0.000527661
0.000274769
0.000151454
0.000105702
7.31619e-05
4.01024e-05
1.57157e-05
3.99224e-06
7.61327e-08
0
0
0
0
0
0
0
0
0
0
0
0
0
0
0
0
0
0
0
0
0
0
0
0
0
0
0
0
0
0
0
0
0
0
0
0
0
0
0
0
0
0
0
0
0
0
0
0
0
0
4.49786e-90
0
2.45348e-84
0
5.11781e-83
2.35482e-85
0
0.000122183
1.48554e-06
0.000110848
0.000203249
0.000571475
0.000596777
0.000596595
0.000651743
0.000915479
6.28898e-05
0.000612794
0.000374994
0.000101598
0
3.60276e-05
7.77191e-05
8.18632e-05
7.40394e-05
6.40358e-05
4.84728e-05
2.97537e-05
1.42244e-05
4.83947e-06
9.18666e-07
0
0
0
0
0
0
0
0
0
0
0
0
0
0
0
0
0
0
0
0
0
0
0
0
0
0
0
0
0
0
0
0
0
0
0
0
0
0
0
0
0
0
0
0
0
0
0
0
0
0
0
0
1.15937e-81
2.29251e-83
0
2.7616e-57
7.342e-05
4.83102e-06
4.75873e-05
2.2535e-05
0.000102014
0.000202775
0.000213591
0.000257185
0.00037759
0.000117328
0
0
0
0
0
9.21833e-06
2.80564e-05
4.06904e-05
4.57353e-05
4.36938e-05
3.51919e-05
2.34618e-05
1.26788e-05
5.30964e-06
1.5563e-06
1.62739e-07
0
0
0
0
0
0
0
0
0
0
0
0
0
0
0
0
0
0
0
0
0
0
0
0
0
0
0
0
0
0
0
0
0
0
0
0
0
0
0
0
0
0
0
0
5.72046e-82
1.25455e-81
2.01797e-81
2.55906e-81
3.01741e-81
3.19361e-81
1.49322e-81
1.42687e-83
0
6.6387e-56
5.06296e-05
1.05791e-05
4.09112e-05
1.92709e-05
2.42515e-06
5.78237e-05
9.2882e-05
0.000122351
0.000182045
0.000143974
1.21287e-05
0
0
1.86612e-07
0
0
4.29249e-06
1.37347e-05
2.31748e-05
2.91614e-05
2.99061e-05
2.55743e-05
1.83254e-05
1.09249e-05
5.29674e-06
1.93741e-06
4.49398e-07
0
0
0
0
0
0
0
0
0
0
0
0
0
0
0
0
0
0
0
0
0
0
0
0
0
0
0
0
0
0
0
0
0
0
0
0
0
0
0
0
0
0
4.66156e-82
0
0
0
0
0
0
0
0
9.58822e-57
2.17188e-55
3.40205e-05
1.27789e-05
3.99952e-05
3.33786e-05
1.78375e-06
1.28154e-05
4.25248e-05
6.85509e-05
0.00010197
0.000121452
6.42926e-05
1.73215e-05
4.76053e-07
0
7.08841e-07
3.77879e-07
0
1.34336e-06
6.27506e-06
1.2731e-05
1.78762e-05
1.97592e-05
1.80554e-05
1.39064e-05
9.05706e-06
4.91568e-06
2.13214e-06
6.57542e-07
8.42753e-08
0
0
0
0
0
0
0
0
0
0
0
0
0
0
0
0
0
0
0
0
0
0
0
0
0
0
0
0
0
0
0
0
0
0
0
0
0
0
0
5.90979e-82
0
6.47327e-66
1.89217e-66
2.3496e-68
0
0
8.13481e-59
0
0
5.06048e-56
3.94599e-55
2.09493e-05
1.13438e-05
3.66737e-05
3.9706e-05
1.41186e-05
3.85511e-06
1.90567e-05
4.12782e-05
6.41689e-05
9.03047e-05
8.02887e-05
4.18173e-05
1.13981e-05
5.27721e-07
1.36512e-06
4.52381e-06
4.79651e-06
2.59454e-06
1.41462e-06
3.00395e-06
6.61955e-06
1.03429e-05
1.24715e-05
1.23118e-05
1.0244e-05
7.25552e-06
4.34259e-06
2.1308e-06
7.82224e-07
1.68862e-07
0
0
0
0
0
0
0
0
0
0
0
0
0
0
0
0
0
0
0
0
0
0
0
0
0
0
0
0
0
0
0
0
0
0
1.32284e-84
1.15208e-83
2.92285e-83
2.59829e-82
2.12877e-82
0
0
0
0
9.47323e-61
1.46406e-59
2.56512e-58
2.86133e-57
2.39392e-56
1.52387e-55
0
1.17887e-05
9.06718e-06
3.16265e-05
3.8798e-05
2.09009e-05
4.60423e-06
8.42775e-06
2.4867e-05
4.2696e-05
6.40982e-05
7.27074e-05
5.43759e-05
2.54624e-05
6.93504e-06
4.21254e-06
9.90048e-06
1.43908e-05
1.34917e-05
9.03087e-06
4.79645e-06
3.0739e-06
3.89331e-06
5.92785e-06
7.66934e-06
8.19592e-06
7.37869e-06
5.66181e-06
3.68887e-06
1.98451e-06
8.19482e-07
2.16132e-07
5.71723e-09
0
0
0
0
0
0
0
0
0
0
0
0
0
0
0
0
0
0
0
0
0
0
0
0
0
0
0
0
0
0
0
0
0
0
0
0
0
2.72201e-61
7.51564e-61
3.74541e-60
1.68835e-59
2.84833e-59
3.61861e-59
3.45164e-58
1.96676e-57
1.69675e-56
0
4.26812e-45
6.16917e-06
7.81374e-06
2.65772e-05
3.39881e-05
2.18618e-05
6.35392e-06
3.99165e-06
1.44555e-05
2.84425e-05
4.44036e-05
5.71328e-05
5.36582e-05
3.46226e-05
1.55532e-05
9.05417e-06
1.46721e-05
2.34024e-05
2.71997e-05
2.40897e-05
1.70016e-05
9.95115e-06
5.39419e-06
3.71605e-06
3.97789e-06
4.88676e-06
5.45647e-06
5.25242e-06
4.33162e-06
3.03323e-06
1.75225e-06
7.82069e-07
2.25738e-07
1.49923e-08
0
0
0
0
0
0
0
0
0
0
0
0
0
0
0
0
0
0
0
0
0
0
0
0
0
0
0
0
7.35529e-90
0
2.28645e-71
0
0
0
2.90199e-64
0
1.30575e-60
3.13696e-60
4.50466e-60
9.09528e-60
6.73791e-59
4.5564e-59
3.64296e-60
0
0
0
0
3.06798e-06
7.67424e-06
2.22916e-05
2.77455e-05
1.9224e-05
6.78302e-06
2.20711e-06
7.96391e-06
1.83721e-05
3.01552e-05
4.17131e-05
4.55529e-05
3.66901e-05
2.2078e-05
1.39035e-05
1.74245e-05
2.79252e-05
3.68101e-05
3.86078e-05
3.32933e-05
2.42928e-05
1.53739e-05
8.80615e-06
5.11649e-06
3.70133e-06
3.55371e-06
3.76036e-06
3.73427e-06
3.26034e-06
2.42462e-06
1.48118e-06
6.95446e-07
2.1118e-07
1.84119e-08
0
0
0
0
0
0
0
0
0
0
0
0
0
0
0
0
0
0
0
0
0
0
0
0
0
0
0
0
0
0
2.64122e-70
3.59692e-70
0
6.0022e-63
8.85883e-63
6.35325e-61
0
0
0
8.033e-59
0
0
4.3063e-41
1.62619e-41
0
0
1.62436e-06
7.96206e-06
1.86552e-05
2.14337e-05
1.48924e-05
5.74652e-06
1.29358e-06
4.10813e-06
1.14408e-05
2.02364e-05
2.95187e-05
3.57154e-05
3.38112e-05
2.49563e-05
1.72426e-05
1.79142e-05
2.70401e-05
3.85715e-05
4.58131e-05
4.56663e-05
3.91831e-05
2.95762e-05
1.99872e-05
1.233e-05
7.21056e-06
4.36607e-06
3.13548e-06
2.7793e-06
2.67056e-06
2.412e-06
1.88481e-06
1.20474e-06
5.85176e-07
1.82104e-07
1.7238e-08
0
0
0
0
0
0
0
0
0
0
0
0
0
0
0
0
0
0
0
0
0
0
0
0
5.62633e-88
2.48921e-88
4.70007e-88
0
3.44012e-69
1.01792e-69
0
0
7.60356e-63
0
0
2.25715e-52
1.52517e-52
0
0
4.90526e-43
1.35341e-41
0
7.32896e-41
3.90362e-40
1.86235e-39
1.32842e-06
8.12029e-06
1.53231e-05
1.56707e-05
1.02382e-05
3.87903e-06
6.00557e-07
2.0451e-06
7.16156e-06
1.38838e-05
2.12068e-05
2.74497e-05
2.91762e-05
2.50434e-05
1.89233e-05
1.70631e-05
2.25712e-05
3.31492e-05
4.3414e-05
4.87757e-05
4.7681e-05
4.14017e-05
3.24855e-05
2.33069e-05
1.53904e-05
9.40864e-06
5.4449e-06
3.22238e-06
2.24373e-06
1.9203e-06
1.73927e-06
1.41752e-06
9.43276e-07
4.70074e-07
1.47668e-07
1.40268e-08
0
0
0
0
0
0
0
0
0
0
0
0
0
0
0
0
0
0
0
0
0
0
0
0
1.79453e-87
0
9.20126e-69
5.33824e-69
0
1.80785e-65
0
0
1.84007e-50
3.55049e-50
9.2347e-51
0
4.07929e-44
5.90721e-42
2.83536e-41
2.65343e-41
2.65788e-39
2.08157e-40
5.62221e-40
7.43974e-39
1.75047e-06
7.89979e-06
1.21126e-05
1.07192e-05
6.13393e-06
1.9658e-06
1.40168e-07
1.31716e-06
5.17431e-06
1.05574e-05
1.64905e-05
2.19979e-05
2.50782e-05
2.39348e-05
1.96092e-05
1.61171e-05
1.73869e-05
2.41945e-05
3.38369e-05
4.22494e-05
4.6436e-05
4.55785e-05
4.06544e-05
3.33903e-05
2.53969e-05
1.78301e-05
1.14296e-05
6.62408e-06
3.53874e-06
1.9556e-06
1.37009e-06
1.19623e-06
1.01712e-06
7.0826e-07
3.63702e-07
1.16702e-07
1.25467e-08
0
0
0
0
0
0
0
0
0
0
0
0
0
0
0
0
0
0
0
0
0
0
0
0
0
5.19739e-68
0
9.85301e-65
0
3.53948e-51
0
1.65653e-49
7.11493e-50
0
0
6.11993e-43
0
0
0
0
0
9.23619e-39
2.42291e-38
2.41956e-06
7.22856e-06
9.04462e-06
6.70784e-06
3.04043e-06
6.21864e-07
1.85948e-07
1.73357e-06
5.12287e-06
9.73631e-06
1.47212e-05
1.93343e-05
2.24911e-05
2.27962e-05
1.99393e-05
1.58179e-05
1.36483e-05
1.57237e-05
2.18952e-05
2.98843e-05
3.68278e-05
4.07318e-05
4.10074e-05
3.8138e-05
3.30402e-05
2.66311e-05
1.97425e-05
1.31882e-05
7.73568e-06
3.90941e-06
1.77763e-06
9.3611e-07
7.45776e-07
6.76351e-07
5.05779e-07
2.72248e-07
9.05448e-08
1.06852e-08
0
0
0
0
0
0
0
0
0
0
0
0
0
0
0
0
0
0
0
0
0
0
0
0
0
1.61935e-65
0
1.1941e-50
0
3.76267e-50
0
0
2.34279e-44
0
0
4.01807e-36
2.04776e-35
3.35258e-35
5.50353e-36
2.46141e-37
0
1.68305e-39
2.94233e-06
6.14621e-06
6.2514e-06
3.70417e-06
1.12553e-06
1.86049e-07
9.80765e-07
3.17783e-06
6.58197e-06
1.07778e-05
1.50494e-05
1.87684e-05
2.13674e-05
2.20377e-05
2.01314e-05
1.61435e-05
1.20169e-05
1.01456e-05
1.18981e-05
1.68908e-05
2.3422e-05
2.95192e-05
3.37854e-05
3.56332e-05
3.50343e-05
3.21889e-05
2.74188e-05
2.12832e-05
1.4677e-05
8.69085e-06
4.22643e-06
1.62132e-06
5.6532e-07
3.62503e-07
3.82032e-07
3.26318e-07
1.88986e-07
6.59105e-08
8.94303e-09
0
0
0
0
0
0
0
0
0
0
0
0
0
0
0
0
0
0
0
0
0
0
1.37589e-68
0
0
1.83103e-52
2.67207e-52
1.65807e-49
0
5.75139e-45
3.73561e-45
0
1.33999e-40
0
0
0
0
4.10052e-35
1.08976e-35
5.5122e-38
0
3.11399e-06
4.79602e-06
3.89831e-06
1.72698e-06
3.73102e-07
7.36171e-07
2.57681e-06
5.43388e-06
8.99987e-06
1.28824e-05
1.64885e-05
1.93125e-05
2.10816e-05
2.14795e-05
2.00241e-05
1.65616e-05
1.19017e-05
7.77001e-06
5.92468e-06
7.19416e-06
1.1181e-05
1.66812e-05
2.23682e-05
2.72407e-05
3.06598e-05
3.21605e-05
3.13465e-05
2.80392e-05
2.25665e-05
1.59053e-05
9.44475e-06
4.43048e-06
1.4369e-06
2.33465e-07
4.66347e-08
1.45111e-07
1.86911e-07
1.2813e-07
4.98794e-08
8.34221e-09
0
0
0
0
0
0
0
0
0
0
0
0
0
0
0
0
0
0
0
0
0
1.70007e-67
1.62215e-67
0
5.75022e-53
0
3.02456e-49
0
1.54582e-44
9.96537e-47
0
3.20135e-40
0
4.71564e-35
2.58004e-34
1.69367e-34
0
1.59291e-36
4.84478e-37
9.57782e-40
2.90499e-06
3.38757e-06
2.13787e-06
7.47703e-07
6.51698e-07
2.13834e-06
4.78824e-06
8.1062e-06
1.16995e-05
1.51618e-05
1.80255e-05
1.99392e-05
2.0816e-05
2.06634e-05
1.93009e-05
1.64455e-05
1.22091e-05
7.486e-06
3.73427e-06
2.18366e-06
3.22691e-06
6.48994e-06
1.11957e-05
1.65604e-05
2.19288e-05
2.66411e-05
2.98792e-05
3.07457e-05
2.86295e-05
2.36587e-05
1.68895e-05
9.98342e-06
4.49083e-06
1.21709e-06
1.67178e-08
0
8.93118e-08
1.26622e-07
8.97114e-08
3.55843e-08
5.97612e-09
0
0
0
0
0
0
0
0
0
0
0
0
0
0
0
0
0
0
0
0
4.98034e-67
0
0
0
3.03045e-49
3.74135e-49
0
0
2.22633e-44
0
3.12009e-40
0
0
0
2.38579e-34
4.50379e-34
6.25127e-35
0
0
2.40207e-06
2.14183e-06
1.07747e-06
6.81024e-07
1.73924e-06
4.09312e-06
7.22578e-06
1.06527e-05
1.3963e-05
1.67824e-05
1.87891e-05
1.98018e-05
1.98617e-05
1.91436e-05
1.77081e-05
1.53833e-05
1.20035e-05
7.83221e-06
3.7598e-06
9.56097e-07
1.38892e-07
1.11662e-06
3.60346e-06
7.3968e-06
1.23012e-05
1.79562e-05
2.36507e-05
2.82565e-05
3.04505e-05
2.92489e-05
2.46048e-05
1.76486e-05
1.02959e-05
4.42277e-06
1.0706e-06
0
0
6.14116e-08
8.66453e-08
6.06514e-08
2.32898e-08
3.50786e-09
0
0
0
0
0
0
0
0
0
0
0
0
0
0
0
0
0
0
0
0
7.48073e-66
0
0
6.17767e-49
0
0
1.19695e-42
1.05771e-42
0
0
1.26664e-25
7.93089e-27
0
0
0
0
0
0
1.76232e-06
1.24922e-06
7.48907e-07
1.36549e-06
3.32766e-06
6.18575e-06
9.38911e-06
1.25029e-05
1.51759e-05
1.71354e-05
1.82211e-05
1.84095e-05
1.78251e-05
1.66946e-05
1.51953e-05
1.33035e-05
1.08379e-05
7.73607e-06
4.36758e-06
1.55584e-06
3.6008e-08
0
4.37823e-07
1.94481e-06
4.86039e-06
9.32825e-06
1.51484e-05
2.15703e-05
2.7233e-05
3.04591e-05
2.99288e-05
2.54268e-05
1.8171e-05
1.03874e-05
4.28198e-06
9.49513e-07
0
0
4.1957e-08
5.76689e-08
3.86474e-08
1.36546e-08
1.58095e-09
0
0
0
0
0
0
0
0
0
0
0
0
0
0
0
0
0
0
0
4.04253e-65
0
0
0
4.82211e-47
0
4.04107e-42
0
0
0
4.81547e-26
0
1.38553e-21
0
2.93266e-23
1.20243e-23
1.68413e-26
0
1.1794e-06
8.33768e-07
1.08404e-06
2.55118e-06
5.03953e-06
7.95867e-06
1.07948e-05
1.32098e-05
1.49769e-05
1.59708e-05
1.61849e-05
1.57133e-05
1.47187e-05
1.34067e-05
1.19629e-05
1.04516e-05
8.77385e-06
6.78078e-06
4.51314e-06
2.35668e-06
8.04223e-07
3.83533e-08
0
7.44344e-08
9.55612e-07
3.25005e-06
7.35684e-06
1.32549e-05
2.0223e-05
2.6727e-05
3.07587e-05
3.06564e-05
2.60695e-05
1.83898e-05
1.02044e-05
3.96796e-06
7.61986e-07
0
0
2.78292e-08
3.64266e-08
2.27053e-08
7.05801e-09
5.13022e-10
0
0
0
0
0
0
0
0
0
0
0
0
0
0
0
0
0
0
2.24254e-65
0
0
0
1.19336e-46
0
0
3.03086e-40
2.1037e-40
0
2.28198e-27
0
9.86194e-21
3.32538e-20
2.97716e-21
0
0
0
8.1959e-07
9.23189e-07
1.90804e-06
3.91272e-06
6.47643e-06
9.0091e-06
1.11099e-05
1.25812e-05
1.33511e-05
1.34436e-05
1.29668e-05
1.20747e-05
1.09247e-05
9.66368e-06
8.42335e-06
7.28299e-06
6.21954e-06
5.1178e-06
3.88068e-06
2.56344e-06
1.36819e-06
4.79674e-07
4.93833e-08
0
0
4.87299e-07
2.29635e-06
6.08139e-06
1.20312e-05
1.94717e-05
2.66797e-05
3.12827e-05
3.12993e-05
2.63431e-05
1.81087e-05
9.58725e-06
3.40837e-06
5.05741e-07
0
0
1.83319e-08
2.25894e-08
1.27854e-08
3.27122e-09
6.32557e-11
0
0
0
0
0
0
0
0
0
0
0
0
0
0
0
0
0
0
3.11223e-55
2.30224e-55
0
1.35625e-46
8.29226e-48
0
2.70012e-39
1.44541e-39
0
0
5.60727e-22
0
5.6558e-20
0
0
0
3.78104e-29
7.81407e-07
1.43721e-06
2.95736e-06
5.09639e-06
7.29722e-06
9.09113e-06
1.02515e-05
1.07415e-05
1.06309e-05
1.0051e-05
9.16356e-06
8.12397e-06
7.04966e-06
6.01901e-06
5.09233e-06
4.31885e-06
3.71004e-06
3.20938e-06
2.70695e-06
2.11031e-06
1.42696e-06
7.66103e-07
2.7579e-07
5.21495e-08
0
0
2.40042e-07
1.70019e-06
5.27309e-06
1.13386e-05
1.92266e-05
2.69705e-05
3.18122e-05
3.15315e-05
2.58931e-05
1.70585e-05
8.41602e-06
2.60279e-06
2.23941e-07
0
0
1.43021e-08
1.46394e-08
6.51642e-09
1.07566e-09
0
0
0
0
0
0
0
0
0
0
0
0
0
0
0
0
0
0
1.42312e-54
6.95915e-57
0
3.35125e-47
0
0
5.27562e-39
0
0
0
0
6.01528e-20
0
1.32171e-19
1.41002e-20
0
0
1.07242e-06
2.19836e-06
3.92747e-06
5.79428e-06
7.30274e-06
8.18743e-06
8.41859e-06
8.10166e-06
7.39706e-06
6.47587e-06
5.49072e-06
4.55324e-06
3.72351e-06
3.01933e-06
2.4428e-06
2.00299e-06
1.71174e-06
1.55305e-06
1.45779e-06
1.32275e-06
1.0792e-06
7.44302e-07
4.02548e-07
1.55962e-07
3.65524e-08
0
0
8.61523e-08
1.33634e-06
4.83107e-06
1.10783e-05
1.93354e-05
2.73233e-05
3.1924e-05
3.08638e-05
2.43202e-05
1.50457e-05
6.69966e-06
1.66989e-06
2.60462e-08
0
6.82071e-09
1.15075e-08
7.81278e-09
2.55259e-09
2.084e-10
0
0
0
0
0
0
0
0
0
0
0
0
0
0
0
0
0
2.41722e-54
0
1.84272e-46
0
3.333e-42
0
0
3.52701e-36
1.15381e-36
0
0
1.44635e-19
4.17232e-19
6.48025e-19
3.82826e-20
0
0
1.60409e-06
2.9704e-06
4.54222e-06
5.82237e-06
6.49398e-06
6.51986e-06
6.03827e-06
5.24081e-06
4.30843e-06
3.38593e-06
2.57036e-06
1.90859e-06
1.40426e-06
1.03339e-06
7.65959e-07
5.84477e-07
4.87981e-07
4.7732e-07
5.29587e-07
5.89052e-07
5.9255e-07
5.09746e-07
3.59905e-07
1.98706e-07
7.98753e-08
1.88788e-08
0
0
0
1.15142e-06
4.66747e-06
1.10953e-05
1.95195e-05
2.72966e-05
3.10655e-05
2.88012e-05
2.1373e-05
1.21234e-05
4.69032e-06
8.56877e-07
0
0
5.02857e-09
6.17443e-09
3.45184e-09
8.64714e-10
1.08303e-11
0
0
0
0
0
0
0
0
0
0
0
0
0
0
0
0
1.94769e-54
0
6.11226e-46
0
1.42112e-41
0
2.88236e-36
0
0
0
0
0
3.0026e-18
9.58661e-19
1.54681e-20
0
0
2.21344e-06
3.51716e-06
4.62544e-06
5.17301e-06
5.07599e-06
4.48756e-06
3.64049e-06
2.73671e-06
1.91363e-06
1.24667e-06
7.59519e-07
4.37175e-07
2.42318e-07
1.3189e-07
7.11409e-08
3.97248e-08
2.90723e-08
4.00226e-08
8.01177e-08
1.45193e-07
2.0901e-07
2.39249e-07
2.19401e-07
1.5957e-07
8.95903e-08
3.64417e-08
8.85187e-09
0
0
0
1.10677e-06
4.66813e-06
1.11694e-05
1.94051e-05
2.63712e-05
2.87231e-05
2.50834e-05
1.71896e-05
8.72106e-06
2.80343e-06
3.058e-07
0
0
2.76453e-09
3.15494e-09
1.61007e-09
3.3694e-10
0
0
0
0
0
0
0
0
0
0
0
0
0
0
0
0
3.13739e-55
0
5.36536e-46
0
1.80972e-41
0
0
4.70218e-24
2.00093e-24
6.50296e-26
0
5.11917e-18
5.12005e-18
5.78627e-19
0
0
0
2.70774e-06
3.66768e-06
4.15017e-06
4.01792e-06
3.39826e-06
2.54741e-06
1.69973e-06
9.98939e-07
5.00775e-07
1.99751e-07
5.31756e-08
4.19333e-09
0
0
0
0
0
0
0
3.85598e-09
2.87743e-08
6.25062e-08
8.51255e-08
8.47751e-08
6.45955e-08
3.77952e-08
1.65073e-08
4.81378e-09
1.15844e-10
0
0
1.11692e-06
4.69954e-06
1.10434e-05
1.85825e-05
2.40955e-05
2.46749e-05
1.99465e-05
1.23906e-05
5.47106e-06
1.35268e-06
3.21798e-08
0
2.83926e-10
2.47186e-09
2.23137e-09
9.87378e-10
1.90311e-10
0
0
0
0
0
0
0
0
0
0
0
0
0
0
0
0
4.8484e-48
0
0
0
3.55175e-36
0
2.36521e-23
6.35129e-24
1.60807e-26
0
2.792e-17
0
0
0
5.99491e-08
2.61411e-07
2.92322e-06
3.36746e-06
3.24568e-06
2.65427e-06
1.84622e-06
1.07456e-06
4.95931e-07
1.55825e-07
1.76796e-08
0
0
0
0
0
0
0
0
0
0
0
0
3.02309e-09
1.4559e-08
2.61136e-08
2.99166e-08
2.52903e-08
1.68231e-08
9.18609e-09
3.82158e-09
1.43515e-09
0
0
1.13505e-06
4.61958e-06
1.04387e-05
1.67178e-05
2.03197e-05
1.92314e-05
1.41482e-05
7.77934e-06
2.82324e-06
4.30343e-07
0
0
1.72449e-09
2.83757e-09
2.16775e-09
8.86406e-10
1.41685e-10
0
0
0
0
0
0
0
0
0
0
0
0
0
0
0
0
4.34972e-44
1.39521e-44
0
0
1.82115e-24
2.89541e-23
6.54488e-25
0
3.60525e-17
0
4.16486e-13
0
6.68038e-08
4.41386e-07
1.12542e-06
2.77927e-06
2.69565e-06
2.15416e-06
1.40775e-06
7.19326e-07
2.49868e-07
3.40494e-08
0
0
0
0
0
2.14789e-12
1.66483e-11
3.64176e-11
6.61637e-11
1.4315e-10
3.145e-10
5.24126e-10
6.63256e-10
0
0
0
2.56283e-09
7.32255e-09
1.09395e-08
1.18632e-08
1.07082e-08
8.47884e-09
6.11702e-09
3.49198e-09
0
0
1.11111e-06
4.27373e-06
9.15443e-06
1.37718e-05
1.53542e-05
1.30379e-05
8.32914e-06
3.67164e-06
8.24612e-07
6.2794e-09
0
1.40898e-09
3.54782e-09
3.56549e-09
1.89867e-09
4.55754e-10
5.44537e-12
0
0
0
0
0
0
0
0
0
0
0
1.93794e-62
8.9241e-63
0
0
5.03113e-43
0
3.38698e-37
0
8.87357e-24
7.11792e-24
0
3.30873e-17
1.40814e-16
0
0
1.00599e-08
2.73491e-07
1.11121e-06
2.09147e-06
2.30731e-06
1.83724e-06
1.14778e-06
5.24659e-07
1.37389e-07
3.89697e-09
0
0
0
0
1.5392e-12
1.43386e-11
5.5461e-11
1.3503e-10
2.45682e-10
3.96543e-10
6.60431e-10
1.15992e-09
1.92754e-09
2.8435e-09
3.15229e-09
2.92099e-09
1.48653e-09
1.49594e-10
9.95451e-10
4.03151e-09
7.82741e-09
1.10584e-08
1.29435e-08
1.30016e-08
1.11121e-08
6.28693e-09
0
0
9.83816e-07
3.58771e-06
7.23759e-06
9.87766e-06
9.23635e-06
6.06178e-06
2.64606e-06
5.78768e-07
2.17544e-09
0
1.08571e-09
3.00775e-09
3.36369e-09
1.9992e-09
5.6419e-10
2.08205e-11
0
0
0
0
0
0
0
0
0
0
0
0
0
9.7913e-48
0
1.19689e-42
0
1.60213e-36
0
1.11267e-23
0
5.44131e-18
1.17402e-16
1.55291e-16
0
2.23112e-11
4.15242e-08
4.77362e-07
1.32993e-06
1.63566e-06
1.63961e-06
1.01611e-06
4.33451e-07
9.04015e-08
0
0
0
0
2.97578e-12
1.09318e-11
3.12077e-11
8.74203e-11
2.15482e-10
4.37076e-10
7.46085e-10
1.1447e-09
1.70923e-09
2.60716e-09
4.00406e-09
5.85603e-09
7.74197e-09
8.92965e-09
8.69249e-09
7.17165e-09
5.80744e-09
6.12543e-09
8.66802e-09
1.2939e-08
1.76897e-08
2.11643e-08
2.1936e-08
1.84362e-08
9.63316e-09
0
0
7.75122e-07
2.61302e-06
4.4564e-06
4.03975e-06
1.20365e-06
7.77018e-08
9.2127e-09
0
0
8.13126e-11
3.12206e-10
5.02271e-10
4.59071e-10
1.7353e-10
1.33278e-11
0
0
0
0
0
0
0
0
0
0
0
0
0
2.45936e-46
0
8.38768e-43
0
1.8789e-36
0
5.92619e-24
0
2.04448e-17
1.61426e-16
4.64762e-17
0
1.25463e-09
6.17754e-08
3.57681e-07
5.19464e-07
0
9.58746e-07
4.11787e-07
8.02114e-08
0
0
0
3.0652e-13
4.97204e-12
2.04065e-11
5.48522e-11
1.24763e-10
2.6711e-10
5.34679e-10
9.65102e-10
1.55548e-09
2.28751e-09
3.20175e-09
4.45601e-09
6.28778e-09
8.82891e-09
1.1897e-08
1.47889e-08
1.65597e-08
1.65865e-08
1.52147e-08
1.38131e-08
1.40793e-08
1.7113e-08
2.27068e-08
2.91278e-08
3.37931e-08
3.40549e-08
2.72513e-08
1.39965e-08
0
0
4.52516e-07
8.96759e-07
2.49219e-07
1.39469e-06
0
0
0
0
0
0
0
0
0
0
0
0
0
0
0
0
0
0
0
0
0
0
0
6.25768e-46
0
0
3.76531e-38
5.02616e-37
0
1.03522e-24
0
2.93743e-17
1.09683e-16
1.31928e-18
0
2.07381e-09
3.39809e-08
0
0
0.000249449
4.25737e-07
9.31914e-08
1.13943e-11
0
0
7.77932e-13
6.06838e-12
2.36415e-11
6.76671e-11
1.55917e-10
3.1176e-10
5.76076e-10
1.00768e-09
1.6536e-09
2.51176e-09
3.53689e-09
4.71121e-09
6.13574e-09
8.05259e-09
1.0731e-08
1.42264e-08
1.81377e-08
2.15954e-08
2.35824e-08
2.357e-08
2.21136e-08
2.08814e-08
2.19312e-08
2.65611e-08
3.43335e-08
4.28783e-08
4.87048e-08
4.79823e-08
3.78793e-08
2.05497e-08
0
0
2.34834e-10
0
0.000100081
0.000727914
0.00227928
0.00470953
0.00736036
0.00914986
0.00913613
0.00712291
0.00391831
0.00104825
0
0
0
0
0
0
0
0
0
0
0
0
0
0
2.86499e-46
7.75293e-47
0
2.51265e-37
0
6.61299e-27
0
1.19451e-19
2.20839e-17
3.46239e-17
0
0
1.00868e-09
2.28638e-09
0
0.0011646
0.00905179
1.18075e-07
2.2263e-09
0
0
5.32922e-13
6.74908e-12
2.55525e-11
6.97363e-11
1.61928e-10
3.27008e-10
5.8697e-10
9.72568e-10
1.53181e-09
2.30701e-09
3.29238e-09
4.42271e-09
5.63002e-09
6.9449e-09
8.56433e-09
1.08066e-08
1.39223e-08
1.78445e-08
2.20041e-08
2.54121e-08
2.70906e-08
2.67582e-08
2.5327e-08
2.47845e-08
2.73648e-08
3.43446e-08
4.50727e-08
5.68159e-08
6.53274e-08
6.55994e-08
5.46801e-08
3.12486e-08
0
0
0
0.000593968
0.0040458
0.0124091
0.0255175
0.039963
0.0504838
0.0524129
0.0446774
0.0304911
0.0156881
0.00526013
0.000564687
0
0
0
0
0
0
0
0
0
0
0
0
0
0
0
4.77465e-37
0
1.24332e-26
0
3.21327e-19
6.77974e-18
1.66901e-18
0
0
0
0
0.00229523
0.0148697
0.0427031
9.0736e-09
0
0
4.79235e-13
6.329e-12
2.62089e-11
7.0328e-11
1.55086e-10
3.06468e-10
5.47661e-10
8.88949e-10
1.33984e-09
1.92458e-09
2.66903e-09
3.56288e-09
4.53989e-09
5.51463e-09
6.46836e-09
7.53001e-09
8.98293e-09
1.11591e-08
1.42332e-08
1.80013e-08
2.1784e-08
2.46002e-08
2.56704e-08
2.5043e-08
2.39094e-08
2.43596e-08
2.869e-08
3.85184e-08
5.39719e-08
7.30788e-08
9.13109e-08
1.01633e-07
9.3189e-08
5.44524e-08
8.55451e-09
0
0.00203389
0.0124322
0.036632
0.0738094
0.11449
0.144108
0.151377
0.134335
0.100941
0.0640481
0.0343525
0.0160001
0.00692386
0.00281264
0.000717451
0
0
0
0
0
0
0
0
0
0
0
0
3.18755e-37
0
4.6482e-27
0
0
0
0
0.000471917
0.00145871
0.00302189
0.00786258
0.0235953
0.0599118
0.117546
0
0
6.4379e-13
6.77694e-12
2.56376e-11
6.84439e-11
1.4655e-10
2.74988e-10
4.73871e-10
7.54731e-10
1.11074e-09
1.52932e-09
2.01039e-09
2.56244e-09
3.1761e-09
3.8046e-09
4.38045e-09
4.87054e-09
5.34056e-09
5.98582e-09
7.09417e-09
8.93375e-09
1.15659e-08
1.46978e-08
1.76538e-08
1.96013e-08
2.00457e-08
1.92953e-08
1.85022e-08
1.95511e-08
2.53218e-08
3.9814e-08
6.7494e-08
1.1101e-07
1.64404e-07
1.9699e-07
1.47634e-07
1.24483e-08
0
0.00507988
0.0274549
0.0772052
0.151351
0.230365
0.287147
0.302742
0.276166
0.222184
0.160969
0.107979
0.0695184
0.0441423
0.0269914
0.0141278
0.00487282
0.000304311
0
0
0
0
0
0
0
0
0
0
0
0
0
0
0.000666779
0.00338953
0.00876643
0.0157815
0.0223318
0.0303532
0.0479098
0.0864812
0.152095
0.237024
0
1.12216e-12
8.0384e-12
2.64638e-11
6.52572e-11
1.34777e-10
2.43155e-10
3.97957e-10
6.06063e-10
8.63609e-10
1.15086e-09
1.44374e-09
1.72965e-09
2.00897e-09
2.28067e-09
2.52724e-09
2.71643e-09
2.82557e-09
2.87832e-09
2.97396e-09
3.28666e-09
4.03079e-09
5.38253e-09
7.30988e-09
9.52168e-09
1.14702e-08
1.25575e-08
1.25349e-08
1.16724e-08
1.05884e-08
1.11133e-08
1.97287e-08
5.0661e-08
1.24221e-07
2.43983e-07
3.37981e-07
2.48519e-07
0
0.000155872
0.0101955
0.0484958
0.128783
0.243957
0.362608
0.445596
0.469736
0.438576
0.373999
0.299968
0.232125
0.176365
0.131571
0.0933161
0.0588059
0.0304329
0.0125376
0.0049761
0.00256354
0.00154125
0.000766849
0.000169917
0
0
0
0
0.000282352
0.00116699
0.00277501
0.00547926
0.00989384
0.0174737
0.0306079
0.0500024
0.071044
0.0888546
0.10765
0.14136
0.202391
0.288494
0.38255
1.97657e-12
1.01021e-11
2.83076e-11
6.3361e-11
1.2207e-10
2.09867e-10
3.2797e-10
4.73779e-10
6.41007e-10
8.16008e-10
9.77712e-10
1.10569e-09
1.18992e-09
1.23348e-09
1.24605e-09
1.23372e-09
1.19332e-09
1.11767e-09
1.01097e-09
9.05289e-10
8.68639e-10
9.97729e-10
1.40384e-09
2.22783e-09
3.35615e-09
4.55095e-09
5.56107e-09
6.01483e-09
5.62014e-09
4.29514e-09
2.29741e-09
3.73567e-09
3.16492e-08
1.33049e-07
3.25898e-07
4.70901e-07
3.00957e-07
0
0.00097439
0.0174454
0.0726464
0.180982
0.32899
0.474863
0.572819
0.601971
0.57379
0.515384
0.448995
0.384882
0.325009
0.267059
0.20762
0.147506
0.0949409
0.0587381
0.0392549
0.0295875
0.0234365
0.0185643
0.0147751
0.0121258
0.0108632
0.0112441
0.0131414
0.0164362
0.0216648
0.0296378
0.0407564
0.0556195
0.0763568
0.106455
0.145189
0.183821
0.21439
0.24258
0.285807
0.354762
0.439532
0.517871
1.25934e-11
3.08838e-11
6.2128e-11
1.10606e-10
1.78165e-10
2.63551e-10
3.61239e-10
4.61737e-10
5.53152e-10
6.2275e-10
6.59032e-10
6.54864e-10
6.10835e-10
5.36536e-10
4.47505e-10
3.58299e-10
2.76106e-10
2.00457e-10
1.30004e-10
7.00311e-11
3.20611e-11
2.14298e-11
4.50685e-11
1.475e-10
5.69096e-10
1.11946e-09
1.29392e-09
1.36456e-09
1.39221e-09
8.70071e-10
6.36397e-11
0
2.07631e-08
1.36367e-07
3.70172e-07
5.16058e-07
2.62394e-07
0
0.00252081
0.0264893
0.097133
0.22563
0.390806
0.544339
0.641308
0.669254
0.648723
0.609
0.566667
0.523757
0.476223
0.419039
0.349769
0.274258
0.20651
0.157802
0.127564
0.107757
0.0923252
0.0797471
0.0700945
0.0633922
0.0603486
0.0618896
0.06751
0.076389
0.0893919
0.10767
0.130904
0.158861
0.193894
0.239553
0.293197
0.343352
0.380352
0.409335
0.446763
0.501045
0.561062
0.607253
3.36458e-11
6.10988e-11
9.98615e-11
1.49656e-10
2.07391e-10
2.6733e-10
3.21545e-10
3.60697e-10
3.76471e-10
3.64734e-10
3.2655e-10
2.67145e-10
1.95191e-10
1.22568e-10
6.21242e-11
2.21641e-11
3.15879e-12
0
0
0
0
0
0
0
0
1.49526e-10
9.89742e-10
1.03561e-09
8.15741e-11
0
0
0
1.57822e-08
1.24082e-07
3.28327e-07
4.11745e-07
1.4209e-07
0
0.00512197
0.0380007
0.122617
0.263436
0.431218
0.57549
0.658296
0.678542
0.664255
0.644102
0.628408
0.612214
0.586335
0.543234
0.48168
0.411764
0.349927
0.304883
0.272502
0.245098
0.220275
0.199704
0.184592
0.174686
0.170521
0.173608
0.183484
0.198514
0.219137
0.246307
0.278653
0.314601
0.356075
0.405991
0.460397
0.507998
0.539934
0.558932
0.576119
0.598382
0.621389
0.635561
5.96616e-11
8.94473e-11
1.24056e-10
1.59972e-10
1.9227e-10
2.15344e-10
2.24117e-10
2.14868e-10
1.8705e-10
1.45015e-10
9.69584e-11
5.20398e-11
1.83114e-11
1.44974e-12
0
0
0
0
0
0
0
0
6.15221e-12
1.90465e-10
2.19605e-10
0
1.83225e-09
4.43163e-09
4.62253e-09
3.03704e-09
5.57225e-10
0
1.1666e-08
8.91186e-08
2.03954e-07
1.81967e-07
3.33443e-09
0
0.0110979
0.0565136
0.15581
0.304264
0.465364
0.590479
0.652191
0.660471
0.647448
0.6389
0.64024
0.642933
0.635784
0.610999
0.569455
0.523692
0.488213
0.464319
0.442026
0.414804
0.385896
0.361971
0.346301
0.337412
0.333577
0.336811
0.348817
0.367495
0.390913
0.41915
0.450752
0.483271
0.517992
0.557295
0.597167
0.628936
0.646705
0.650569
0.64414
0.632511
0.62164
0.615208
7.89257e-11
1.01043e-10
1.20571e-10
1.34035e-10
1.38347e-10
1.31518e-10
1.13524e-10
8.65141e-11
5.51699e-11
2.63571e-11
6.79523e-12
4.91307e-15
0
0
0
0
1.77474e-13
6.63449e-13
2.24104e-12
3.80969e-12
2.58771e-12
0
1.50307e-11
4.42604e-10
1.71862e-09
1.78687e-09
1.5508e-09
6.37889e-09
1.99328e-08
3.91458e-08
5.28685e-08
5.04939e-08
4.32911e-08
5.81563e-08
6.60163e-08
6.68876e-09
0
0.00425023
0.0279942
0.0921864
0.208057
0.360203
0.507528
0.607827
0.646433
0.642282
0.627467
0.622524
0.62884
0.637072
0.637153
0.623859
0.601668
0.584692
0.583017
0.588797
0.58507
0.566081
0.540518
0.520333
0.511035
0.508097
0.504786
0.504528
0.515029
0.533916
0.553743
0.573419
0.593783
0.612788
0.631175
0.651327
0.670077
0.681725
0.684064
0.676508
0.65609
0.623699
0.591625
0.575107
8.03307e-11
8.82823e-11
9.00449e-11
8.45824e-11
7.2101e-11
5.42611e-11
3.41918e-11
1.59681e-11
3.72884e-12
0
0
0
0
3.11694e-13
6.62133e-13
9.3557e-13
1.33908e-12
2.68849e-12
6.20645e-12
9.59643e-12
7.48434e-12
0
4.56459e-11
4.66226e-10
3.86579e-09
6.91568e-09
3.61718e-09
6.46409e-09
4.15572e-08
1.04836e-07
1.53409e-07
1.47094e-07
9.37054e-08
3.9105e-08
2.07422e-09
0
0.00344283
0.0206349
0.0672051
0.156915
0.288231
0.43578
0.559613
0.629865
0.646027
0.632772
0.617858
0.614217
0.618988
0.622795
0.618047
0.6041
0.590918
0.594612
0.620264
0.651276
0.665348
0.657401
0.639808
0.628222
0.629318
0.633606
0.628033
0.620092
0.627178
0.645367
0.65843
0.664751
0.670105
0.673841
0.675987
0.679286
0.681448
0.678185
0.67038
0.659899
0.640595
0.605986
0.565667
0.541136
6.22838e-11
5.77235e-11
4.85678e-11
3.61197e-11
2.25257e-11
1.04557e-11
2.47372e-12
0
0
0
6.81689e-14
4.24053e-13
7.78713e-13
1.42905e-12
2.17396e-12
2.82346e-12
3.76012e-12
6.08288e-12
1.06728e-11
1.51123e-11
1.32048e-11
1.47126e-14
4.53506e-11
2.3867e-10
4.85757e-09
1.1519e-08
9.16367e-09
1.05409e-08
5.35554e-08
1.39991e-07
1.88005e-07
1.36676e-07
5.01885e-08
4.35384e-09
0
0.00212397
0.0172156
0.0588925
0.138128
0.255159
0.393407
0.522138
0.610819
0.647225
0.644044
0.627131
0.616385
0.61615
0.619112
0.615129
0.59879
0.575389
0.562071
0.576468
0.617176
0.660433
0.683074
0.682746
0.673115
0.670109
0.679754
0.687107
0.674402
0.656884
0.662645
0.682982
0.691105
0.686546
0.681439
0.676253
0.669706
0.664957
0.660282
0.650903
0.639496
0.632665
0.625049
0.601433
0.56027
0.523205
3.48155e-11
2.5608e-11
1.58825e-11
7.42104e-12
1.8484e-12
1.69714e-17
0
0
2.34978e-13
6.50924e-13
1.03306e-12
1.36955e-12
1.87773e-12
2.80122e-12
3.98146e-12
5.21535e-12
6.85612e-12
9.66611e-12
1.38053e-11
1.72668e-11
1.56339e-11
9.5719e-14
5.0166e-11
0
3.17393e-09
9.66882e-09
1.05225e-08
1.30123e-08
4.60672e-08
1.00449e-07
1.03388e-07
4.47936e-09
0
0
0.00179606
0.0141811
0.0518137
0.127288
0.240996
0.376488
0.505472
0.600256
0.646933
0.651642
0.635283
0.61971
0.615736
0.620757
0.623857
0.613202
0.585166
0.552198
0.538554
0.559827
0.605089
0.64636
0.666234
0.668044
0.663866
0.665966
0.678403
0.682289
0.658727
0.633297