/*--------------------------------*- C++ -*----------------------------------*\
  =========                 |
  \\      /  F ield         | OpenFOAM: The Open Source CFD Toolbox
   \\    /   O peration     | Website:  https://openfoam.org
    \\  /    A nd           | Version:  7
     \\/     M anipulation  |
\*---------------------------------------------------------------------------*/
FoamFile
{
    version     2.0;
    format      ascii;
    class       volScalarField;
    location    "15";
    object      k1Write;
}
// * * * * * * * * * * * * * * * * * * * * * * * * * * * * * * * * * * * * * //

dimensions      [0 2 0 0 0 0 0];

internalField   nonuniform List<scalar> 
49920
(
1.38983e-16
1.16644e-19
3.3969e-21
7.18015e-21
6.91248e-21
1.44812e-20
8.99122e-21
2.0976e-21
3.83835e-21
9.46753e-21
7.25606e-21
3.80177e-21
6.39772e-21
2.45188e-21
1.35366e-20
2.95437e-18
1.70772e-15
2.76548e-11
0.000167073
0.000167073
0.000167073
0.000167073
0.000167073
0.000167073
0.000167073
0.000167073
0.000167073
0.000167073
0.000167073
0.000167073
0.000167073
0.000167073
0.000167073
0.000167073
0.000167073
0.000167073
0.000167073
0.000167072
0.000167072
0.000167072
0.000167072
0.000167072
0.000167072
0.000167072
0.000167072
0.000167072
0.000167072
0.000167072
0.000167072
0.000167071
0.000167072
0.000167071
0.000167073
0.000167071
0.000167073
0.000167071
0.000167072
0.000167071
0.000167073
0.000167072
0.000167074
0.000167072
0.000167074
0.000167072
0.000167075
0.000167073
0.000167076
0.000167074
0.000167076
0.000167075
0.000167077
0.000167076
0.000167077
0.000167077
0.000167077
0.000167078
0.000167077
0.000167079
0.000167077
0.000167079
1.29644e-16
8.30098e-18
4.90501e-19
1.1754e-20
1.11115e-20
4.59646e-20
6.75339e-21
3.40652e-20
8.16674e-21
1.18555e-20
1.57739e-20
9.44047e-21
4.90416e-21
3.4499e-20
1.19421e-18
3.02974e-17
2.80782e-15
1.65696e-09
0.000167073
0.000167073
0.000167073
0.000167073
0.000167073
0.000167073
0.000167073
0.000167073
0.000167073
0.000167073
0.000167073
0.000167073
0.000167073
0.000167073
0.000167073
0.000167073
0.000167073
0.000167072
0.000167072
0.000167072
0.000167072
0.000167072
0.000167072
0.000167072
0.000167072
0.000167072
0.000167072
0.000167072
0.000167071
0.000167071
0.000167071
0.000167072
0.000167071
0.000167072
0.000167071
0.000167073
0.000167069
0.000167072
0.00016707
0.000167073
0.000167071
0.000167073
0.000167071
0.000167074
0.000167072
0.000167075
0.000167072
0.000167076
0.000167074
0.000167077
0.000167075
0.000167078
0.000167076
0.000167079
0.000167078
0.000167079
0.000167079
0.000167078
0.000167079
0.000167078
0.000167079
0.000167078
7.26023e-16
3.58332e-16
1.9062e-17
1.41537e-18
1.29944e-18
2.9334e-18
1.19018e-18
2.49129e-18
1.27215e-18
4.68651e-20
4.36216e-20
4.90738e-20
2.1392e-19
2.21532e-18
2.61549e-17
3.65977e-16
7.73438e-15
7.23489e-13
0.000167073
0.000167073
0.000167073
0.000167073
0.000167073
0.000167073
0.000167073
0.000167073
0.000167073
0.000167073
0.000167073
0.000167073
0.000167073
0.000167073
0.000167073
0.000167073
0.000167072
0.000167073
0.000167072
0.000167072
0.000167072
0.000167072
0.000167072
0.000167072
0.000167072
0.000167072
0.000167072
0.000167072
0.000167071
0.000167072
0.000167072
0.000167071
0.000167072
0.000167071
0.000167071
0.00016707
0.000167071
0.000167071
0.000167072
0.000167071
0.000167072
0.000167072
0.000167073
0.000167072
0.000167074
0.000167073
0.000167075
0.000167074
0.000167076
0.000167075
0.000167077
0.000167076
0.000167078
0.000167077
0.000167078
0.000167078
0.000167078
0.000167077
0.000167077
0.000167076
0.000167077
0.000167077
6.20705e-15
2.66844e-14
4.03964e-16
4.03335e-17
3.11255e-17
6.3105e-17
2.85726e-17
5.34397e-17
2.72614e-17
4.79046e-18
2.90563e-18
2.83804e-18
7.06467e-18
2.06912e-17
4.4624e-16
6.20474e-15
5.48317e-14
6.84226e-13
2.86458e-11
0.000167073
0.000167073
0.000167073
0.000167073
0.000167073
0.000167073
0.000167073
0.000167073
0.000167073
0.000167073
0.000167073
0.000167073
0.000167073
0.000167073
0.000167073
0.000167073
0.000167072
0.000167072
0.000167072
0.000167072
0.000167072
0.000167072
0.000167072
0.000167072
0.000167072
0.000167072
0.000167071
0.000167072
0.000167071
0.000167073
0.000167072
0.000167072
0.000167071
0.000167072
0.000167071
0.000167072
0.000167071
0.000167073
0.000167071
0.000167073
0.000167072
0.000167074
0.000167072
0.000167075
0.000167073
0.000167076
0.000167074
0.000167077
0.000167075
0.000167078
0.000167076
0.000167078
0.000167077
0.000167078
0.000167078
0.000167077
0.000167077
0.000167075
0.000167075
0.000167074
0.000167076
5.88808e-14
1.39862e-09
7.53441e-15
8.70506e-16
4.5629e-16
9.73333e-16
5.27332e-16
9.26095e-16
4.69649e-16
2.72558e-16
4.29649e-17
6.59558e-17
1.97903e-16
7.55615e-16
6.75718e-15
7.08229e-14
4.05157e-13
1.45173e-12
7.82463e-12
9.91323e-11
9.22641e-09
0.000167073
0.000167073
0.000167073
0.000167073
0.000167073
0.000167073
0.000167073
0.000167073
0.000167073
0.000167073
0.000167073
0.000167073
0.000167072
0.000167073
0.000167072
0.000167073
0.000167072
0.000167072
0.000167072
0.000167072
0.000167072
0.000167072
0.000167072
0.000167072
0.000167072
0.000167072
0.000167073
0.000167071
0.000167072
0.000167071
0.000167072
0.000167071
0.000167072
0.000167072
0.000167073
0.000167072
0.000167073
0.000167072
0.000167073
0.000167073
0.000167074
0.000167073
0.000167075
0.000167074
0.000167076
0.000167075
0.000167077
0.000167077
0.000167078
0.000167078
0.000167079
0.000167078
0.000167079
0.000167078
0.000167078
0.000167076
0.000167076
0.000167075
0.000167076
4.87624e-13
0.000167074
1.62098e-13
2.18019e-14
6.56307e-15
1.14937e-14
8.36347e-15
1.03703e-14
5.34816e-15
3.22624e-14
1.23914e-15
3.34873e-15
9.71291e-15
4.23814e-14
1.3303e-13
4.90973e-13
1.61654e-12
3.31926e-12
6.92919e-12
2.3065e-11
1.50195e-10
2.3276e-09
6.40035e-06
0.000167073
0.000167073
0.000167073
0.000167073
0.000167073
0.000167073
0.000167073
0.000167073
0.000167073
0.000167073
0.000167073
0.000167072
0.000167073
0.000167072
0.000167072
0.000167072
0.000167072
0.000167072
0.000167072
0.000167071
0.000167072
0.000167071
0.000167072
0.000167072
0.000167072
0.000167071
0.000167072
0.000167071
0.000167072
0.000167071
0.000167072
0.000167071
0.000167073
0.000167072
0.000167073
0.000167072
0.000167074
0.000167072
0.000167075
0.000167073
0.000167076
0.000167074
0.000167077
0.000167075
0.000167078
0.000167077
0.00016708
0.000167079
0.00016708
0.00016708
0.00016708
0.000167081
0.000167078
0.00016708
0.000167076
0.000167077
0.000167077
2.48413e-12
1.68106e-08
3.01822e-12
8.97487e-13
1.13399e-13
1.03979e-13
1.04042e-13
8.71655e-14
4.41426e-14
9.3779e-12
9.86099e-14
2.63518e-13
3.59287e-12
0.000167074
2.8578e-11
6.14034e-12
5.53433e-12
6.76592e-12
9.04523e-12
1.57866e-11
4.19011e-11
1.83341e-10
1.58396e-09
4.39573e-08
0.000167073
0.000167073
0.000167073
0.000167073
0.000167073
0.000167073
0.000167073
0.000167073
0.000167073
0.000167073
0.000167073
0.000167072
0.000167072
0.000167072
0.000167072
0.000167072
0.000167072
0.000167071
0.000167072
0.000167071
0.000167072
0.00016707
0.000167071
0.00016707
0.000167072
0.00016707
0.000167072
0.00016707
0.000167072
0.00016707
0.000167072
0.00016707
0.000167073
0.000167071
0.000167074
0.000167071
0.000167075
0.000167071
0.000167076
0.000167072
0.000167078
0.000167074
0.000167079
0.000167076
0.000167081
0.000167078
0.000167082
0.00016708
0.000167082
0.000167081
0.000167081
0.000167082
0.000167079
0.000167078
0.000167077
0.000167078
6.88062e-12
1.58953e-09
1.63797e-11
7.30477e-11
3.56368e-12
9.01687e-13
8.12651e-13
5.60431e-13
2.59905e-13
2.69398e-12
0.000167074
0.000167074
0.000167074
0.000167074
0.000167074
4.36549e-10
4.71247e-11
2.24033e-11
1.77332e-11
1.9429e-11
2.99514e-11
6.73897e-11
2.30768e-10
1.31586e-09
1.53165e-08
1.40076e-06
0.000167073
0.000167073
0.000167073
0.000167073
0.000167073
0.000167073
0.000167073
0.000167073
0.000167072
0.000167072
0.000167072
0.000167072
0.000167072
0.000167071
0.000167071
0.000167071
0.00016707
0.000167072
0.000167069
0.000167071
0.000167069
0.000167071
0.00016707
0.000167071
0.000167069
0.000167071
0.000167069
0.000167071
0.00016707
0.000167072
0.00016707
0.000167073
0.00016707
0.000167074
0.000167071
0.000167075
0.000167072
0.000167077
0.000167073
0.000167078
0.000167075
0.00016708
0.000167077
0.000167081
0.000167079
0.000167082
0.000167081
0.000167082
0.000167081
0.00016708
0.000167078
0.000167077
0.000167077
0.000167079
1.44703e-11
3.31467e-10
2.21623e-11
9.98899e-11
6.3077e-09
1.10934e-11
4.29897e-12
2.47729e-12
1.1188e-12
1.78894e-12
2.52177e-10
0.000167074
0.000167074
1.0653e-06
0.000167074
0.000167074
2.01338e-09
1.96651e-10
6.90696e-11
4.36209e-11
4.14752e-11
5.67161e-11
1.10464e-10
3.10811e-10
1.32228e-09
9.88329e-09
1.8369e-07
0.000167073
0.000167074
0.000167073
0.000167073
0.000167073
0.000167073
0.000167072
0.000167072
0.000167072
0.000167072
0.000167072
0.000167071
0.000167071
0.000167071
0.00016707
0.000167072
0.000167069
0.000167071
0.000167069
0.000167071
0.000167069
0.00016707
0.000167069
0.000167071
0.000167069
0.000167071
0.000167069
0.000167071
0.00016707
0.000167072
0.00016707
0.000167073
0.00016707
0.000167074
0.000167071
0.000167075
0.000167072
0.000167077
0.000167074
0.000167079
0.000167076
0.00016708
0.000167078
0.000167081
0.00016708
0.000167081
0.00016708
0.00016708
0.000167079
0.000167077
0.000167075
0.000167077
0.000167079
3.205e-11
2.2717e-10
2.31891e-11
3.32944e-11
1.16595e-08
2.25876e-10
2.05121e-11
7.89284e-12
3.56677e-12
2.51408e-12
8.97311e-12
1.23639e-10
1.63696e-07
0.000167074
7.38329e-08
2.59803e-07
0.000167074
2.05572e-08
9.42115e-10
2.28879e-10
1.16084e-10
9.50128e-11
1.13791e-10
1.91825e-10
4.52232e-10
1.53524e-09
8.16044e-09
8.58028e-08
5.22332e-06
0.000167074
0.000167073
0.000167073
0.000167073
0.000167073
0.000167072
0.000167072
0.000167072
0.000167072
0.000167071
0.000167071
0.000167071
0.000167071
0.000167069
0.00016707
0.000167069
0.00016707
0.000167069
0.00016707
0.000167069
0.00016707
0.000167069
0.00016707
0.00016707
0.000167071
0.00016707
0.000167071
0.00016707
0.000167071
0.000167071
0.000167072
0.000167071
0.000167073
0.000167073
0.000167075
0.000167074
0.000167076
0.000167076
0.000167078
0.000167078
0.00016708
0.000167079
0.000167081
0.00016708
0.000167081
0.000167079
0.000167078
0.000167076
0.000167076
0.000167078
0.000167081
8.45255e-11
2.88284e-10
2.758e-11
2.35282e-11
1.86102e-10
2.49616e-09
1.02148e-10
2.17698e-11
9.00776e-12
4.5479e-12
5.75356e-12
2.1212e-11
2.8554e-10
1.33211e-07
1.99069e-08
1.81274e-09
1.61248e-09
5.51092e-09
1.85381e-08
4.11111e-09
8.46607e-10
3.46773e-10
2.38502e-10
2.44733e-10
3.53504e-10
7.04696e-10
1.96718e-09
8.17073e-09
6.06297e-08
1.30102e-06
0.000167073
0.000167073
0.000167073
0.000167073
0.000167073
0.000167072
0.000167072
0.000167071
0.000167071
0.000167071
0.00016707
0.00016707
0.00016707
0.00016707
0.000167069
0.00016707
0.000167069
0.00016707
0.00016707
0.00016707
0.00016707
0.00016707
0.00016707
0.00016707
0.00016707
0.000167071
0.00016707
0.000167071
0.000167071
0.000167072
0.000167071
0.000167073
0.000167072
0.000167074
0.000167074
0.000167076
0.000167076
0.000167078
0.000167078
0.00016708
0.00016708
0.000167081
0.000167081
0.000167081
0.000167081
0.000167078
0.000167078
0.000167078
0.000167081
0.000167084
2.66936e-10
4.5123e-10
3.70859e-11
2.46424e-11
8.49169e-11
1.74997e-09
5.22294e-10
5.9989e-11
2.03478e-11
9.02763e-12
7.01611e-12
1.25448e-11
5.7216e-11
7.71335e-10
2.09054e-09
3.78464e-10
1.79126e-10
2.03796e-10
4.5486e-10
1.6125e-09
3.92614e-09
2.44739e-09
1.05572e-09
6.307e-10
5.52262e-10
6.81365e-10
1.15726e-09
2.72619e-09
9.41975e-09
5.52417e-08
7.9416e-07
0.000167073
0.000167073
0.000167072
0.000167073
0.000167072
0.000167072
0.000167071
0.000167072
0.000167069
0.000167071
0.000167069
0.00016707
0.000167069
0.00016707
0.000167069
0.00016707
0.000167069
0.00016707
0.000167069
0.00016707
0.000167069
0.000167071
0.000167069
0.000167071
0.000167069
0.000167071
0.00016707
0.000167072
0.00016707
0.000167072
0.00016707
0.000167074
0.000167072
0.000167076
0.000167073
0.000167078
0.000167076
0.00016708
0.000167079
0.000167082
0.000167082
0.000167084
0.000167083
0.000167083
0.000167082
0.000167081
0.000167083
0.000167085
0.000167088
9.74751e-10
6.07612e-10
5.25169e-11
3.2111e-11
7.76158e-11
9.18881e-10
2.32831e-09
1.77528e-10
4.5854e-11
1.88129e-11
1.13633e-11
1.28827e-11
3.09445e-11
1.53354e-10
4.52523e-10
1.72325e-10
6.77328e-11
5.01403e-11
6.39223e-11
1.28336e-10
3.74616e-10
1.27494e-09
2.68646e-09
2.34445e-09
1.55346e-09
1.24601e-09
1.34469e-09
1.97717e-09
4.0321e-09
1.20824e-08
6.06534e-08
7.28013e-07
0.000165047
0.000167073
0.000167072
0.000167072
0.000167071
0.000167072
0.000167069
0.000167071
0.000167069
0.00016707
0.000167069
0.00016707
0.000167069
0.00016707
0.000167069
0.00016707
0.000167069
0.00016707
0.000167069
0.00016707
0.000167069
0.00016707
0.000167069
0.00016707
0.000167069
0.000167071
0.000167069
0.000167071
0.000167069
0.000167072
0.00016707
0.000167074
0.000167072
0.000167076
0.000167075
0.000167079
0.000167078
0.000167082
0.000167082
0.000167085
0.000167086
0.000167087
0.000167087
0.000167086
0.000167087
0.000167086
0.00016709
0.000167092
3.94135e-09
6.29905e-10
7.46521e-11
4.81872e-11
1.00379e-10
8.06299e-10
7.61555e-09
5.84908e-10
1.09903e-10
4.07931e-11
2.13182e-11
1.78756e-11
2.75553e-11
7.6103e-11
1.91904e-10
1.22181e-10
4.75689e-11
2.73758e-11
2.48856e-11
3.34649e-11
6.28583e-11
1.56949e-10
4.78373e-10
1.4171e-09
2.70788e-09
2.93753e-09
2.62353e-09
2.66031e-09
3.48994e-09
6.31041e-09
1.69096e-08
7.67042e-08
8.31838e-07
0.000109433
0.000167073
0.000167071
0.000167072
0.000167069
0.000167071
0.000167069
0.00016707
0.000167069
0.00016707
0.000167069
0.00016707
0.000167069
0.00016707
0.000167069
0.00016707
0.000167069
0.00016707
0.000167068
0.00016707
0.000167068
0.000167069
0.000167068
0.000167069
0.000167068
0.00016707
0.000167068
0.00016707
0.000167069
0.000167072
0.00016707
0.000167074
0.000167073
0.000167077
0.000167076
0.000167081
0.000167081
0.000167085
0.000167086
0.000167089
0.00016709
0.00016709
0.000167091
0.000167089
0.000167092
0.000167093
0.000167096
1.40602e-08
5.85187e-10
1.06593e-10
8.07482e-11
1.67263e-10
1.1234e-09
2.21697e-08
2.19815e-09
2.83417e-10
9.05848e-11
4.25715e-11
2.908e-11
3.24478e-11
5.95607e-11
1.24774e-10
1.15594e-10
5.07341e-11
2.49326e-11
1.76729e-11
1.77867e-11
2.41601e-11
4.24058e-11
9.28581e-11
2.4401e-10
7.13515e-10
1.94609e-09
3.77345e-09
4.80256e-09
5.20166e-09
6.37662e-09
1.04427e-08
2.55597e-08
1.08336e-07
1.11868e-06
0.000124845
0.000167072
0.000167069
0.000167072
0.000167069
0.00016707
0.000167069
0.00016707
0.000167069
0.00016707
0.000167069
0.00016707
0.000167069
0.00016707
0.000167069
0.000167069
0.000167068
0.000167069
0.000167068
0.000167069
0.000167068
0.000167069
0.000167067
0.000167069
0.000167067
0.000167069
0.000167067
0.00016707
0.000167068
0.000167072
0.000167071
0.000167074
0.000167074
0.000167078
0.000167079
0.000167083
0.000167084
0.000167088
0.000167089
0.000167091
0.000167092
0.000167092
0.000167093
0.000167093
0.000167096
0.000167097
2.10224e-08
5.62605e-10
1.57995e-10
1.51062e-10
3.53906e-10
2.46548e-09
1.02859e-07
8.86993e-09
7.23312e-10
1.92449e-10
8.24847e-11
4.92313e-11
4.35769e-11
5.9147e-11
1.03594e-10
1.27413e-10
7.28135e-11
3.37569e-11
1.96803e-11
1.55911e-11
1.63153e-11
2.16401e-11
3.51502e-11
6.82892e-11
1.56613e-10
4.19069e-10
1.2513e-09
3.57267e-09
7.36893e-09
1.00603e-08
1.22634e-08
1.84624e-08
4.16932e-08
1.67885e-07
1.70127e-06
0.00016707
0.000167072
0.00016707
0.00016707
0.000167069
0.00016707
0.000167069
0.000167069
0.000167069
0.00016707
0.000167069
0.00016707
0.000167069
0.000167069
0.000167069
0.000167069
0.000167068
0.000167069
0.000167068
0.000167069
0.000167068
0.000167068
0.000167067
0.000167068
0.000167067
0.000167068
0.000167067
0.000167069
0.000167069
0.000167071
0.000167072
0.000167075
0.000167076
0.000167079
0.000167081
0.000167084
0.000167086
0.000167089
0.00016709
0.000167092
0.000167093
0.000167093
0.000167093
0.000167095
0.000167097
1.21072e-08
5.94451e-10
2.5285e-10
3.22863e-10
9.85978e-10
9.60001e-09
1.88824e-06
2.13831e-08
1.3856e-09
3.32828e-10
1.36415e-10
7.66588e-11
5.89831e-11
6.47532e-11
9.64733e-11
1.42811e-10
1.22712e-10
6.33705e-11
3.23984e-11
2.07804e-11
1.7202e-11
1.78554e-11
2.24431e-11
3.32709e-11
5.75119e-11
1.16686e-10
2.83969e-10
8.45452e-10
2.96243e-09
9.70027e-09
1.97629e-08
2.59246e-08
3.58592e-08
7.39532e-08
2.80448e-07
2.72383e-06
0.000167071
0.00016707
0.00016707
0.000167069
0.00016707
0.000167069
0.00016707
0.000167069
0.00016707
0.000167069
0.00016707
0.000167069
0.00016707
0.000167069
0.000167069
0.000167069
0.000167069
0.000167068
0.000167068
0.000167068
0.000167068
0.000167067
0.000167067
0.000167067
0.000167067
0.000167067
0.000167068
0.000167068
0.00016707
0.000167071
0.000167073
0.000167074
0.000167077
0.000167079
0.000167082
0.000167085
0.000167087
0.000167089
0.00016709
0.000167092
0.000167091
0.000167093
0.000167094
0.000167097
6.33697e-09
7.09979e-10
4.53488e-10
8.24483e-10
4.01311e-09
9.59315e-08
1.07292e-06
1.23444e-08
1.41357e-09
3.91336e-10
1.71177e-10
9.92367e-11
7.33338e-11
7.13837e-11
9.3306e-11
1.48263e-10
1.9915e-10
1.50044e-10
7.73794e-11
4.15359e-11
2.73495e-11
2.23578e-11
2.20583e-11
2.55026e-11
3.39799e-11
5.23042e-11
9.51744e-11
2.13284e-10
6.1993e-10
2.42729e-09
1.17398e-08
4.23343e-08
6.67001e-08
8.10962e-08
1.45016e-07
5.00511e-07
4.52493e-06
0.000167071
0.000167069
0.00016707
0.000167069
0.00016707
0.000167069
0.00016707
0.000167069
0.00016707
0.000167069
0.00016707
0.000167069
0.00016707
0.000167069
0.000167069
0.000167068
0.000167069
0.000167068
0.000167068
0.000167067
0.000167067
0.000167066
0.000167067
0.000167066
0.000167067
0.000167066
0.000167068
0.000167067
0.00016707
0.00016707
0.000167073
0.000167074
0.000167078
0.00016708
0.000167083
0.000167085
0.000167087
0.00016709
0.00016709
0.000167093
0.000167092
0.000167095
0.000167096
4.28521e-09
9.82059e-10
9.49283e-10
2.70378e-09
2.92849e-08
1.07176e-06
3.85676e-08
3.67357e-09
8.56311e-10
3.19361e-10
1.63792e-10
1.05311e-10
8.12497e-11
7.63821e-11
9.15339e-11
1.42344e-10
2.56895e-10
3.60396e-10
2.62047e-10
1.30026e-10
6.76192e-11
4.25699e-11
3.24973e-11
2.92143e-11
3.02216e-11
3.58012e-11
4.93419e-11
8.18936e-11
1.72207e-10
4.91148e-10
2.0768e-09
1.41126e-08
1.1608e-07
2.82303e-07
2.54183e-07
3.48383e-07
1.03868e-06
8.53943e-06
0.00016707
0.000167069
0.00016707
0.000167069
0.00016707
0.000167069
0.00016707
0.000167069
0.00016707
0.000167069
0.00016707
0.000167069
0.00016707
0.000167068
0.000167069
0.000167068
0.000167068
0.000167067
0.000167067
0.000167066
0.000167066
0.000167065
0.000167066
0.000167065
0.000167066
0.000167065
0.000167068
0.000167067
0.00016707
0.000167071
0.000167074
0.000167076
0.000167079
0.000167082
0.000167085
0.000167088
0.000167089
0.000167092
0.000167092
0.000167095
0.000167096
0.000167099
3.82578e-09
1.61285e-09
2.44119e-09
1.2439e-08
2.66503e-07
6.84538e-08
5.58709e-09
1.2564e-09
4.58004e-10
2.23535e-10
1.36449e-10
9.94611e-11
8.3468e-11
8.0404e-11
9.25169e-11
1.35247e-10
2.61891e-10
6.14467e-10
1.05685e-09
7.1677e-10
2.96737e-10
1.33314e-10
7.4141e-11
4.99895e-11
3.94614e-11
3.58645e-11
3.77512e-11
4.71828e-11
7.28437e-11
1.46637e-10
4.15865e-10
1.88991e-09
1.79674e-08
6.80618e-07
1.70578e-05
1.76174e-06
1.06186e-06
2.25962e-06
1.49106e-05
0.000167069
0.000167069
0.000167069
0.000167069
0.000167069
0.000167069
0.000167069
0.000167069
0.000167069
0.000167069
0.000167069
0.000167068
0.000167069
0.000167068
0.000167068
0.000167067
0.000167067
0.000167066
0.000167066
0.000167065
0.000167066
0.000167065
0.000167066
0.000167065
0.000167066
0.000167067
0.000167068
0.000167069
0.000167072
0.000167074
0.000167077
0.00016708
0.000167083
0.000167086
0.000167089
0.000167092
0.000167094
0.000167095
0.000167096
0.000167099
0.000167101
4.39608e-09
3.23281e-09
8.11705e-09
6.63592e-08
8.73505e-08
8.1134e-09
1.61807e-09
5.6456e-10
2.71021e-10
1.61374e-10
1.14172e-10
9.33072e-11
8.56121e-11
8.68813e-11
9.95806e-11
1.37164e-10
2.48871e-10
6.61978e-10
2.66033e-09
7.77992e-09
3.56263e-09
8.80766e-10
2.95958e-10
1.35266e-10
7.71422e-11
5.2265e-11
4.15502e-11
3.92411e-11
4.5257e-11
6.62728e-11
1.30045e-10
3.72195e-10
1.83945e-09
2.50437e-08
0.000132734
0.000167071
4.65072e-06
2.31377e-06
4.60936e-06
2.92967e-05
0.000167068
0.000167069
0.000167068
0.000167069
0.000167068
0.000167069
0.000167069
0.000167069
0.000167068
0.000167068
0.000167068
0.000167068
0.000167067
0.000167067
0.000167067
0.000167067
0.000167066
0.000167066
0.000167066
0.000167066
0.000167066
0.000167066
0.000167066
0.000167067
0.000167068
0.000167069
0.000167071
0.000167073
0.000167076
0.000167079
0.000167082
0.000167085
0.000167089
0.000167092
0.000167095
0.000167096
0.000167098
0.000167099
0.000167101
0.000167104
6.42965e-09
8.08703e-09
3.19556e-08
7.99901e-08
1.22643e-08
2.21435e-09
7.10526e-10
3.26906e-10
1.90275e-10
1.31712e-10
1.0508e-10
9.46063e-11
9.4037e-11
1.01224e-10
1.18301e-10
1.5676e-10
2.57467e-10
6.04748e-10
2.62432e-09
4.05831e-08
1.92307e-06
2.97535e-08
2.85697e-09
6.78036e-10
2.45155e-10
1.15054e-10
6.6318e-11
4.64598e-11
4.00055e-11
4.33602e-11
6.12737e-11
1.19098e-10
3.49948e-10
1.89648e-09
3.23658e-08
0.00016707
0.000167069
9.83637e-06
4.94134e-06
1.00844e-05
6.83918e-05
0.000167068
0.000167068
0.000167068
0.000167068
0.000167068
0.000167068
0.000167068
0.000167068
0.000167068
0.000167068
0.000167067
0.000167067
0.000167067
0.000167067
0.000167066
0.000167066
0.000167066
0.000167066
0.000167066
0.000167067
0.000167067
0.000167068
0.000167068
0.00016707
0.000167071
0.000167073
0.000167075
0.000167078
0.000167081
0.000167085
0.000167088
0.000167091
0.000167094
0.000167096
0.000167098
0.000167099
0.0001671
0.000167104
0.000167106
1.19451e-08
2.37729e-08
6.61465e-08
1.98968e-08
3.35027e-09
9.69545e-10
4.20823e-10
2.37314e-10
1.61075e-10
1.26341e-10
1.11734e-10
1.09458e-10
1.16754e-10
1.33101e-10
1.60664e-10
2.09608e-10
3.15827e-10
6.19872e-10
1.94475e-09
1.53257e-08
2.86123e-05
0.000167074
1.93531e-07
9.80827e-09
1.57037e-09
4.26323e-10
1.61657e-10
7.97279e-11
5.00176e-11
3.9983e-11
4.14123e-11
5.73759e-11
1.12347e-10
3.43806e-10
2.02323e-09
4.11464e-08
0.000167069
0.000167068
2.10729e-05
1.11545e-05
2.48366e-05
0.000167067
0.000167068
0.000167067
0.000167068
0.000167067
0.000167068
0.000167067
0.000167068
0.000167067
0.000167067
0.000167067
0.000167067
0.000167067
0.000167067
0.000167067
0.000167067
0.000167067
0.000167067
0.000167067
0.000167068
0.000167068
0.000167069
0.00016707
0.000167072
0.000167073
0.000167075
0.000167078
0.00016708
0.000167083
0.000167086
0.000167089
0.000167091
0.000167094
0.000167096
0.000167098
0.000167098
0.000167101
0.000167103
0.000167107
2.66709e-08
5.33669e-08
3.15699e-08
5.70005e-09
1.46075e-09
5.85695e-10
3.18357e-10
2.12594e-10
1.65385e-10
1.45441e-10
1.41617e-10
1.50245e-10
1.71236e-10
2.06392e-10
2.59221e-10
3.39603e-10
4.81905e-10
8.06836e-10
1.82133e-09
6.67953e-09
5.73583e-08
2.522e-05
0.000167075
6.69581e-06
4.06244e-08
3.51209e-09
6.85423e-10
2.11143e-10
9.07049e-11
5.19288e-11
3.92075e-11
3.94694e-11
5.45812e-11
1.09689e-10
3.56244e-10
2.35611e-09
6.38905e-08
0.000167068
0.000167066
4.78996e-05
2.79571e-05
7.19577e-05
0.000167067
0.000167068
0.000167067
0.000167068
0.000167067
0.000167068
0.000167067
0.000167068
0.000167067
0.000167067
0.000167067
0.000167067
0.000167067
0.000167067
0.000167067
0.000167067
0.000167068
0.000167068
0.000167069
0.00016707
0.00016707
0.000167072
0.000167073
0.000167075
0.000167077
0.000167079
0.000167081
0.000167084
0.000167086
0.000167088
0.000167091
0.000167092
0.000167094
0.000167095
0.000167097
0.000167098
0.000167102
0.000167104
5.5229e-08
4.35292e-08
1.01904e-08
2.42328e-09
8.84473e-10
4.57076e-10
3.00558e-10
2.34371e-10
2.08118e-10
2.05263e-10
2.20635e-10
2.5444e-10
3.10833e-10
3.97244e-10
5.22846e-10
6.99398e-10
9.59021e-10
1.41638e-09
2.46338e-09
5.64547e-09
1.98177e-08
1.61234e-07
1.52122e-05
0.000167075
0.000167075
1.56229e-07
7.03512e-09
1.00308e-09
2.56277e-10
9.78401e-11
5.21127e-11
3.79047e-11
3.78643e-11
5.34528e-11
1.13119e-10
4.03583e-10
3.19328e-09
1.45035e-07
0.000167068
0.000167066
0.000110387
7.26977e-05
0.000167067
0.000167066
0.000167068
0.000167067
0.000167068
0.000167067
0.000167068
0.000167067
0.000167068
0.000167067
0.000167068
0.000167067
0.000167068
0.000167067
0.000167068
0.000167068
0.000167069
0.000167069
0.00016707
0.000167071
0.000167072
0.000167073
0.000167074
0.000167076
0.000167077
0.000167079
0.000167081
0.000167083
0.000167085
0.000167087
0.000167088
0.000167089
0.00016709
0.000167092
0.000167093
0.000167095
0.000167097
0.000167101
6.07582e-08
1.79607e-08
4.24181e-09
1.42834e-09
6.96691e-10
4.48865e-10
3.52999e-10
3.21527e-10
3.28249e-10
3.67224e-10
4.41791e-10
5.62095e-10
7.46467e-10
1.02399e-09
1.43059e-09
1.98889e-09
2.6952e-09
3.60168e-09
5.06279e-09
8.33024e-09
1.8219e-08
6.32085e-08
4.87748e-07
1.36412e-05
0.000167075
0.000167074
6.43837e-07
1.28335e-08
1.33417e-09
2.88541e-10
1.00348e-10
5.09945e-11
3.66529e-11
3.7308e-11
5.53264e-11
1.27476e-10
5.23731e-10
5.47587e-09
7.39707e-07
0.000167068
0.000167066
0.000167068
0.000167066
0.000167068
0.000167067
0.000167068
0.000167067
0.000167068
0.000167067
0.000167068
0.000167067
0.000167068
0.000167068
0.000167068
0.000167068
0.000167069
0.000167069
0.000167069
0.000167069
0.00016707
0.000167071
0.000167072
0.000167073
0.000167074
0.000167075
0.000167077
0.000167078
0.00016708
0.000167081
0.000167083
0.000167084
0.000167085
0.000167086
0.000167087
0.000167087
0.000167088
0.000167089
0.000167091
0.000167093
0.000167096
3.22572e-08
7.67649e-09
2.4051e-09
1.10499e-09
6.95637e-10
5.53423e-10
5.23445e-10
5.65199e-10
6.78003e-10
8.84613e-10
1.23053e-09
1.78941e-09
2.67575e-09
4.0694e-09
6.21693e-09
9.2468e-09
1.26612e-08
1.53807e-08
1.74565e-08
2.12028e-08
3.18529e-08
6.69657e-08
2.28937e-07
1.52516e-06
2.77664e-05
0.000167075
0.000167074
4.99819e-06
2.07736e-08
1.58945e-09
3.02257e-10
9.9221e-11
4.9686e-11
3.63963e-11
3.89399e-11
6.27145e-11
1.63867e-10
8.26454e-10
1.33032e-08
5.46818e-05
0.000167067
0.000167067
0.000167068
0.000167068
0.000167068
0.000167068
0.000167069
0.000167068
0.000167069
0.000167068
0.000167069
0.000167069
0.000167069
0.000167069
0.00016707
0.00016707
0.00016707
0.00016707
0.000167071
0.000167072
0.000167073
0.000167073
0.000167074
0.000167075
0.000167077
0.000167078
0.00016708
0.00016708
0.000167082
0.000167082
0.000167083
0.000167083
0.000167084
0.000167083
0.000167084
0.000167084
0.000167086
0.000167086
0.000167088
0.00016709
1.44179e-08
4.20463e-09
1.79813e-09
1.09435e-09
8.79695e-10
8.72723e-10
1.01748e-09
1.35069e-09
1.99855e-09
3.23592e-09
5.61522e-09
1.01843e-08
1.88131e-08
3.47398e-08
6.32327e-08
1.08597e-07
1.55792e-07
1.6283e-07
1.32275e-07
1.06916e-07
1.05658e-07
1.42772e-07
2.86401e-07
9.3957e-07
5.81468e-06
0.000104089
0.000167073
0.000167074
0.000167071
2.79817e-08
1.70282e-09
3.01332e-10
9.73583e-11
4.9783e-11
3.84356e-11
4.47172e-11
8.12033e-11
2.52389e-10
1.68625e-09
5.05238e-08
0.000167068
0.000167068
0.000167069
0.000167068
0.000167069
0.000167069
0.000167069
0.000167069
0.00016707
0.00016707
0.00016707
0.00016707
0.00016707
0.00016707
0.000167071
0.000167071
0.000167071
0.000167072
0.000167072
0.000167073
0.000167074
0.000167075
0.000167076
0.000167077
0.000167078
0.000167079
0.00016708
0.000167081
0.000167081
0.000167082
0.000167082
0.000167083
0.000167083
0.000167083
0.000167082
0.000167083
0.000167083
0.000167084
0.000167085
0.000167088
7.57214e-09
2.99897e-09
1.73401e-09
1.38634e-09
1.43984e-09
1.84219e-09
2.79921e-09
4.95336e-09
1.01308e-08
2.38699e-08
6.43101e-08
1.94109e-07
6.31809e-07
2.13271e-06
7.33019e-06
2.35087e-05
4.38929e-05
2.31601e-05
5.77956e-06
1.75978e-06
8.49215e-07
6.48115e-07
7.7068e-07
1.45696e-06
4.62199e-06
2.79351e-05
0.000167074
0.000167072
0.000167071
0.00016707
3.02845e-08
1.70232e-09
2.97345e-10
9.85083e-11
5.33381e-11
4.49602e-11
5.89559e-11
1.25539e-10
4.87734e-10
4.72013e-09
3.96698e-07
0.00016707
0.000167068
0.000167071
0.000167068
0.00016707
0.000167069
0.00016707
0.00016707
0.00016707
0.00016707
0.000167071
0.000167071
0.000167071
0.000167071
0.000167072
0.000167072
0.000167072
0.000167073
0.000167074
0.000167074
0.000167075
0.000167076
0.000167077
0.000167078
0.000167079
0.00016708
0.000167081
0.000167081
0.000167082
0.000167082
0.000167083
0.000167082
0.000167083
0.000167081
0.000167082
0.000167082
0.000167083
0.000167084
0.000167086
5.05988e-09
2.75787e-09
2.15389e-09
2.29802e-09
3.21251e-09
5.7169e-09
1.28409e-08
3.71774e-08
1.47935e-07
9.29782e-07
1.312e-05
0.000167077
0.000167077
0.000167077
0.000167076
0.000167075
0.000167075
0.000167075
0.000167075
0.000167075
4.48066e-05
9.49521e-06
5.11956e-06
5.16195e-06
8.89091e-06
2.59702e-05
0.000136142
0.000167071
0.000167071
0.00016707
0.00016707
2.97369e-08
1.67966e-09
3.04172e-10
1.07424e-10
6.38894e-11
6.09246e-11
9.32343e-11
2.41623e-10
1.23933e-09
2.02745e-08
3.58238e-05
0.000167071
0.000167069
0.000167072
0.000167069
0.00016707
0.000167069
0.00016707
0.000167069
0.00016707
0.00016707
0.00016707
0.000167071
0.000167071
0.000167071
0.000167071
0.000167073
0.000167073
0.000167073
0.000167074
0.000167075
0.000167076
0.000167077
0.000167078
0.000167079
0.00016708
0.00016708
0.000167081
0.000167081
0.000167082
0.000167081
0.000167081
0.00016708
0.00016708
0.000167079
0.00016708
0.00016708
1.0323e-05
5.42907e-07
4.34143e-09
3.27152e-09
3.52164e-09
5.26583e-09
1.0884e-08
3.21292e-08
1.5084e-07
1.52786e-06
0.00011869
0.000167077
0.000167077
0.000167077
0.000167077
0.000167077
0.000167076
0.000167076
0.000167075
0.000167075
0.000167075
0.000167075
0.000167075
0.000167075
0.000167074
5.44025e-05
4.14497e-05
5.80019e-05
0.000131078
0.000167071
0.000167069
0.00016707
0.000167068
0.000167068
2.87938e-08
1.73827e-09
3.40425e-10
1.32725e-10
8.98408e-11
1.00297e-10
1.85317e-10
6.12978e-10
4.65419e-09
2.00314e-07
0.000167071
0.00016707
0.000167068
0.000167071
0.000167068
0.000167069
0.000167068
0.00016707
0.000167069
0.00016707
0.00016707
0.00016707
0.000167071
0.000167071
0.000167072
0.000167072
0.000167072
0.000167073
0.000167074
0.000167075
0.000167076
0.000167077
0.000167077