/*--------------------------------*- C++ -*----------------------------------*\
  =========                 |
  \\      /  F ield         | OpenFOAM: The Open Source CFD Toolbox
   \\    /   O peration     | Website:  https://openfoam.org
    \\  /    A nd           | Version:  7
     \\/     M anipulation  |
\*---------------------------------------------------------------------------*/
FoamFile
{
    version     2.0;
    format      ascii;
    class       volScalarField;
    location    "15";
    object      k2Write;
}
// * * * * * * * * * * * * * * * * * * * * * * * * * * * * * * * * * * * * * //

dimensions      [0 2 0 0 0 0 0];

internalField   nonuniform List<scalar> 
49920
(
6.79975e-08
5.70682e-11
1.66193e-12
3.51287e-12
3.38192e-12
7.08487e-12
4.39894e-12
1.02624e-12
1.8779e-12
4.63198e-12
3.55002e-12
1.86001e-12
3.13008e-12
1.19957e-12
6.62279e-12
1.44543e-09
8.35494e-07
0.0135299
81739.2
81739.1
81739.3
81739.2
81739.5
81739.5
81739.7
81739.7
81739.9
81739.9
81739.9
81739.8
81739.6
81739.4
81739.3
81739.1
81738.9
81738.7
81738.5
81738.4
81738.4
81738.4
81738.4
81738.2
81738.2
81738.1
81738.1
81737.9
81737.8
81736.9
81737.1
81736.1
81737.9
81735.8
81738.5
81736.2
81740.5
81735.3
81738.5
81736
81740.1
81736.6
81741
81737.2
81742.4
81738.1
81743.7
81739.5
81745.4
81741.4
81746.8
81743.6
81748.2
81746.1
81748.9
81748.3
81748.7
81750.1
81747.8
81752
81747.6
81753.5
6.34288e-08
4.06126e-09
2.39978e-10
5.75063e-12
5.43625e-12
2.2488e-11
3.30407e-12
1.66662e-11
3.99554e-12
5.80022e-12
7.71729e-12
4.61869e-12
2.39934e-12
1.68785e-11
5.84266e-10
1.4823e-08
1.37372e-06
0.81066
81739.3
81739.4
81739.4
81739.6
81739.5
81739.8
81739.7
81739.9
81739.8
81739.9
81739.8
81739.5
81739.5
81739.1
81739.1
81738.8
81738.7
81738.3
81738.2
81738
81737.9
81737.7
81737.6
81737.4
81737.4
81737.1
81737.2
81736.8
81736.3
81735.7
81734.9
81736.9
81734.7
81738.1
81734.5
81738.6
81729.9
81736.8
81733
81739
81734.3
81740.6
81735
81742.4
81736.4
81744.4
81738.1
81746.6
81740.7
81748.9
81743.5
81750.8
81746.8
81752.2
81749.8
81752
81751.8
81750.4
81753.2
81749.4
81752.8
81749.6
3.55207e-07
1.75314e-07
9.32612e-09
6.92474e-10
6.35752e-10
1.43518e-09
5.82299e-10
1.21887e-09
6.22401e-10
2.29287e-11
2.13418e-11
2.40092e-11
1.0466e-10
1.08385e-09
1.27963e-08
1.79054e-07
3.78403e-06
0.000353964
81739.8
81739.7
81739.7
81739.7
81739.7
81739.7
81739.8
81739.8
81739.8
81739.6
81739.2
81739.4
81738.8
81739.2
81738.6
81738.9
81738.2
81738.5
81737.9
81738.2
81737.5
81737.9
81737.2
81737.7
81737
81737.6
81736.7
81737
81735.5
81736.4
81736.4
81735.9
81738.3
81734.2
81735.8
81734.1
81736
81734.7
81737.1
81735.8
81738.3
81736.7
81739.5
81738.2
81741.2
81739.9
81743.2
81742.2
81745.6
81744.6
81747.9
81746.9
81749.9
81748.9
81751.2
81749.5
81750.7
81748.4
81749.2
81745.2
81747.4
81748
3.03682e-06
1.30553e-05
1.97638e-07
1.97333e-08
1.52282e-08
3.08743e-08
1.39792e-08
2.61455e-08
1.33377e-08
2.34375e-09
1.42159e-09
1.38852e-09
3.45641e-09
1.01232e-08
2.18323e-07
3.03567e-06
2.68264e-05
0.000334756
0.0140149
81740
81739.7
81739.8
81739.5
81739.9
81739.6
81739.9
81739.5
81739.4
81739
81738.9
81739
81738.9
81738.9
81738.6
81738.5
81738.3
81738.2
81738
81737.9
81737.7
81737.7
81737.5
81737.6
81737.2
81737.2
81736.1
81738.2
81736
81738.8
81736.6
81736.9
81734.6
81737.2
81735.6
81738.3
81735.9
81739
81736.2
81739.8
81736.7
81741.2
81737.8
81743.1
81739.4
81745.2
81741.4
81747.4
81743.8
81749.4
81746.2
81750.6
81748.4
81750.7
81749.5
81748.7
81748.7
81744
81744
81742
81746.4
2.88079e-05
0.684273
3.68619e-06
4.25893e-07
2.23239e-07
4.76199e-07
2.57995e-07
4.53086e-07
2.29775e-07
1.3335e-07
2.10207e-08
3.2269e-08
9.6825e-08
3.69683e-07
3.30597e-06
3.46502e-05
0.000198224
0.000710256
0.00382818
0.0485
4.51399
81739.3
81739.9
81739.4
81740.2
81739.6
81740.1
81739
81739.6
81738.8
81739.8
81738.7
81739.5
81738.4
81739.2
81738
81738.8
81737.6
81738.4
81737.2
81738.2
81737
81737.8
81736.4
81737.2
81737.5
81736.8
81739.4
81735.6
81736.4
81735.2
81737.5
81736.2
81738.3
81736.9
81739.1
81737.2
81739.5
81737.6
81740.4
81738.7
81741.8
81740.3
81743.8
81742.4
81746.1
81744.9
81748.7
81747.5
81750.9
81749.6
81752.5
81750.9
81752.6
81750.3
81750.5
81746
81745.3
81743.6
81745.8
0.000238574
81741.9
7.93066e-05
1.06666e-05
3.21097e-06
5.62327e-06
4.0918e-06
5.07365e-06
2.61656e-06
1.57844e-05
6.06245e-07
1.63837e-06
4.75203e-06
2.07353e-05
6.50852e-05
0.000240211
0.000790899
0.00162396
0.00339009
0.0112845
0.0734822
1.13877
3131.34
81740.1
81739.9
81740.5
81739.8
81740.3
81739.3
81740.2
81739.1
81740
81738.8
81739.5
81738.2
81739
81737.7
81738.5
81737.1
81738.1
81736.6
81737.4
81735.7
81737.6
81735.6
81737.7
81736.4
81736.6
81735
81736.7
81735.7
81737.5
81735.7
81737.9
81736.2
81739
81736.5
81739.9
81736.9
81741.2
81737.8
81743.1
81739.3
81745.7
81741.7
81748.6
81744.7
81751.5
81748.3
81754
81752
81755.2
81755
81754.5
81756.6
81751.5
81754.2
81746.5
81748.9
81747.9
0.00121539
8.22473
0.00147668
0.0004391
5.54805e-05
5.08717e-05
5.09027e-05
4.26456e-05
2.15967e-05
0.00458813
4.82448e-05
0.000128926
0.00175782
81741.5
0.0139819
0.0030042
0.00270771
0.00331027
0.0044254
0.00772356
0.0205
0.0896989
0.774947
21.506
81740.5
81740.5
81740.6
81740.2
81740.3
81740
81740
81739.4
81739.4
81738.8
81738.8
81738.2
81738
81737.5
81737.4
81736.7
81736.4
81735.6
81736.8
81734.5
81737.8
81732.6
81736
81733.2
81736.7
81733.5
81737.2
81733.5
81737.3
81733.4
81738.3
81733.9
81739.6
81734.3
81741.2
81735
81743.3
81736.3
81746.1
81738.5
81749.4
81741.6
81753
81745.7
81756.2
81750.2
81758.3
81754.6
81758.5
81758
81756.4
81758.6
81752.2
81750.8
81749.3
81751.5
0.00336645
0.777699
0.00801396
0.0357392
0.00174355
0.000441153
0.000397591
0.000274191
0.000127158
0.00131803
81740.7
81740.9
81741.4
81741.7
81741.8
0.213584
0.0230561
0.010961
0.00867605
0.00950568
0.0146537
0.0329702
0.112903
0.643785
7.4936
685.32
81740.6
81740.5
81740.4
81740.1
81739.8
81739.5
81739.2
81738.7
81738.4
81737.9
81737.6
81737
81736.7
81735.9
81735.3
81736.1
81733.9
81737.1
81731
81735.7
81731.9
81735.6
81732.2
81735.5
81732
81735.7
81731.8
81736.3
81732.2
81737.6
81732.9
81739.2
81733.6
81741.3
81734.9
81744
81736.8
81747.3
81739.8
81751.2
81743.6
81755
81748.1
81758
81752.6
81759.3
81756.3
81758.3
81757.7
81755.2
81751.3
81747.7
81748
81751.7
0.00707986
0.162176
0.0108432
0.0488723
3.0861
0.00542749
0.00210329
0.00121202
0.000547372
0.000875238
0.123378
81741
81741.8
521.199
81742.2
81741.8
0.98506
0.0962123
0.0337928
0.0213416
0.0202918
0.0277482
0.0540444
0.152064
0.646929
4.83539
89.8705
81740.4
81740.7
81740
81740.1
81739.3
81739.2
81738.5
81738.3
81737.6
81737.2
81736.6
81736
81735.3
81735.8
81733.6
81736.4
81730.8
81734.9
81731.2
81734.2
81731.4
81734.1
81731.1
81734.3
81731.2
81734.7
81731.5
81735.7
81732.1
81737.1
81732.9
81738.9
81734.1
81741.2
81735.8
81744.3
81738.5
81747.9
81741.9
81751.8
81746.1
81755.4
81750.3
81757.7
81753.9
81758
81755.7
81755.7
81751.6
81747.3
81744
81747.7
81752.5
0.0156811
0.111148
0.0113456
0.0162897
5.70452
0.110512
0.0100357
0.00386161
0.00174505
0.00123002
0.0043901
0.0604914
80.0886
81742.6
36.123
127.111
81741.4
10.0578
0.46093
0.11198
0.0567938
0.0464853
0.0556723
0.0938512
0.221254
0.751122
3.99248
41.9793
2555.49
81741
81739.5
81740.1
81738.7
81739.2
81737.7
81738
81736.5
81736.3
81735.8
81735.3
81734.2
81735.4
81731.7
81733.8
81731.8
81733
81731.7
81733
81731.5
81733.1
81731.8
81733.5
81732.1
81734.2
81732.7
81735.1
81733.5
81736.2
81734.6
81737.8
81736.3
81740.1
81738.7
81743.1
81741.9
81746.8
81745.8
81750.7
81749.8
81754.2
81753.2
81756.5
81755.1
81756.5
81753
81750.4
81745.2
81745.3
81750.4
81756.1
0.041356
0.141049
0.013494
0.0115115
0.0910524
1.22127
0.0499767
0.010651
0.00440711
0.00222507
0.00281497
0.010378
0.139703
65.1743
9.73966
0.886896
0.788917
2.69623
9.06981
2.01136
0.414204
0.169659
0.116688
0.119737
0.172954
0.344774
0.962452
3.99754
29.6632
636.52
81740.5
81739.6
81739.5
81738.5
81738.5
81737.2
81736.6
81736.2
81734.8
81735.6
81733.5
81733.5
81732
81732.9
81731.8
81732.7
81731.8
81733
81732
81733.1
81732.3
81733.5
81732.6
81734
81733.1
81734.7
81733.6
81735.7
81734.3
81737.2
81735.6
81739.4
81737.8
81742.6
81740.9
81746.5
81745
81750.8
81749.8
81754.6
81754.4
81757.4
81757.7
81757.2
81755.9
81751.5
81749.7
81750.5
81757
81762.6
0.130605
0.220775
0.018145
0.0120567
0.0415466
0.85619
0.255536
0.02935
0.00995529
0.00441681
0.00343266
0.0061376
0.0279934
0.377381
1.02282
0.185165
0.0876394
0.0997073
0.222542
0.788912
1.92088
1.19738
0.51652
0.308572
0.2702
0.333359
0.566201
1.33379
4.60867
27.0268
388.544
81739.2
81740.1
81738.2
81738.8
81736.6
81737.1
81734.4
81736.4
81731.7
81734.4
81731.3
81733.6
81730.8
81733.3
81731
81733.8
81731.4
81733.9
81731.5
81734
81731.5
81734.2
81731.7
81734.8
81731.9
81735.4
81732
81736.5
81732.5
81738.3
81733.9
81741.1
81736.6
81745.1
81740.7
81750
81746.2
81755.2
81752.6
81760
81759
81762.8
81762.4
81760.6
81759.7
81756.6
81760.6
81765.7
81772.2
0.476923
0.29729
0.025695
0.0157109
0.0379746
0.449573
1.13915
0.0868574
0.0224344
0.00920439
0.00555956
0.00630299
0.0151398
0.0750303
0.2214
0.0843132
0.0331385
0.0245315
0.0312736
0.0627887
0.183279
0.623776
1.31436
1.14706
0.760037
0.609625
0.657888
0.967347
1.97269
5.9114
29.6743
356.182
80747.5
81739.8
81736.7
81738.2
81734.6
81736.7
81730.7
81735
81731.2
81733.5
81730.3
81732.8
81730.5
81733.5
81731.1
81733.8
81731
81733.5
81730.7
81733.3
81730.6
81733.4
81730.6
81733.8
81730.4
81734.2
81730.4
81735.2
81731.2
81737.4
81733.3
81741.1
81737.2
81746.4
81743.1
81753
81750.7
81760.1
81759.4
81766.4
81767.2
81769.3
81770
81767
81769.2
81768.7
81776.6
81781.4
1.92842
0.308198
0.0365253
0.0235765
0.0491117
0.394492
3.72598
0.286171
0.0537711
0.0199583
0.0104301
0.00874585
0.0134819
0.0372345
0.0938924
0.0597784
0.0232738
0.0133936
0.0121754
0.0163725
0.0307536
0.0767876
0.234048
0.693328
1.32486
1.4372
1.28358
1.30156
1.70747
3.08737
8.27303
37.5271
406.972
53538.4
81738.5
81735
81737.3
81730.8
81735.5
81730.8
81733.1
81730.1
81732.4
81729.9
81732.9
81730.6
81733.3
81730.6
81732.8
81730
81732.2
81729.6
81732
81729.4
81732
81729
81731.9
81728.5
81732.1
81728.6
81733.5
81729.9
81736.5
81733.2
81741.6
81738.9
81748.6
81747.1
81757.2
81757.1
81766.1
81767.6
81773.5
81775.7
81775.9
81778.6
81774.8
81781.2
81782.9
81790.2
6.87934
0.28632
0.0521534
0.0395077
0.0818363
0.549638
10.8467
1.07546
0.138664
0.0443194
0.0208286
0.0142278
0.0158756
0.029141
0.0610478
0.0565563
0.0248224
0.0121985
0.00864647
0.00870215
0.0118203
0.0207471
0.0454318
0.119383
0.349096
0.952135
1.84619
2.34966
2.54495
3.11975
5.10909
12.5049
53.0024
547.299
61077.3
81737.7
81731.9
81736.5
81731.5
81733.2
81730.3
81732.4
81729.9
81732.4
81730.3
81732.8
81730.4
81732.5
81729.8
81731.8
81729.3
81731.3
81728.8
81730.9
81728.3
81730.5
81727.4
81730.1
81726.8
81730.5
81727.3
81732.4
81729.5
81736.4
81734.3
81742.8
81741.8
81751.4
81751.8
81761.6
81763.5
81771.6
81774.5
81778.7
81781.6
81780.7
81784.3
81782.7
81788.8
81791.2
10.2859
0.275273
0.0773036
0.0739105
0.173155
1.20627
50.325
4.3397
0.353887
0.0941579
0.0403567
0.0240871
0.0213207
0.0289387
0.0506855
0.0623391
0.0356251
0.0165159
0.00962866
0.00762801
0.00798223
0.0105875
0.0171973
0.0334115
0.0766238
0.205035
0.612196
1.74796
3.60523
4.92208
5.99976
9.0327
20.3978
82.1349
832.315
81734
81736.5
81733.1
81733.3
81731.6
81732.3
81731
81731.9
81730.9
81732.2
81731.1
81732.2
81730.8
81731.7
81730.3
81731.2
81729.7
81730.7
81729
81729.9
81728
81729
81726.9
81728.4
81726.5
81728.8
81727.5
81731.1
81730.8
81735.8
81736.7
81743.2
81745.4
81753
81756.5
81764.2
81768.1
81774.3
81777.3
81780.7
81782.3
81782.8
81784
81787.7
81792.3
5.92384
0.290857
0.123715
0.15797
0.482412
4.69697
923.847
10.4619
0.677923
0.16284
0.0667429
0.0375065
0.0288585
0.0316818
0.0472016
0.0698731
0.0600388
0.0310048
0.0158511
0.0101668
0.00841612
0.00873587
0.0109805
0.016278
0.0281385
0.0570888
0.138935
0.413639
1.44939
4.74586
9.66904
12.6834
17.5438
36.1803
137.204
1332.56
81735
81733
81733.4
81731.8
81732.6
81731.3
81732.2
81731.3
81732.4
81731.5
81732.4
81731.5
81732
81731.2
81731.5
81730.6
81730.7
81729.8
81729.5
81728.4
81728.1
81727
81727
81726.1
81726.9
81726.5
81728.5
81729
81732.4
81734.2
81739
81742.3
81748.3
81753
81759.2
81764.8
81769.4
81774.8
81776.1
81781
81778.8
81783.9
81784.7
81791.2
3.1006
0.347387
0.221886
0.403405
1.96352
46.9365
524.947
6.03966
0.691609
0.191467
0.0837508
0.0485533
0.03588
0.034926
0.0456521
0.0725411
0.0974378
0.0734111
0.0378586
0.0203217
0.0133809
0.0109387
0.0107923
0.0124774
0.016625
0.0255903
0.0465645
0.10435
0.303305
1.18755
5.74369
20.7119
32.6322
39.6755
70.9448
244.867
2213.66
81734.7
81731.7
81733.7
81730.8
81733
81730.5
81733
81730.8
81733.2
81731.1
81733.2
81731.1
81732.8
81730.6
81732
81729.7
81730.7
81728.2
81729
81726.3
81727.3
81724.5
81726.1
81723.5
81726.2
81724.1
81728.3
81727
81732.8
81733
81740.2
81742.2
81750
81754
81760.8
81766.2
81770.1
81776.3
81776.1
81782.4
81780.6
81787.5
81790.1
2.09672
0.480518
0.464478
1.32293
14.3285
524.387
18.87
1.79736
0.418965
0.156253
0.0801384
0.0515257
0.0397532
0.0373718
0.0447853
0.0696453
0.125691
0.17633
0.128209
0.0636161
0.0330832
0.0208277
0.0158997
0.0142934
0.0147862
0.0175161
0.024141
0.0400673
0.0842526
0.240296
1.01607
6.90444
56.7914
138.109
124.357
170.436
508.15
4177.57
81733.9
81730.9
81732.9
81730.2
81732.6
81730.4
81732.9
81730.8
81733.1
81730.9
81732.8
81730.6
81732.1
81729.7
81730.8
81728.2
81729
81726.2
81727
81724.1
81725.2
81722.4
81724.3
81721.8
81724.9
81723.2
81727.8
81727.3
81733.5
81734.8
81742.3
81745.7
81753.6
81758.8
81765.4
81771.7
81775.4
81781.9
81781.7
81786.8
81789.4
81796
1.87193
0.789166
1.19447
6.08632
130.396
33.4932
2.73363
0.61472
0.224088
0.109369
0.0667609
0.0486637
0.0408389
0.0393398
0.0452665
0.0661733
0.128136
0.300639
0.517077
0.350686
0.145181
0.0652251
0.0362742
0.0244579
0.0193069
0.0175471
0.0184703
0.0230847
0.0356392
0.0717428
0.203457
0.924641
8.79017
332.988
8345.12
861.883
519.478
1105.44
7294.36
81732
81730.5
81731.3
81730.3
81731.5
81730.6
81731.7
81730.8
81731.7
81730.5
81731.1
81729.7
81730
81728.3
81728.4
81726.5
81726.6
81724.5
81724.7
81722.8
81723.5
81721.9
81723.4
81722.5
81725.2
81725.5
81729.7
81731.6
81737.5
81741.3
81748.6
81754.2
81762.1
81768.6
81775.5
81781.3
81785.5
81788.4
81790.8
81795.9
81800.9
2.15099
1.58183
3.97171
32.4696
42.7402
3.9698
0.791696
0.276228
0.132605
0.0789565
0.0558616
0.0456532
0.0418882
0.0425092
0.0487227
0.0671112
0.121766
0.323885
1.3016
3.8064
1.74305
0.430922
0.1448
0.06618
0.0377425
0.0255713
0.020329
0.019199
0.0221424
0.0324237
0.0636253
0.182087
0.899947
12.2521
64936.3
81734.5
2275.18
1131.92
2254.91
14332.1
81729.6
81730.2
81729.5
81730.3
81729.8
81730.5
81729.9
81730.3
81729.6
81729.7
81728.8
81728.6
81727.6
81727.1
81726.1
81725.5
81724.6
81724.2
81723.6
81723.5
81723.4
81724.1
81724.8
81726.6
81728.5
81731.8
81735.4
81740.3
81745.9
81752.4
81759.6
81766.7
81774.6
81780.7
81787.4
81790.5
81793.7
81796.6
81801.4
81808.2
3.146
3.95703
15.6362
39.1397
6.00095
1.08347
0.347654
0.159951
0.0930987
0.0644443
0.0514137
0.0462891
0.0460105
0.0495268
0.0578822
0.076699
0.125972
0.295884
1.28398
19.8557
940.879
14.5572
1.3978
0.331735
0.119945
0.0562916
0.0324469
0.0227309
0.0195727
0.0212142
0.0299773
0.0582694
0.171205
0.927808
15.834
81732.1
81731.9
4811.96
2417.3
4933.25
33457
81728.2
81729.1
81728.4
81729.2
81728.5
81729.2
81728.5
81728.9
81728
81728.3
81727.2
81727.3
81726.2
81726.2
81725.1
81725.4
81724.5
81725.2
81724.6
81726
81726
81728.4
81729.4
81733.1
81735.4
81740.6
81744.7
81751.4
81757.2
81764.7
81771.6
81778.7
81785
81790.1
81794.1
81797
81799.6
81806.4
81812
5.84474
11.6323
32.3663
9.73576
1.63931
0.474402
0.205908
0.116116
0.0788123
0.0618173
0.0546697
0.0535562
0.0571254
0.0651239
0.0786096
0.102556
0.154526
0.303285
0.951498
7.4983
13998.8
81742.7
94.6871
4.7988
0.768322
0.208584
0.0790923
0.0390076
0.0244712
0.0195616
0.0202607
0.0280707
0.054964
0.168198
0.989794
20.1288
81730.2
81727.7
10308.8
5456.61
12149.9
81727.1
81728
81727.2
81728.2
81727.4
81728.2
81727.4
81728
81727.2
81727.5
81726.7
81726.7
81726.1
81726.1
81725.8
81725.8
81726
81726.3
81727.1
81728
81729.6
81731.1
81733.8
81736.3
81740.5
81744.3
81750
81755
81761.8
81767.5
81774.4
81779.3
81785.8
81789
81794.1
81794.9
81801.2
81805.4
81812.9
13.0501
26.113
15.4476
2.78912
0.714764
0.286585
0.155773
0.104022
0.0809221
0.0711628
0.0692915
0.0735128
0.0837829
0.100983
0.126831
0.166159
0.235783
0.39476
0.891114
3.26805
28.0632
12339.1
81743.1
3276.01
19.876
1.71833
0.335354
0.103302
0.0443779
0.0254053
0.0191821
0.0193095
0.0267025
0.0536615
0.174276
1.15261
31.2542
81729.2
81725.1
23432.1
13676
35201
81725.8
81727.9
81725.9
81728.1
81726.1
81728
81726.1
81727.7
81725.9
81727.2
81725.8
81726.9
81725.8
81726.9
81726.3
81727.6
81727.7
81729.3
81730.1
81732.3
81734.1
81737
81740
81743.6
81748.1
81752.5
81757.5
81762.7
81767.9
81772.5
81777.8
81780.8
81785.6
81787.4
81792.2
81795
81802
81807.5
27.0236
21.2993
4.9863
1.18575
0.432784
0.223651
0.147064
0.114678
0.101831
0.100434
0.107954
0.124494
0.152085
0.194363
0.255816
0.342197
0.469222
0.692991
1.20525
2.76213
9.69608
78.8859
7442.76
81743.5
81743.2
76.4373
3.44195
0.49077
0.125379
0.0478683
0.0254948
0.018544
0.0185238
0.0261496
0.0553377
0.19743
1.56213
70.9477
81728.5
81724.3
54000.1
35562
81727.4
81725.3
81727.8
81725.5
81728
81725.7
81727.9
81725.9
81727.8
81726.1
81727.7
81726.4
81727.9
81727.1
81728.6
81728.4
81730.2
81730.8
81732.9
81734.2
81736.8
81739
81742.1
81745.7
81749.2
81753.4
81757.7
81761.3
81765.6
81769.1
81772
81775.1
81777.3
81780.4
81782.7
81788.2
81793
81799.8
29.729
8.78835
2.07558
0.698911
0.3409
0.219633
0.172724
0.157323
0.160611
0.17968
0.216164
0.275025
0.365232
0.501017
0.699948
0.973108
1.31868
1.76219
2.47705
4.07569
8.91392
30.9256
238.637
6674.12
81743.9
81742.6
315.005
6.27866
0.652739
0.141162
0.0490926
0.0249469
0.0179309
0.0182509
0.0270654
0.0623602
0.256205
2.67877
361.849
81727.8
81724.4
81727.7
81725.5
81727.7
81725.9
81728.3
81726.3
81728.7
81726.9
81729
81727.4
81729.2
81728
81729.6
81728.7
81730.2
81729.9
81731.6
81731.9
81733.6
81734.7
81736.9
81738.6
81741.5
81744.2
81747.5
81750.8
81754
81756.5
81760.5
81764.4
81766.4
81768
81769.5
81770.6
81772.4
81775.1
81778.3
81783.3
81789
15.7833
3.75617
1.17685
0.540686
0.340382
0.270793
0.256123
0.276551
0.331743
0.432834
0.602083
0.875529
1.30919
1.99106
3.04177
4.52418
6.19475
7.52529
8.54089
10.3738
15.5845
32.7639
112.011
746.205
13585.1
81743.3
81741.6
2445.34
10.1632
0.777592
0.147869
0.0485396
0.0243068
0.017805
0.0190492
0.0306792
0.0801621
0.404294
6.50788
26749.4
81727.3
81726.4
81728.4
81727.8
81729
81728.2
81730
81729
81730.6
81729.8
81731.1
81730.5
81731.6
81731.3
81732.4
81732.3
81733.7
81734.1
81735.6
81736.7
81738.6
81740.1
81742.6
81744.2
81747.4
81749.8
81754.5
81755.1
81758.5
81759
81761.8
81761.4
81763.9
81762.4
81764.5
81763.2
81766.9
81767.6
81773.1
81777.4
7.05459
2.05735
0.879842
0.535477
0.430441
0.427026
0.497855
0.66089
0.977877
1.5833
2.74745
4.98302
9.20492
16.9974
30.9381
53.1331
76.2241
79.6671
64.7174
52.3104
51.6945
69.8532
140.125
459.699
2844.89
50927
81739.6
81740.9
81735.4
13.6894
0.833034
0.147416
0.0476273
0.0243537
0.018802
0.0218753
0.0397238
0.123467
0.824904
24.716
81729.3
81727.8
81730.5
81729.3
81731.6
81730.8
81731.3
81731.5
81732.1
81732.1
81733
81732.8
81733.7
81733.9
81734.5
81735.6
81736.3
81737.6
81738.3
81739.7
81741.2
81743.2
81746.3
81748.1
81750.1
81752.9
81754
81756.4
81757.7
81759.4
81760.1
81761.4
81760.9
81761.3
81760.1
81761.1
81760.8
81763.5
81766.2
81772
3.70499
1.4674
0.84846
0.678343
0.704517
0.901383
1.36965
2.42365
4.9569
11.6793
31.466
94.9746
309.133
1043.49
3586.46
11502.1
21475.4
11331.5
2827.74
860.996
415.489
317.099
377.065
712.833
2261.36
13667.2
81741.9
81737.3
81735.6
81732.1
14.8154
0.832762
0.145458
0.0481881
0.026092
0.0219937
0.0288405
0.0614134
0.238597
2.30913
194.065
81733.7
81729.8
81734.8
81729.5
81733.4
81731.9
81733.1
81732.2
81734
81732.9
81734.6
81734.5
81735.3
81736.2
81736.7
81738
81737.9
81739.4
81741.6
81742.7
81744.7
81746.3
81749
81750.4
81753.5
81754
81757.5
81756.9
81760.1
81758.8
81761.3
81758.9
81760.4
81758
81759.6
81758.3
81761.4
81763.7
81768.3
2.47574
1.34942
1.0539
1.12442
1.57188
2.79727
6.28301
18.1907
72.3832
454.931
6419.41
81748.2
81747.9
81747.2
81746
81744.8
81744.3
81744.2
81744
81743.9
21922.3
4645.66
2504.83
2525.53
4350
12706
66607.1
81736
81734.9
81732.8
81733.7
14.5477
0.821712
0.148802
0.0525519
0.0312542
0.0298044
0.0456104
0.118206
0.606294
9.91874
17525.4
81735.3
81731.4
81737.1
81730
81732.9
81731.4
81733.2
81731.6
81733.5
81733.5
81734.1
81734.7
81734.9
81736.2
81736.3
81739.4
81739
81740.2
81742
81743.9
81746.5
81748.2
81750.8
81751.7
81754.5
81754.5
81757.1
81756
81758.3
81756
81757.5
81754.4
81755.8
81753.3
81755.6
81755.3
5051.38
265.672
2.12421
1.60074
1.72313
2.57656
5.3255
15.7207
73.8052
747.57
58073.6
81748.4
81748.1
81748.1
81748.1
81747.6
81746.4
81745
81744.4
81744.3
81744.3
81743.8
81743.5
81744.3
81742.5
26617.5
20279.2
28377.9
64127.2
81735.9
81731.8
81732.5
81729
81728.5
14.0852
0.850315
0.166527
0.0649274
0.0439501
0.0490661
0.0906597
0.299881
2.27698
97.9992
81735.3
81732.2
81729.4
81734.4
81729.1
81731.8
81729.7
81732.3
81731.6
81732
81732.4
81732.8
81735.7
81734.7
81736.5
81736.8
81738.4
81739.4
81741.7
81743.4
81745.7
81747.5
81749.2
81750.9
81751.7
81753.2
81752.7
81753.8
81752.2
81752.5
81749.8
81749.6
81746.7
81747.4
81745.3
4067.39
93.1736
14.3324
2.34993
2.49802
3.91175
9.15962
35.0813
290.742
15657.1
81749.6
81748.7
81748
81747.7
81747.9
81748.3
81748.1
81747
81745.4
81744.5
81744.3
81744
81743.7
81743.6
81743.1
81743.4
81740.7
81742.4
81738.5
81735.9
81732.8
81730.5
81728.1
81726.2
81725.2
81725.3
14.6995
0.993622
0.216567
0.0956896
0.0769844
0.106766
0.261616
1.34622
26.6903
81731
81736.7
81732.3
81730.2
81731.1
81729
81732.6
81729.9
81730.6
81731.9
81733.3
81735.1
81733.4
81736
81735.5
81738
81738
81740.5
81741.4
81744
81745.4
81747.2
81749.3
81749.2
81752.2
81749.5
81753
81748.3
81751.3
81745.4
81747.2
81741
81743
81738.2
81743.3
242.662
14.6994
4.14955
3.40964
5.37762
13.7786
65.9431
961.659
81750.3
81750.4
81749.6
81748.5
81747.6
81747.3
81747.6
81748.3
81748.5
81747.6
81745.9
81744.7
81744.3
81744.2
81743.8
81744
81742.2
81742.9
81740.9
81741.7
81736.3
81735
81730.2
81729.9
81727.2
81729.8
81729.5
81733.9
81734.3
18.7508
1.40986
0.346423
0.18598
0.212719
0.493895
2.59248
54.1892
81749
81736.3
81735.6
81734.1
81735.5
81726.7
81729
81729.3
81735.2
81733.2
81735.1
81734.3
81736.9
81735.5
81738.8
81737.7
81741
81740.5
81744
81744.5
81747
81749
81749.2
81753.1
81749.5
81755.5
81748.7
81755.2
81746.2
81751.3
81741.4
81746.2
81738
81746.2
10526.4
79.6509
10.2627
6.78608
6.75207
17.5809
96.614
2221.1
81749.3
81750.4
81750.7
81749.8
81748.3
81747.1
81746.7
81747.1
81748.1
81748.8
81748.3
81746.5
81745.1
81744.6
81744.7
81744.6
81742.8
81743.1
81739.1
81742.5
81736.8
81736.1
81730.9
81730.6
57991.9
40514.5
37713.3
53391.7
81728.3
81729.9
81729.4
30.2067
2.65818
0.914001
1.1123
12.53
3006.44
81735.9
81728.4
81725.9
81729.8
81724
81711.3
81729.6
81716.7
81731.2
81729.1
81730.9
81732.4
81735.8
81733.9
81738.3
81736.6
81740.9
81739.7
81744.3
81743.9
81748.1
81749
81751.4
81754.2
81753.2
81759.1
81755.1
81763.1
81755.5
81763.2
81751.9
81758.7
81747.5
81757
81750.5
4756.85
141.905
67.2907
81795
19.7477
107.048
2821.28
81748.1
81749.2
81750.8
81751.2
81750.2
81748.3
81746.7
81746
81746.4
81747.6
81748.9
81748.9
81747.3
81745.5
81745.1
81745
81744.7
81743.1
81741.2
66187.3
65971.7
78402.1
81733.9
81731.1
61968
35196.1
21388.4
15890
15646.4
24434.1
81722.7
81727.9
81735.5
88.6396
22.5727
292.297
9.33402
81768.3
81768
81753.3
81735.1
81718
81710.9
81712.4
81707.3
81717.3
81711.3
81721.8
81719
81728.5
81727.2
81732.2
81731.7
81736.6
81735.8
81741.5
81741.2
81747.4
81747.9
81753.4
81754.6
81757.7
81761.6
81763.7
81771.7
81770.9
81782.7
81772.1
81782.4
81765.9
81776.3
81763.9
81769.6
15723.3
81774.9
81804.3
0.000291752
100.148
2090.13
81748.4
81748.3
81749.6
81751.6
81752.1
81750.7
81748.3
81746.3
81745.3
81745.5
81746.9
81748.7
81749.4
81748.1
81746
81745.2
81745.4
81743.9
81743.6
55170.9
38919.2
32635
32669.4
37112.1
41621.2
37730.1
25722.6
15394.1
9870.12
7649.88
7882.49
12648.7
42981.5
81747.3
81747.4
81741.9
81732
0.00181102
3.41687e-05
3.46923e-06
8.06989e-07
3.27812e-07
2.10949e-07
2.11467e-07
3.49923e-07
1.16773e-06
1.64563e-05
81698
81702.6
81708.4
81712.4
81719.5
81720.2
81726.8
81726.4
81733
81732.9
81741.1
81742
81751.2
81751.9
81760.3
81760.8
81769.7
81773.7
81784.7
81800
81795.2
81812.9
81790.5
81799.9
81773.7
81778.7
81765
81766.5
81786.6
1.33472e-05
2.15798e-07
1302.01
81750.3
81749.1
81748.9
81750.5
81752.6
81753
81751.4
81748.5
81746
81744.5
81744.6
81745.9
81748.1
81749.6
81748.9
81746.7
81745.3
81745.1
81744.4
81742.6
57001.2
37485.4
28104.5
24729.2
25346.6
28291.4
29542.9
24234.2
15385.3
8933.32
5622.33
4252.89
4217.85
6070.58
18586.6
81727.3
81716.7
81701
5.13157e-05
1.09434e-06
1.13441e-07
2.57862e-08
1.00562e-08
6.09869e-09
5.62376e-09
7.92931e-09
1.77898e-08
7.03175e-08
6.45362e-07
5.67961e-05
81696.4
81703.3
81704.4
81711.3
81712.7
81719.5
81719.8
81727.4
81728.4
81739.1
81741.6
81755
81755.6
81770.2
81768.8
81789.8
81801.2
81810.8
81838.4
81821
81827.1
81789
81792.6
81778.4
81783.4
81784.7
3.42427e-06
7.85582e-08
8.74083e-09
81751
81750.9
81750
81750
81751.6
81753.7
81754.1
81752.1
81748.8
81745.8
81743.9
81743.5
81744.7
81747.1
81749.3
81749.3
81746.7
81745
81743.4
81744.5
81740.6
81743
56007.7
38245.7
29988.6
27540.3
28936.2
31746.1
30582.9
22048.2
12231.8
6230.16
3398.17
2176.63
1756.89
2089.68
6120.48
81730.8
81724.7
4.35953e-06
1.13081e-07
1.20932e-08
2.64736e-09
9.61639e-10
5.48114e-10
4.84196e-10
6.52591e-10
1.29462e-09
3.62741e-09
1.38455e-08
6.7526e-08
3.70631e-07
2.27386e-06
3.51675e-05
81697.6
81702.5
81705.1
81711.4
81713.3
81719.4
81723
81734.1
81740.6
81757.3
81761.4
81783.8
81790.3
81817.5
81846.2
81841.6
81854.7
81821.2
81812.7
8.14486e-05
8.5e-06
1.97128e-06
2.87013e-07
3.03821e-08
4.20606e-09
9.03727e-10
81752.2
81752.3
81751.7
81751.7
81753.3
81755.1
81755.1
81752.8
81749.2
81745.7
81743.3
81742.5
81743.3
81745.6
81748.3
81749.1
81747.1
81744.2
81743.5
81741.8
81743.6
81739.6
81738
81735.3
58232.7
47235.2
45164
48743.8
53011
47473.7
28300.3
11447.3
3983.36
1472.56
671.436
467.736
832.853
81749.6
81736.8
6.92677e-07
2.21533e-08
2.39341e-09
4.84424e-10
1.55966e-10
7.9762e-11
6.71477e-11
9.02723e-11
1.7304e-10
4.13767e-10
1.10488e-09
3.0252e-09
8.13293e-09
2.29428e-08
8.71013e-08
7.52886e-07
0.000195706
81693.8
81698.8
81702.6
81707.7
81710
81717.9
81726.5
81740.3
81760.2
81777.3
81814
81833.2
81838.4
81866.7
4.07938e-05
1.56544e-06
2.3025e-07
6.95555e-08
3.40468e-08
1.79809e-08
6.83247e-09
1.85233e-09
4.78859e-10
1.4366e-10
81752.3
81753
81752.8
81753
81754.3
81755.9
81755.8
81753.4
81749.5
81745.6
81742.8
81741.5
81741.8
81743.7
81746.7
81748.5
81747.4
81743.8
81743.7
81740.4
81743.6
81738.2
81739.2
81734.9
81736
81731.8
81732.3
81727.4
81726.8
81723.2
81725.4
46623.9
7071.23
1176.22
304.953
158.929
293.919
81737.2
0.000746683
1.69356e-07
6.65061e-09
7.23962e-10
1.31846e-10
3.57593e-11
1.55822e-11
1.22683e-11
1.67024e-11
3.1839e-11
6.92075e-11
1.52527e-10
3.26039e-10
6.8665e-10
1.55335e-09
4.37482e-09
1.78547e-08
1.1112e-07
7.21669e-07
2.73893e-06
7.60109e-06
3.07772e-05
0.000628043
81706.6
81714.1
81723.1
81740.8
0.000227564
1.32887e-05
2.33931e-06
5.95286e-07
1.80184e-07
5.64425e-08
1.76677e-08
6.23078e-09
2.88573e-09
1.74075e-09
1.11403e-09
5.7561e-10
2.25085e-10
7.86389e-11
2.92279e-11
81753.5
81754.3
81754.1
81754.2
81755.3
81756.7
81756.3
81753.8
81749.8
81745.7
81742.4
81740.6
81740.4
81741.8
81744.7
81746.9
81746.7
81744.8
81742.7
81745.3
81740.9
81739.3
81736.7
81734.4
81731.5
81729.8
81728.6
81728.2
81729.9
81733.5
81738.9
81744.6
18122.2
1025.56
170.932
81.8555
200.346
81727
1.90638e-05
5.65933e-08
2.74402e-09
3.04574e-10
5.06878e-11
1.16615e-11
4.31382e-12
3.15963e-12
4.26962e-12
7.77917e-12
1.50648e-11
2.85216e-11
5.28482e-11
1.00204e-10
2.09467e-10
5.16734e-10
1.49239e-09
4.38527e-09
1.04396e-08
1.89352e-08
3.07553e-08
4.97557e-08
7.94662e-08
1.18946e-07
1.48788e-07
1.38732e-07
1.00997e-07
6.39323e-08
3.62223e-08
1.88883e-08
9.65327e-09
4.94498e-09
2.455e-09
1.14365e-09
5.38312e-10
2.92323e-10
1.91645e-10
1.34151e-10
8.10209e-11
3.87804e-11
1.65582e-11
7.59276e-12
81753.5
81754.6
81754.8
81755
81755.9
81757.1
81756.7
81754.1
81750
81745.7
81742.1
81739.9
81739.2
81740.3
81741.9
81745.8
81744
81747
81740.8
81746.3
81738.4
81741.1
81733.3
81735.3
81728.3
81732.1
81727.8
81733.9
81733.1
81740.9
81742.6
81751.6
42108.7
976.162
132.442
68.126
263.529
81747
2.83583e-06
2.3876e-08
1.41656e-09
1.65638e-10
2.68817e-11
5.79821e-12
2.03763e-12
1.46681e-12
1.87019e-12
2.92636e-12
4.60063e-12
7.14838e-12
1.15019e-11
2.02699e-11
4.07874e-11
9.22308e-11
2.12591e-10
4.35282e-10
7.40374e-10
1.10973e-09
1.59141e-09
2.2229e-09
2.96891e-09
3.70922e-09
4.13341e-09
3.91135e-09
3.22893e-09
2.45094e-09
1.71559e-09
1.11295e-09
6.95728e-10
4.28282e-10
2.53066e-10
1.39195e-10
7.46153e-11
4.36298e-11
2.9877e-11
2.23425e-11
1.54121e-11
8.98951e-12
4.88107e-12
2.98493e-12
81754.2
81754.9
81754.9
81754.8
81755.7
81756.9
81756.5
81754.2
81750.2
81745.8
81742
81739.5
81738.7
81738.9
81741.5
81741.1
81747.2
81738.9
81748.3
81739.7
81743.2
81736.4
81739.1
81732.3
81735
81729.5
81732.7
81728.5
81731.6
81730.9
81739.8
81741.3
72864.9
1178.51
168.279
107.01
898.951
81769.9
6.81578e-07
1.11956e-08
8.15826e-10
1.04577e-10
1.79723e-11
4.19505e-12
1.67203e-12
1.31019e-12
1.55757e-12
1.97304e-12
2.35916e-12
2.82474e-12
3.73795e-12
5.86209e-12
1.08941e-11
2.17893e-11
4.07174e-11
6.55712e-11
9.40855e-11
1.29933e-10
1.77249e-10
2.33171e-10
2.88667e-10
3.3425e-10
3.56155e-10
3.39836e-10
2.93496e-10
2.37174e-10
1.80017e-10
1.2815e-10
8.77866e-11
5.90827e-11
3.82472e-11
2.30969e-11
1.34649e-11
8.38384e-12
6.06813e-12
4.98973e-12
4.16858e-12
3.28691e-12
2.5537e-12
2.17715e-12
81754.3
81755.2
81755.2
81755.2
81755.8
81756.8
81756.5
81754.2
81750.3
81746.1
81742
81739.3