/*--------------------------------*- C++ -*----------------------------------*\
  =========                 |
  \\      /  F ield         | OpenFOAM: The Open Source CFD Toolbox
   \\    /   O peration     | Website:  https://openfoam.org
    \\  /    A nd           | Version:  7
     \\/     M anipulation  |
\*---------------------------------------------------------------------------*/
FoamFile
{
    version     2.0;
    format      ascii;
    class       surfaceScalarField;
    location    "15";
    object      phi;
}
// * * * * * * * * * * * * * * * * * * * * * * * * * * * * * * * * * * * * * //

dimensions      [0 3 -1 0 0 0 0];

internalField   nonuniform List<scalar> 
99520
(
-6.7716e-09
2.60854e-10
1.38737e-08
-4.49215e-09
5.08356e-09
-2.37706e-09
5.2479e-09
-1.26485e-09
6.25079e-09
1.12374e-10
5.98577e-09
-2.30445e-09
9.77982e-09
-5.52662e-10
5.61121e-09
-2.87587e-10
7.09792e-09
6.14494e-10
6.46092e-09
4.55303e-10
7.52219e-09
3.04278e-10
7.51402e-09
1.46636e-09
6.20091e-09
2.70736e-09
6.12199e-09
4.88841e-09
5.18195e-09
7.32396e-09
4.92745e-09
1.43419e-08
3.45077e-10
1.0326e-08
1.13788e-08
6.49453e-09
1.11943e-08
3.426e-09
1.04314e-08
1.62283e-09
9.16601e-09
8.02851e-10
8.18287e-09
4.49106e-10
7.71663e-09
2.73527e-10
7.53852e-09
1.73546e-10
7.46292e-09
1.11899e-10
7.42465e-09
7.11608e-11
7.40374e-09
4.26881e-11
7.39154e-09
2.18886e-11
7.38387e-09
6.17792e-12
7.37881e-09
-6.06729e-12
7.37534e-09
-1.5864e-11
7.37285e-09
-2.38618e-11
7.37103e-09
-3.05122e-11
7.36964e-09
-3.61188e-11
7.36859e-09
-4.09169e-11
7.36775e-09
-4.50622e-11
7.36709e-09
-4.86674e-11
7.36652e-09
-5.17936e-11
7.36605e-09
-5.44909e-11
7.36562e-09
-5.68105e-11
7.36526e-09
-5.87863e-11
7.36491e-09
-6.04515e-11
7.3646e-09
-6.18251e-11
7.3643e-09
-6.29277e-11
7.36402e-09
-6.37711e-11
7.36375e-09
-6.43794e-11
7.36349e-09
-6.47644e-11
7.36324e-09
-6.49553e-11
7.36299e-09
-6.49227e-11
7.36275e-09
-6.47021e-11
7.36251e-09
-6.42232e-11
7.36231e-09
-6.3648e-11
7.36207e-09
-6.27656e-11
7.36196e-09
-6.18563e-11
7.36175e-09
-6.06671e-11
7.36173e-09
-5.96103e-11
7.36145e-09
-5.82552e-11
7.36141e-09
-5.69846e-11
7.36116e-09
-5.52666e-11
7.36126e-09
-5.38757e-11
7.36095e-09
-5.19325e-11
7.36115e-09
-5.04359e-11
7.36077e-09
-4.82063e-11
7.3611e-09
-4.66495e-11
7.36063e-09
-4.42019e-11
7.36107e-09
-4.25203e-11
7.36052e-09
-3.97169e-11
7.3611e-09
-3.79087e-11
7.36046e-09
-3.4865e-11
7.36114e-09
-3.28853e-11
7.36044e-09
-2.95203e-11
7.36123e-09
-2.73964e-11
7.36049e-09
-2.39459e-11
7.36131e-09
-2.17062e-11
7.36059e-09
-1.81315e-11
7.36144e-09
-1.57264e-11
7.36077e-09
-1.21564e-11
7.36153e-09
-9.74092e-12
7.36091e-09
-6.4241e-12
7.36153e-09
7.36135e-09
-4.37041e-12
-3.92762e-09
-1.2749e-09
5.46326e-09
-2.90281e-09
4.05875e-09
-2.48779e-09
4.83288e-09
-2.19777e-09
5.96078e-09
-2.18656e-09
5.97456e-09
-1.18522e-09
8.77848e-09
-1.49527e-11
4.44094e-09
2.25518e-10
6.85746e-09
-5.86835e-10
7.27327e-09
3.71336e-10
6.56402e-09
1.43348e-09
6.45188e-09
1.98504e-09
5.64935e-09
3.06746e-09
5.03957e-09
4.42749e-09
3.82193e-09
4.64991e-09
4.70503e-09
5.63126e-09
-6.36262e-10
1.15701e-08
5.44001e-09
1.05231e-08
1.22412e-08
7.29716e-09
1.36571e-08
4.38617e-09
1.20769e-08
2.495e-09
1.00739e-08
1.44209e-09
8.76945e-09
8.73233e-10
8.10728e-09
5.50137e-10
7.78599e-09
3.52562e-10
7.62221e-09
2.23327e-10
7.53303e-09
1.33918e-10
7.48101e-09
6.91883e-11
7.44871e-09
2.05302e-11
7.42759e-09
-1.72311e-11
7.41314e-09
-4.72544e-11
7.40297e-09
-7.17318e-11
7.39547e-09
-9.1987e-11
7.38992e-09
-1.09068e-10
7.3856e-09
-1.23585e-10
7.38225e-09
-1.36102e-10
7.37947e-09
-1.46884e-10
7.37722e-09
-1.56229e-10
7.37525e-09
-1.64251e-10
7.37358e-09
-1.71146e-10
7.37203e-09
-1.76965e-10
7.37067e-09
-1.81845e-10
7.36936e-09
-1.85798e-10
7.36816e-09
-1.88919e-10
7.367e-09
-1.91216e-10
7.36591e-09
-1.92761e-10
7.36486e-09
-1.93579e-10
7.36384e-09
-1.93728e-10
7.36286e-09
-1.93231e-10
7.36192e-09
-1.92045e-10
7.36108e-09
-1.90337e-10
7.36023e-09
-1.87954e-10
7.35955e-09
-1.85198e-10
7.35878e-09
-1.81744e-10
7.35821e-09
-1.78231e-10
7.35742e-09
-1.74047e-10
7.35702e-09
-1.69813e-10
7.35642e-09
-1.64845e-10
7.35617e-09
-1.60044e-10
7.35562e-09
-1.54452e-10
7.35552e-09
-1.49302e-10
7.35499e-09
-1.43168e-10
7.35506e-09
-1.37731e-10
7.35455e-09
-1.31172e-10
7.35477e-09
-1.25589e-10
7.35426e-09
-1.18594e-10
7.35464e-09
-1.12798e-10
7.35415e-09
-1.05456e-10
7.35465e-09
-9.95735e-11
7.35417e-09
-9.19265e-11
7.35478e-09
-8.58848e-11
7.35436e-09
-7.81117e-11
7.35503e-09
-7.21065e-11
7.35467e-09
-6.43686e-11
7.3554e-09
-5.8351e-11
7.35518e-09
-5.07575e-11
7.35591e-09
-4.48522e-11
7.35579e-09
-3.77242e-11
7.35636e-09
-3.1984e-11
7.35677e-09
7.35761e-09
-2.61205e-11
-1.76792e-09
-1.84627e-09
2.33897e-09
-6.66108e-11
2.35735e-09
-3.39544e-09
8.1617e-09
-2.1064e-09
4.67174e-09
-2.25228e-09
6.12044e-09
-1.69112e-10
6.69531e-09
-1.94383e-10
4.46622e-09
2.93305e-10
6.36977e-09
-1.03893e-09
8.60551e-09
-1.72879e-11
5.54238e-09
1.16164e-09
5.27295e-09
2.0233e-09
4.7877e-09
3.08049e-09
3.98238e-09
3.94177e-09
2.96066e-09
5.03646e-09
3.61037e-09
4.80661e-09
-4.06435e-10
6.90158e-09
3.34497e-09
8.60308e-09
1.05396e-08
7.87235e-09
1.43877e-08
5.79634e-09
1.41527e-08
3.74586e-09
1.21242e-08
2.30441e-09
1.02108e-08
1.42797e-09
8.98365e-09
9.05561e-10
8.30837e-09
5.80549e-10
7.94725e-09
3.66621e-10
7.74702e-09
2.18249e-10
7.62949e-09
1.1061e-10
7.55647e-09
2.94149e-11
7.50876e-09
-3.3632e-11
7.4763e-09
-8.40411e-11
7.4533e-09
-1.25066e-10
7.43658e-09
-1.5926e-10
7.42401e-09
-1.87997e-10
7.41438e-09
-2.12621e-10
7.40672e-09
-2.33717e-10
7.40056e-09
-2.52043e-10
7.39537e-09
-2.67802e-10
7.39098e-09
-2.81474e-10
7.38708e-09
-2.9311e-10
7.38364e-09
-3.0304e-10
7.38044e-09
-3.11253e-10
7.37751e-09
-3.1798e-10
7.37472e-09
-3.23191e-10
7.37211e-09
-3.27048e-10
7.36958e-09
-3.29548e-10
7.36718e-09
-3.30856e-10
7.36483e-09
-3.30924e-10
7.36264e-09
-3.29872e-10
7.36054e-09
-3.27692e-10
7.35858e-09
-3.24406e-10
7.35679e-09
-3.20269e-10
7.35496e-09
-3.1517e-10
7.35334e-09
-3.0926e-10
7.35182e-09
-3.02593e-10
7.35044e-09
-2.95345e-10
7.34917e-09
-2.87352e-10
7.34807e-09
-2.78911e-10
7.34709e-09
-2.69782e-10
7.34623e-09
-2.60447e-10
7.34548e-09
-2.50471e-10
7.34483e-09
-2.40451e-10
7.34434e-09
-2.29798e-10
7.34388e-09
-2.19326e-10
7.3436e-09
-2.08209e-10
7.3433e-09
-1.97378e-10
7.34326e-09
-1.85871e-10
7.34312e-09
-1.74853e-10
7.34328e-09
-1.63169e-10
7.34326e-09
-1.52051e-10
7.34363e-09
-1.40296e-10
7.34375e-09
-1.2929e-10
7.3443e-09
-1.1776e-10
7.34454e-09
-1.07038e-10
7.34529e-09
-9.58982e-11
7.34571e-09
-8.56097e-11
7.34665e-09
-7.51698e-11
7.34717e-09
-6.52012e-11
7.34835e-09
-5.5788e-11
7.34933e-09
7.35086e-09
-4.77564e-11
-8.31812e-10
-1.39792e-09
3.83239e-10
-1.36647e-09
2.89187e-09
-1.43034e-09
8.22533e-09
-4.45602e-11
3.28588e-09
-6.64805e-12
6.08247e-09
1.59966e-11
6.67265e-09
-9.4176e-12
4.49156e-09
-6.41985e-11
6.42451e-09
-2.95792e-09
1.14992e-08
-1.82598e-10
2.76706e-09
1.04243e-10
4.9861e-09
7.44333e-10
4.14762e-09
2.30564e-09
2.42107e-09
2.95173e-09
2.31465e-09
3.68425e-09
2.8778e-09
2.93479e-09
3.42981e-10
3.88528e-09
2.39433e-09
5.99514e-09
8.42961e-09
6.84967e-09
1.3533e-08
6.00203e-09
1.50002e-08
4.38626e-09
1.37398e-08
2.90234e-09
1.16946e-08
1.85857e-09
1.00273e-08
1.1911e-09
8.97587e-09
7.64029e-10
8.37432e-09
4.79673e-10
8.0315e-09
2.80973e-10
7.82827e-09
1.35748e-10
7.70172e-09
2.55213e-11
7.61896e-09
-6.08141e-11
7.56257e-09
-1.30142e-10
7.5226e-09
-1.87069e-10
7.49349e-09
-2.34622e-10
7.47155e-09
-2.74939e-10
7.45468e-09
-3.09472e-10
7.44122e-09
-3.39297e-10
7.43031e-09
-3.65132e-10
7.42112e-09
-3.87536e-10
7.41329e-09
-4.06879e-10
7.40634e-09
-4.23484e-10
7.40014e-09
-4.37554e-10
7.39442e-09
-4.49285e-10
7.38912e-09
-4.588e-10
7.38411e-09
-4.66205e-10
7.37936e-09
-4.71616e-10
7.3748e-09
-4.7515e-10
7.37043e-09
-4.7681e-10
7.3663e-09
-4.76822e-10
7.36228e-09
-4.75046e-10
7.35858e-09
-4.71745e-10
7.35498e-09
-4.66885e-10
7.35162e-09
-4.60764e-10
7.34837e-09
-4.5314e-10
7.3455e-09
-4.4445e-10
7.3427e-09
-4.34558e-10
7.34026e-09
-4.23867e-10
7.33787e-09
-4.12023e-10
7.33594e-09
-3.99631e-10
7.33399e-09
-3.86165e-10
7.33255e-09
-3.72481e-10
7.33098e-09
-3.57757e-10
7.33002e-09
-3.43124e-10
7.3288e-09
-3.27442e-10
7.3283e-09
-3.12188e-10
7.32738e-09
-2.95824e-10
7.32732e-09
-2.80173e-10
7.3267e-09
-2.63341e-10
7.32704e-09
-2.47538e-10
7.32668e-09
-2.30507e-10
7.32738e-09
-2.14735e-10
7.32729e-09
-1.97759e-10
7.32832e-09
-1.82276e-10
7.32851e-09
-1.65714e-10
7.32984e-09
-1.50779e-10
7.33037e-09
-1.34934e-10
7.332e-09
-1.20838e-10
7.33293e-09
-1.05959e-10
7.33483e-09
-9.25864e-11
7.33632e-09
-7.94221e-11
7.33861e-09
7.34099e-09
-6.83748e-11
-1.15025e-09
-5.9809e-10
3.50508e-10
-5.96041e-10
2.33746e-09
1.35117e-09
6.27803e-09
1.05605e-09
3.58067e-09
9.93014e-10
6.14544e-09
9.06999e-10
6.75834e-09
3.7936e-10
5.01907e-09
-7.7338e-10
7.57685e-09
-7.41057e-10
1.14667e-08
-4.73973e-11
2.07324e-09
8.33127e-12
4.93038e-09
2.01007e-11
4.13574e-09
9.42346e-10
1.49891e-09
1.36541e-09
1.89143e-09
2.48882e-09
1.7544e-09
2.2748e-09
5.56684e-10
2.48522e-09
2.18383e-09
4.02095e-09
6.8936e-09
5.39985e-09
1.2154e-08
5.48891e-09
1.49109e-08
4.50774e-09
1.47209e-08
3.22449e-09
1.29776e-08
2.14826e-09
1.11036e-08
1.39379e-09
9.73023e-09
8.91899e-10
8.87635e-09
5.52711e-10
8.37068e-09
3.14019e-10
8.06712e-09
1.38216e-10
7.87737e-09
3.79158e-12
7.75341e-09
-1.02567e-10
7.66867e-09
-1.88592e-10
7.60876e-09
-2.60008e-10
7.56474e-09
-3.19961e-10
7.53167e-09
-3.71306e-10
7.50587e-09
-4.15379e-10
7.48542e-09
-4.53776e-10
7.46853e-09
-4.87023e-10
7.45444e-09
-5.16074e-10
7.44215e-09
-5.41105e-10
7.4314e-09
-5.62726e-10
7.42159e-09
-5.8098e-10
7.41265e-09
-5.96271e-10
7.40423e-09
-6.0858e-10
7.39633e-09
-6.18219e-10
7.38873e-09
-6.25144e-10
7.38156e-09
-6.29593e-10
7.37465e-09
-6.31626e-10
7.36805e-09
-6.31269e-10
7.3618e-09
-6.2879e-10
7.3557e-09
-6.24177e-10
7.35003e-09
-6.17603e-10
7.34461e-09
-6.09108e-10
7.33963e-09
-5.98909e-10
7.3349e-09
-5.87042e-10
7.33058e-09
-5.7384e-10
7.32653e-09
-5.59188e-10
7.32291e-09
-5.43488e-10
7.31958e-09
-5.26496e-10
7.31669e-09
-5.08787e-10
7.31409e-09
-4.8995e-10
7.31187e-09
-4.70732e-10
7.30997e-09
-4.50497e-10
7.30839e-09
-4.30205e-10
7.30715e-09
-4.08985e-10
7.30614e-09
-3.88009e-10
7.30553e-09
-3.66143e-10
7.30505e-09
-3.44798e-10
7.30503e-09
-3.22635e-10
7.30503e-09
-3.01244e-10
7.30555e-09
-2.79111e-10
7.306e-09
-2.57971e-10
7.30707e-09
-2.3626e-10
7.30796e-09
-2.15745e-10
7.30955e-09
-1.94862e-10
7.31092e-09
-1.75338e-10
7.31307e-09
-1.55738e-10
7.31497e-09
-1.3737e-10
7.31772e-09
-1.19297e-10
7.32028e-09
-1.02744e-10
7.3239e-09
7.32786e-09
-8.78122e-11
-1.4965e-09
2.21019e-10
6.77068e-10
-1.01802e-09
1.85896e-09
9.60952e-10
4.29879e-09
8.30267e-10
3.71128e-09
1.14489e-09
5.83055e-09
1.31825e-09
6.58487e-09
8.48535e-10
5.48844e-09
7.11715e-10
7.71359e-09
1.32793e-09
1.08502e-08
-1.2388e-10
3.52493e-09
-5.42614e-10
5.34879e-09
-8.23606e-10
4.41666e-09
-9.01447e-10
1.57644e-09
1.84327e-10
8.05576e-10
1.38557e-09
5.52854e-10
1.51647e-09
4.25639e-10
1.68276e-09
2.01722e-09
2.69326e-09
5.88298e-09
4.03512e-09
1.08119e-08
4.64212e-09
1.43038e-08
4.24214e-09
1.51207e-08
3.28448e-09
1.39353e-08
2.29142e-09
1.20965e-08
1.51154e-09
1.05102e-08
9.62736e-10
9.42513e-09
5.83522e-10
8.75006e-09
3.14068e-10
8.33653e-09
1.14615e-10
8.0769e-09
-3.93289e-11
7.90711e-09
-1.61877e-10
7.79133e-09
-2.62378e-10
7.7091e-09
-3.46261e-10
7.64879e-09
-4.17715e-10
7.60301e-09
-4.79046e-10
7.56735e-09
-5.32418e-10
7.53866e-09
-5.7885e-10
7.51506e-09
-6.1956e-10
7.49499e-09
-6.54981e-10
7.47761e-09
-6.8584e-10
7.4621e-09
-7.12336e-10
7.44806e-09
-7.34899e-10
7.43506e-09
-7.53656e-10
7.42287e-09
-7.68889e-10
7.41128e-09
-7.80553e-10
7.40033e-09
-7.89049e-10
7.38975e-09
-7.94247e-10
7.37974e-09
-7.96474e-10
7.37003e-09
-7.95757e-10
7.36076e-09
-7.92312e-10
7.35192e-09
-7.86149e-10
7.34358e-09
-7.7754e-10
7.33567e-09
-7.66507e-10
7.3283e-09
-7.53363e-10
7.32136e-09
-7.38104e-10
7.315e-09
-7.21152e-10
7.30903e-09
-7.02347e-10
7.30375e-09
-6.82255e-10
7.29878e-09
-6.60518e-10
7.29463e-09
-6.37936e-10
7.2906e-09
-6.13873e-10
7.28758e-09
-5.89432e-10
7.28444e-09
-5.6361e-10
7.2825e-09
-5.37882e-10
7.28015e-09
-5.10816e-10
7.27928e-09
-4.84298e-10
7.27765e-09
-4.56439e-10
7.27776e-09
-4.29566e-10
7.27677e-09
-4.01359e-10
7.27781e-09
-3.74526e-10
7.27746e-09
-3.46402e-10
7.27935e-09
-3.19995e-10
7.27964e-09
-2.92462e-10
7.28231e-09
-2.66904e-10
7.28331e-09
-2.40468e-10
7.28672e-09
-2.16228e-10
7.28851e-09
-1.91422e-10
7.2926e-09
-1.6877e-10
7.29541e-09
-1.45877e-10
7.30023e-09
-1.25287e-10
7.30525e-09
7.31112e-09
-1.06713e-10
-1.41812e-09
8.82279e-10
7.5682e-10
-1.26639e-09
1.70703e-09
-1.59269e-10
3.19151e-09
-1.3183e-12
3.55313e-09
5.80658e-10
5.24844e-09
1.1074e-09
6.05791e-09
6.7696e-10
5.91869e-09
8.4684e-10
7.54352e-09
2.29175e-09
9.40506e-09
5.5075e-10
5.26566e-09
3.02126e-10
5.59722e-09
4.15434e-10
4.30311e-09
2.49531e-10
1.74213e-09
5.46704e-10
5.08221e-10
9.91131e-10
1.08271e-10
1.07509e-09
3.41498e-10
1.18057e-09
1.91156e-09
1.82994e-09
5.23346e-09
2.9263e-09
9.71542e-09
3.71837e-09
1.35116e-08
3.73399e-09
1.5105e-08
3.11849e-09
1.45507e-08
2.28625e-09
1.29287e-08
1.53992e-09
1.12565e-08
9.75319e-10
9.98979e-09
5.7137e-10
9.15408e-09
2.80239e-10
8.62771e-09
6.29971e-11
8.2941e-09
-1.05717e-10
8.07581e-09
-2.4139e-10
7.92697e-09
-3.53627e-10
7.82136e-09
-4.48488e-10
7.74365e-09
-5.29942e-10
7.68449e-09
-6.0067e-10
7.63807e-09
-6.62544e-10
7.60054e-09
-7.16886e-10
7.56935e-09
-7.64645e-10
7.5427e-09
-8.06501e-10
7.51938e-09
-8.42981e-10
7.49849e-09
-8.74433e-10
7.47941e-09
-9.01224e-10
7.46166e-09
-9.23536e-10
7.44493e-09
-9.41438e-10
7.4291e-09
-9.5531e-10
7.41387e-09
-9.64972e-10
7.39945e-09
-9.71018e-10
7.38533e-09
-9.73212e-10
7.372e-09
-9.71936e-10
7.35914e-09
-9.67197e-10
7.34695e-09
-9.59284e-10
7.33531e-09
-9.48244e-10
7.32439e-09
-9.34448e-10
7.31406e-09
-9.17859e-10
7.30451e-09
-8.99004e-10
7.29553e-09
-8.77661e-10
7.28746e-09
-8.54613e-10
7.27984e-09
-8.29309e-10
7.2733e-09
-8.029e-10
7.26705e-09
-7.74372e-10
7.26207e-09
-7.45415e-10
7.25709e-09
-7.14395e-10
7.25365e-09
-6.83636e-10
7.24985e-09
-6.5076e-10
7.24789e-09
-6.18874e-10
7.24515e-09
-5.84754e-10
7.24459e-09
-5.52309e-10
7.24283e-09
-5.17482e-10
7.2436e-09
-4.84983e-10
7.24275e-09
-4.50019e-10
7.24474e-09
-4.17905e-10
7.24481e-09
-3.83387e-10
7.24793e-09
-3.52126e-10
7.24898e-09
-3.18707e-10
7.25313e-09
-2.88808e-10
7.25523e-09
-2.57167e-10
7.26029e-09
-2.28969e-10
7.26367e-09
-1.9969e-10
7.26952e-09
-1.7265e-10
7.27554e-09
-1.47366e-10
7.28268e-09
7.29082e-09
-1.25037e-10
-1.14884e-09
1.36036e-09
6.70625e-10
-1.1107e-09
1.66876e-09
-5.50521e-10
2.63119e-09
-3.92813e-10
3.39527e-09
1.50071e-10
4.70541e-09
6.11174e-10
5.59661e-09
4.71218e-10
6.05844e-09
7.62887e-10
7.25164e-09
1.91911e-09
8.2486e-09
1.04578e-09
6.13869e-09
1.20841e-09
5.43439e-09
1.4659e-09
4.04541e-09
1.16873e-09
2.03913e-09
9.79949e-10
6.9684e-10
9.39101e-10
1.49001e-10
8.58638e-10
4.21808e-10
8.73362e-10
1.89671e-09
1.26849e-09
4.8382e-09
2.08512e-09
8.89871e-09
2.86213e-09
1.27345e-08
3.11707e-09
1.485e-08
2.78956e-09
1.48782e-08
2.14724e-09
1.3571e-08
1.47879e-09
1.1925e-08
9.28486e-10
1.05401e-08
5.16157e-10
9.56644e-09
2.12274e-10
8.93164e-09
-1.7134e-11
8.52349e-09
-1.96696e-10
8.25537e-09
-3.42482e-10
8.07272e-09
-4.64326e-10
7.94322e-09
-5.68486e-10
7.84778e-09
-6.58845e-10
7.77486e-09
-7.38108e-10
7.7173e-09
-8.08007e-10
7.67041e-09
-8.69859e-10
7.63113e-09
-9.2451e-10
7.59728e-09
-9.72641e-10
7.56742e-09
-1.01469e-09
7.54044e-09
-1.05108e-09
7.5156e-09
-1.08208e-09
7.49237e-09
-1.10775e-09
7.47048e-09
-1.1285e-09
7.44948e-09
-1.14408e-09
7.42956e-09
-1.15525e-09
7.41006e-09
-1.16161e-09
7.39162e-09
-1.1637e-09
7.37374e-09
-1.16146e-09
7.35671e-09
-1.15523e-09
7.34039e-09
-1.14509e-09
7.32496e-09
-1.13139e-09
7.31031e-09
-1.11422e-09
7.29663e-09
-1.09401e-09
7.28377e-09
-1.07072e-09
7.27199e-09
-1.04501e-09
7.26098e-09
-1.01658e-09
7.2512e-09
-9.8639e-10
7.24206e-09
-9.53746e-10
7.23431e-09
-9.20077e-10
7.22697e-09
-8.84123e-10
7.22124e-09
-8.47916e-10
7.2156e-09
-8.09462e-10
7.21181e-09
-7.71563e-10
7.20773e-09
-7.31376e-10
7.2058e-09
-6.92534e-10
7.20315e-09
-6.51273e-10
7.20297e-09
-6.12124e-10
7.20164e-09
-5.70464e-10
7.20311e-09
-5.31573e-10
7.20307e-09
-4.9016e-10
7.20608e-09
-4.52064e-10
7.20736e-09
-4.11664e-10
7.2118e-09
-3.74946e-10
7.21446e-09
-3.36367e-10
7.22018e-09
-3.01444e-10
7.22439e-09
-2.65445e-10
7.23114e-09
-2.31531e-10
7.23811e-09
-1.98991e-10
7.2463e-09
-1.68874e-10
7.2562e-09
7.26623e-09
-1.42663e-10
-9.0524e-10
1.73615e-09
5.29313e-10
-9.42191e-10
1.7056e-09
-6.66374e-10
2.35526e-09
-4.49488e-10
3.17827e-09
-4.50299e-11
4.3008e-09
3.14923e-10
5.23648e-09
4.17002e-10
5.95615e-09
7.70285e-10
6.89812e-09
1.54099e-09
7.47761e-09
1.38187e-09
6.2975e-09
1.53515e-09
5.2809e-09
1.67784e-09
3.90239e-09
1.46697e-09
2.24988e-09
1.18749e-09
9.76073e-10
9.60557e-10
3.7588e-10
7.62207e-10
6.19932e-10
6.8017e-10
1.97873e-09
8.88072e-10
4.63011e-09
1.45812e-09
8.32869e-09
2.12607e-09
1.20664e-08
2.48366e-09
1.44924e-08
2.36411e-09
1.49976e-08
1.90282e-09
1.40324e-08
1.33586e-09
1.24918e-08
8.23955e-10
1.10521e-08
4.18702e-10
9.97161e-09
1.10833e-10
9.23959e-09
-1.25529e-10
8.75975e-09
-3.12549e-10
8.44245e-09
-4.65995e-10
8.22606e-09
-5.95631e-10
8.0729e-09
-7.07735e-10
7.95978e-09
-8.06038e-10
7.87319e-09
-8.93154e-10
7.80429e-09
-9.7062e-10
7.74788e-09
-1.03971e-09
7.70005e-09
-1.10107e-09
7.65861e-09
-1.1554e-09
7.62155e-09
-1.20298e-09
7.58787e-09
-1.24427e-09
7.55661e-09
-1.2793e-09
7.52726e-09
-1.3085e-09
7.49927e-09
-1.33157e-09
7.47266e-09
-1.3493e-09
7.44671e-09
-1.36125e-09
7.42201e-09
-1.368e-09
7.39803e-09
-1.3695e-09
7.37508e-09
-1.36608e-09
7.353e-09
-1.35786e-09
7.332e-09
-1.34519e-09
7.31197e-09
-1.32822e-09
7.29313e-09
-1.30736e-09
7.27535e-09
-1.28273e-09
7.25889e-09
-1.25484e-09
7.24352e-09
-1.22367e-09
7.22958e-09
-1.18997e-09
7.21668e-09
-1.15342e-09
7.20531e-09
-1.11511e-09
7.19486e-09
-1.07427e-09
7.18606e-09
-1.03249e-09
7.17796e-09
-9.88408e-10
7.17162e-09
-9.44202e-10
7.16572e-09
-8.97784e-10
7.16173e-09
-8.52092e-10
7.15787e-09
-8.04193e-10
7.15607e-09
-7.57801e-10
7.1541e-09
-7.09172e-10
7.15438e-09
-6.62794e-10
7.1542e-09
-6.14193e-10
7.15643e-09
-5.68455e-10
7.15803e-09
-5.2069e-10
7.16212e-09
-4.76272e-10
7.16554e-09
-4.30283e-10
7.17138e-09
-3.87748e-10
7.17674e-09
-3.44462e-10
7.18414e-09
-3.03132e-10
7.19216e-09
-2.63022e-10
7.20131e-09
-2.24372e-10
7.21254e-09
-1.9001e-10
7.22401e-09
7.23726e-09
-1.58639e-10
-7.22232e-10
2.07498e-09
3.83334e-10
-8.2942e-10
1.81271e-09
-7.05232e-10
2.231e-09
-5.09806e-10
2.98274e-09
-1.80463e-10
3.97133e-09
1.4989e-10
4.90595e-09
3.93352e-10
5.71245e-09
7.93157e-10
6.49805e-09
1.38585e-09
6.88458e-09
1.52921e-09
6.15398e-09
1.6598e-09
5.14974e-09
1.71859e-09
3.84353e-09
1.56265e-09
2.40529e-09
1.28947e-09
1.24931e-09
9.94265e-10
6.70634e-10
7.21979e-10
8.92373e-10
5.54684e-10
2.14562e-09
6.1812e-10
4.5669e-09
9.84921e-10
7.96154e-09
1.51125e-09
1.15403e-08
1.8817e-09
1.41217e-08
1.89385e-09
1.49857e-08
1.58404e-09
1.43419e-08
1.12426e-09
1.29518e-08
6.66188e-10
1.15099e-08
2.81099e-10
1.03569e-08
-2.30957e-11
9.54349e-09
-2.61373e-10
8.99824e-09
-4.53099e-10
8.63388e-09
-6.12032e-10
8.38518e-09
-7.48242e-10
8.20882e-09
-8.67096e-10
8.07879e-09
-9.72791e-10
7.9786e-09
-1.06709e-09
7.89871e-09
-1.152e-09
7.83246e-09
-1.22794e-09
7.77608e-09
-1.2961e-09
7.72641e-09
-1.35646e-09
7.68182e-09
-1.40959e-09
7.64082e-09
-1.45564e-09
7.60246e-09
-1.49484e-09
7.56616e-09
-1.52709e-09
7.53152e-09
-1.55294e-09
7.49797e-09
-1.57206e-09
7.46578e-09
-1.58492e-09
7.43457e-09
-1.59155e-09
7.4045e-09
-1.5922e-09
7.3755e-09
-1.58709e-09
7.34774e-09
-1.5765e-09
7.32116e-09
-1.56069e-09
7.29599e-09
-1.54001e-09
7.27214e-09
-1.51473e-09
7.24985e-09
-1.48526e-09
7.22901e-09
-1.45184e-09
7.20984e-09
-1.41497e-09
7.19216e-09
-1.37481e-09
7.1762e-09
-1.33195e-09
7.16173e-09
-1.28638e-09
7.14896e-09
-1.2389e-09
7.13763e-09
-1.18922e-09
7.12792e-09
-1.13834e-09
7.1196e-09
-1.0857e-09
7.11277e-09
-1.03255e-09
7.10725e-09
-9.77993e-10
7.10309e-09
-9.23546e-10
7.1002e-09
-8.67967e-10
7.09852e-09
-8.13074e-10
7.0981e-09
-7.57327e-10
7.09876e-09
-7.02755e-10
7.10073e-09
-6.47661e-10
7.10366e-09
-5.94207e-10
7.10797e-09
-5.40724e-10
7.11316e-09
-4.89184e-10
7.11986e-09
-4.38309e-10
7.12734e-09
-3.88665e-10
7.13669e-09
-3.40624e-10
7.1466e-09
-2.93302e-10
7.15902e-09
-2.49859e-10
7.17161e-09
-2.0921e-10
7.18672e-09
7.20237e-09
-1.73361e-10
-5.68273e-10
2.40188e-09
2.41337e-10
-7.27491e-10
1.97181e-09
-7.01091e-10
2.20447e-09
-5.54949e-10
2.83646e-09
-2.85608e-10
3.70181e-09
2.76801e-11
4.59247e-09
3.40605e-10
5.39931e-09
7.6246e-10
6.07589e-09
1.28466e-09
6.36226e-09
1.55795e-09
5.88014e-09
1.72054e-09
4.987e-09
1.75684e-09
3.80657e-09
1.61552e-09
2.54644e-09
1.34584e-09
1.51856e-09
1.02088e-09
9.95604e-10
7.01355e-10
1.21161e-09
4.66399e-10
2.38069e-09
4.15285e-10
4.61776e-09
6.17405e-10
7.75956e-09
9.98712e-10
1.11588e-08
1.33033e-09
1.37901e-08
1.41228e-09
1.49035e-08
1.21848e-09
1.45357e-08
8.58372e-10
1.33117e-08
4.61996e-10
1.19064e-08
1.05917e-10
1.07128e-08
-1.87157e-10
9.83667e-09
-4.23758e-10
9.23464e-09
-6.17329e-10
8.82754e-09
-7.80651e-10
8.5483e-09
-9.22028e-10
8.35027e-09
-1.04735e-09
8.20391e-09
-1.15962e-09
8.09091e-09
-1.26121e-09
8.00006e-09
-1.353e-09
7.92426e-09
-1.43613e-09
7.85889e-09
-1.51077e-09
7.8009e-09
-1.57729e-09
7.74823e-09
-1.63599e-09
7.69923e-09
-1.68676e-09
7.65322e-09
-1.72995e-09
7.60909e-09
-1.76551e-09
7.56675e-09
-1.79357e-09
7.52575e-09
-1.81412e-09
7.48612e-09
-1.82743e-09
7.44767e-09
-1.83361e-09
7.41051e-09
-1.83296e-09
7.37468e-09
-1.82568e-09
7.34029e-09
-1.81213e-09
7.30745e-09
-1.79262e-09
7.27625e-09
-1.76752e-09
7.24684e-09
-1.7372e-09
7.21926e-09
-1.7021e-09
7.19363e-09
-1.66256e-09
7.16996e-09
-1.61908e-09
7.14828e-09
-1.57194e-09
7.12867e-09
-1.52176e-09
7.11095e-09
-1.4686e-09
7.09538e-09
-1.41327e-09
7.08148e-09
-1.35555e-09
7.0698e-09
-1.29653e-09
7.05948e-09
-1.23557e-09
7.05147e-09
-1.17412e-09
7.04444e-09
-1.11109e-09
7.03988e-09
-1.04832e-09
7.03586e-09
-9.842e-10
7.03452e-09
-9.21064e-10
7.03331e-09
-8.56787e-10
7.03501e-09
-7.94149e-10
7.03652e-09
-7.30631e-10
7.04116e-09
-6.69376e-10
7.04541e-09
-6.0762e-10
7.05295e-09
-5.48674e-10
7.06012e-09
-4.89492e-10
7.07065e-09
-4.33191e-10
7.081e-09
-3.76751e-10
7.09465e-09
-3.24079e-10
7.10827e-09
-2.73063e-10
7.12504e-09
-2.27267e-10
7.14229e-09
7.16227e-09
-1.84828e-10
-4.24951e-10
2.72832e-09
9.85287e-11
-6.19673e-10
2.16646e-09
-6.56944e-10
2.24166e-09
-5.61202e-10
2.74062e-09
-3.45853e-10
3.48628e-09
-5.66513e-11
4.30302e-09
2.80132e-10
5.06218e-09
7.01385e-10
5.65434e-09
1.1772e-09
5.88602e-09
1.50848e-09
5.54848e-09
1.70297e-09
4.79178e-09
1.74415e-09
3.76473e-09
1.61675e-09
2.67356e-09
1.3573e-09
1.77768e-09
1.02427e-09
1.32864e-09
6.78083e-10
1.55735e-09
3.91947e-10
2.66692e-09
2.50247e-10
4.75918e-09
3.18496e-10
7.69147e-09
5.65762e-10
1.09112e-08
8.31891e-10
1.35242e-08
9.39538e-10
1.47954e-08
8.27038e-10
1.46484e-08
5.52877e-10
1.35855e-08
2.18585e-10
1.22409e-08
-1.02804e-10
1.10338e-08
-3.79869e-10
1.0114e-08
-6.11088e-10
9.46556e-09
-8.04662e-10
9.02134e-09
-9.71049e-10
8.71441e-09
-1.11716e-09
8.49656e-09
-1.24844e-09
8.33491e-09
-1.3673e-09
8.2099e-09
-1.47594e-09
8.10844e-09
-1.57488e-09
8.02323e-09
-1.66505e-09
7.94875e-09
-1.74632e-09
7.88216e-09
-1.81924e-09
7.82073e-09
-1.88326e-09
7.76346e-09
-1.93913e-09
7.7085e-09
-1.98615e-09
7.65603e-09
-2.02487e-09
7.60504e-09
-2.05492e-09
7.55567e-09
-2.07664e-09
7.50756e-09
-2.08999e-09
7.46092e-09
-2.09533e-09
7.41567e-09
-2.09281e-09
7.37204e-09
-2.0828e-09
7.33013e-09
-2.06563e-09
7.29012e-09
-2.04169e-09
7.25215e-09
-2.01143e-09
7.21637e-09
-1.97529e-09
7.18289e-09
-1.93373e-09
7.15181e-09
-1.88729e-09
7.12314e-09
-1.83631e-09
7.09702e-09
-1.78153e-09
7.07327e-09
-1.72298e-09
7.05216e-09
-1.66175e-09
7.0332e-09
-1.59739e-09
7.01696e-09
-1.53146e-09
7.0025e-09
-1.46284e-09
6.99087e-09
-1.39374e-09
6.98056e-09
-1.32225e-09
6.97323e-09
-1.25132e-09
6.96669e-09
-1.17813e-09
6.96335e-09
-1.10649e-09
6.96027e-09
-1.03264e-09
6.96067e-09
-9.61253e-10
6.96086e-09
-8.87753e-10
6.96481e-09
-8.175e-10
6.96824e-09
-7.45426e-10
6.97566e-09
-6.77196e-10
6.98248e-09
-6.07678e-10
6.99343e-09
-5.42198e-10
7.00396e-09
-4.75933e-10
7.01856e-09
-4.13697e-10
7.03303e-09
-3.52114e-10
7.05123e-09
-2.95543e-10
7.06973e-09
-2.41932e-10
7.09175e-09
7.11494e-09
-1.93991e-10
-2.85638e-10
3.06068e-09
-4.68909e-11
-5.07455e-10
2.38819e-09
-5.89771e-10
2.32388e-09
-5.38863e-10
2.68961e-09
-3.68432e-10
3.3157e-09
-1.06564e-10
4.04096e-09
2.26976e-10
4.72842e-09
6.31807e-10
5.24934e-09
1.06701e-09
5.45045e-09
1.41e-09
5.20527e-09
1.62007e-09
4.5811e-09
1.67409e-09
3.71014e-09
1.56673e-09
2.78023e-09
1.3261e-09
2.01813e-09
9.98383e-10
1.65564e-09
6.39977e-10
1.91606e-09
3.15934e-10
2.99049e-09
1.02304e-10
4.97314e-09
6.1039e-11
7.73222e-09
1.90744e-10
1.07819e-08
3.80915e-10
1.33334e-08
4.85707e-10
1.4691e-08
4.24857e-10
1.47086e-08
2.20715e-10
1.379e-08
-5.65237e-11
1.25175e-08
-3.40574e-10
1.13184e-08
-5.98864e-10
1.03718e-08
-8.21688e-10
9.68883e-09
-1.01426e-09
9.21345e-09
-1.18253e-09
8.88308e-09
-1.33353e-09
8.64715e-09
-1.47035e-09
8.47209e-09
-1.59631e-09
8.33552e-09
-1.7119e-09
8.22432e-09
-1.81851e-09
8.12946e-09
-1.91566e-09
8.04617e-09
-2.00417e-09
7.97021e-09
-2.0831e-09
7.9e-09
-2.15339e-09
7.83289e-09
-2.21375e-09
7.769e-09
-2.26498e-09
7.7068e-09
-2.30644e-09
7.64642e-09
-2.33845e-09
7.58737e-09
-2.36083e-09
7.52988e-09
-2.37392e-09
7.4738e-09
-2.3778e-09
7.41947e-09
-2.37284e-09
7.36695e-09
-2.35937e-09
7.31654e-09
-2.3378e-09
7.26843e-09
-2.30863e-09
7.22281e-09
-2.27232e-09
7.1799e-09
-2.22946e-09
7.13979e-09
-2.18057e-09
7.10264e-09
-2.1262e-09
7.06849e-09
-2.06701e-09
7.03734e-09
-2.00334e-09
7.00931e-09
-1.93608e-09
6.98411e-09
-1.86519e-09
6.96206e-09
-1.79195e-09
6.94252e-09
-1.71572e-09
6.92616e-09
-1.63834e-09
6.91183e-09
-1.55842e-09
6.90076e-09
-1.47849e-09
6.89116e-09
-1.39627e-09
6.88494e-09
-1.31511e-09
6.87963e-09
-1.23178e-09
6.87791e-09
-1.1505e-09
6.87656e-09
-1.06713e-09
6.87907e-09
-9.86687e-10
6.88153e-09
-9.04357e-10
6.88811e-09
-8.25675e-10
6.89443e-09
-7.45505e-10
6.90509e-09
-6.69526e-10
6.91553e-09
-5.92612e-10
6.93045e-09
-5.20093e-10
6.94535e-09
-4.47543e-10
6.96463e-09
-3.80004e-10
6.98415e-09
-3.14223e-10
7.00791e-09
-2.54391e-10
7.03275e-09
7.06128e-09
-1.98446e-10
-1.45498e-10
3.40328e-09
-1.97138e-10
-3.90726e-10
2.63331e-09
-5.09033e-10
2.44209e-09
-4.97641e-10
2.6781e-09
-3.66123e-10
3.18404e-09
-1.33721e-10
3.80838e-09
1.80757e-10
4.41373e-09
5.59323e-10
4.87054e-09
9.57175e-10
5.05234e-09
1.28863e-09
4.87339e-09
1.50173e-09
4.36763e-09
1.56765e-09
3.64378e-09
1.48072e-09
2.86687e-09
1.26052e-09
2.238e-09
9.44628e-10
1.97157e-09
5.80952e-10
2.27907e-09
2.29645e-10
3.34196e-09
-4.29709e-11
5.24519e-09
-1.7272e-10
7.86244e-09
-1.45303e-10
1.0754e-08
-2.82936e-11
1.32166e-08
5.47276e-11
1.46074e-08
2.34678e-11
1.474e-08
-1.28358e-10
1.39416e-08
-3.54637e-10
1.2744e-08
-6.03575e-10
1.15671e-08
-8.40842e-10
1.06092e-08
-1.05464e-09
9.90244e-09
-1.24453e-09
9.40352e-09
-1.41515e-09
9.05356e-09
-1.57043e-09
8.8026e-09
-1.71376e-09
8.61534e-09
-1.84667e-09
8.46852e-09
-1.9703e-09
8.34769e-09
-2.08439e-09
8.24396e-09
-2.18966e-09
8.15106e-09
-2.28497e-09
8.06608e-09
-2.37135e-09
7.98537e-09
-2.44698e-09
7.90882e-09
-2.51274e-09
7.83425e-09
-2.56766e-09
7.76171e-09
-2.61206e-09
7.69048e-09
-2.64552e-09
7.62082e-09
-2.66838e-09
7.5525e-09
-2.68054e-09
7.48593e-09
-2.68242e-09
7.42119e-09
-2.67424e-09
7.35871e-09
-2.65648e-09
7.29868e-09
-2.62963e-09
7.24146e-09
-2.59422e-09
7.18729e-09
-2.5509e-09
7.13639e-09
-2.50025e-09
7.08897e-09
-2.44298e-09
7.04511e-09
-2.37973e-09
7.00491e-09
-2.3111e-09
6.96842e-09
-2.23789e-09
6.93551e-09
-2.1604e-09
6.90632e-09
-2.07971e-09
6.88043e-09
-1.99562e-09
6.85822e-09
-1.90965e-09
6.83883e-09
-1.82094e-09
6.82308e-09
-1.73157e-09
6.80959e-09
-1.63989e-09
6.79973e-09
-1.5487e-09
6.79152e-09
-1.45541e-09
6.78704e-09
-1.36368e-09
6.78362e-09
-1.26996e-09
6.78412e-09
-1.17876e-09
6.78517e-09
-1.08569e-09
6.79039e-09
-9.95963e-10
6.79585e-09
-9.04662e-10
6.8057e-09
-8.1737e-10
6.81573e-09
-7.28992e-10
6.83035e-09
-6.45181e-10
6.8453e-09
-5.60947e-10
6.86495e-09
-4.81868e-10
6.88517e-09
-4.03638e-10
6.91e-09
-3.31222e-10
6.93599e-09
-2.62101e-10
6.96625e-09
6.99906e-09
-1.99351e-10
1.89319e-12
3.75802e-09
-3.56793e-10
-2.66411e-10
2.90148e-09
-4.16052e-10
2.59161e-09
-4.40173e-10
2.7021e-09
-3.44753e-10
3.08847e-09
-1.44511e-10
3.60796e-09
1.41433e-10
4.12758e-09
4.87461e-10
4.52428e-09
8.48844e-10
4.69069e-09
1.1591e-09
4.56278e-09
1.36661e-09
4.15976e-09
1.43981e-09
3.5702e-09
1.36942e-09
2.93695e-09
1.16785e-09
2.43926e-09
8.64183e-10
2.27504e-09
4.99502e-10
2.64353e-09
1.27048e-10
3.71427e-09
-1.92207e-10
5.56459e-09
-3.96421e-10
8.06627e-09
-4.56429e-10
1.08141e-08
-4.12726e-10
1.31724e-08
-3.5773e-10
1.45522e-08
-3.74019e-10
1.47563e-08
-4.86705e-10
1.40539e-08
-6.70837e-10
1.29283e-08
-8.86867e-10
1.17828e-08
-1.10375e-09
1.08264e-08
-1.30781e-09
1.01062e-08
-1.49515e-09
9.59114e-09
-1.66805e-09
9.2262e-09
-1.82833e-09
8.9632e-09
-1.97868e-09
8.76539e-09
-2.11954e-09
8.60945e-09
-2.25142e-09
8.47977e-09
-2.37449e-09
8.36675e-09
-2.48757e-09
8.26483e-09
-2.59165e-09
8.16916e-09
-2.6844e-09
8.07872e-09
-2.76679e-09
7.99072e-09
-2.83743e-09
7.90494e-09
-2.89651e-09
7.82045e-09
-2.94338e-09
7.73738e-09
-2.97828e-09
7.65546e-09
-3.00092e-09
7.57515e-09
-3.0117e-09
7.49654e-09
-3.01072e-09
7.42019e-09
-2.99848e-09
7.34636e-09
-2.97545e-09
7.27559e-09
-2.94221e-09
7.20814e-09
-2.89948e-09
7.14445e-09
-2.84792e-09
7.08472e-09
-2.78835e-09
7.02922e-09
-2.72148e-09
6.97803e-09
-2.64812e-09
6.93131e-09
-2.56906e-09
6.88896e-09
-2.48489e-09
6.85109e-09
-2.39659e-09
6.81736e-09
-2.30436e-09
6.78797e-09
-2.20945e-09
6.76231e-09
-2.11152e-09
6.74079e-09
-2.01227e-09
6.72244e-09
-1.91063e-09
6.70802e-09
-1.80888e-09
6.6962e-09
-1.70513e-09
6.68817e-09
-1.60237e-09
6.68217e-09
-1.49781e-09
6.67993e-09
-1.39523e-09
6.67925e-09
-1.29099e-09
6.68238e-09