/*--------------------------------*- C++ -*----------------------------------*\
  =========                 |
  \\      /  F ield         | OpenFOAM: The Open Source CFD Toolbox
   \\    /   O peration     | Website:  https://openfoam.org
    \\  /    A nd           | Version:  7
     \\/     M anipulation  |
\*---------------------------------------------------------------------------*/
FoamFile
{
    version     2.0;
    format      ascii;
    class       volVectorField;
    location    "15";
    object      U;
}
// * * * * * * * * * * * * * * * * * * * * * * * * * * * * * * * * * * * * * //

dimensions      [0 1 -1 0 0 0 0];

internalField   nonuniform List<vector> 
49920
(
(-0.00643674 0.000391804 -1.03e-29)
(-0.0133595 0.00491912 7.58645e-30)
(-0.00522502 0.0046189 4.4011e-29)
(-0.00347466 0.00613954 -6.18264e-29)
(-0.000747991 0.00599027 -4.43076e-29)
(-0.00190118 0.00881697 -6.83141e-29)
(-0.00166318 0.00615247 -4.28287e-29)
(-0.00010894 0.00390171 0)
(0.000926732 0.0048029 -6.15742e-29)
(0.00272701 0.00737033 -1.76398e-29)
(0.00218949 0.00653425 1.69115e-28)
(0.00284785 0.00480943 0)
(0.00587579 0.00434765 2.80656e-28)
(0.00672506 0.00217336 9.12094e-36)
(0.0142851 0.000195542 0)
(0.0078268 -0.00199931 -2.05388e-28)
(0.0438404 0.00213341 -3.57218e-28)
(0.0257342 0.0095334 2.21098e-29)
(0.0134375 0.0126242 0)
(0.0100573 0.0129067 2.38347e-29)
(0.00814938 0.013021 2.32948e-29)
(0.00723517 0.0131652 5.4303e-30)
(0.00701545 0.0131968 0)
(0.00703443 0.0131562 -4.4639e-30)
(0.00714754 0.013079 9.252e-31)
(0.00731108 0.0129796 -1.00706e-32)
(0.00750276 0.0128648 -1.19971e-30)
(0.00771026 0.0127384 0)
(0.00792682 0.0126028 0)
(0.00814845 0.0124592 0)
(0.00837262 0.0123087 0)
(0.00859762 0.0121518 0)
(0.00882231 0.0119891 0)
(0.00904591 0.0118209 8.79525e-32)
(0.00926782 0.0116474 1.47248e-30)
(0.00948758 0.0114689 -6.31033e-31)
(0.00970484 0.0112854 -1.02836e-30)
(0.00991935 0.0110972 -4.87092e-31)
(0.0101309 0.0109043 -6.36629e-31)
(0.0103393 0.0107068 -4.0798e-39)
(0.0105444 0.0105047 -4.25862e-39)
(0.0107459 0.0102983 6.40064e-31)
(0.0109439 0.0100876 7.46624e-31)
(0.0111381 0.00987258 1.43637e-30)
(0.0113284 0.00965345 6.43775e-31)
(0.0115148 0.00943026 -2.12591e-30)
(0.011697 0.00920311 -8.68677e-31)
(0.011875 0.00897209 0)
(0.0120487 0.00873729 0)
(0.012218 0.00849873 0)
(0.0123829 0.00825661 0)
(0.012543 0.00801086 0)
(0.0126987 0.00776184 0)
(0.0128494 0.00750933 -1.5015e-30)
(0.0129956 0.00725383 -1.28279e-32)
(0.0131362 0.00699508 -1.31022e-30)
(0.0132723 0.00673369 1.4348e-30)
(0.0134028 0.00646926 0)
(0.0135288 0.00620219 6.73015e-31)
(0.0136489 0.00593231 1.30636e-30)
(0.0137643 0.00566017 6.298e-31)
(0.0138736 0.0053854 0)
(0.0139784 0.00510853 0)
(0.0140768 0.00482928 -5.28037e-31)
(0.0141706 0.00454822 -4.97182e-31)
(0.0142578 0.00426492 0)
(0.0143405 0.0039799 -2.48166e-38)
(0.0144165 0.00369286 6.75491e-31)
(0.0144879 0.00340441 0)
(0.0145525 0.00311416 3.36766e-31)
(0.0146124 0.00282259 -2.65781e-31)
(0.0146654 0.00252953 -2.47498e-31)
(0.0147136 0.00223556 0)
(0.014755 0.00194042 -1.89819e-31)
(0.0147913 0.0016445 -1.61365e-31)
(0.014821 0.00134766 -1.42636e-32)
(0.0148453 0.00105034 -1.05234e-31)
(0.0148631 0.000752544 1.01595e-31)
(0.0148753 0.000454714 -2.84277e-32)
(0.0148816 0.00015709 -1.49965e-32)
(-0.00339489 0.000340377 0)
(-0.00762981 0.010277 0)
(-0.00420718 0.0114292 7.17175e-29)
(-0.00380118 0.0115659 -2.96863e-29)
(-0.00247594 0.0118314 -1.6785e-28)
(-0.00227247 0.0229872 -3.45009e-28)
(0.000654421 0.0104495 -1.49157e-28)
(0.00301125 0.0185705 5.65726e-30)
(0.00196865 0.0139553 0)
(0.00226998 0.0134704 -1.62003e-28)
(0.00504444 0.014297 3.25008e-28)
(0.00585887 0.0109073 -3.02378e-28)
(0.00715914 0.00906382 5.3207e-28)
(0.00927075 0.00811151 3.51376e-28)
(0.0126629 0.0072756 -2.58734e-28)
(0.00430155 -0.000926255 0)
(0.0285214 0.0101435 0)
(0.0307674 0.0154195 3.95565e-29)
(0.0243241 0.0168644 2.96991e-30)
(0.0180305 0.0152502 -1.17319e-29)
(0.0129105 0.0137608 -4.06976e-30)
(0.00985995 0.0131469 0)
(0.00848483 0.0129252 0)
(0.00787995 0.0128256 0)
(0.0076271 0.0127505 3.00426e-31)
(0.00756257 0.0126705 -1.90504e-30)
(0.00760307 0.0125793 -1.19128e-30)
(0.00770463 0.0124766 9.36295e-31)
(0.00784363 0.0123636 -1.02296e-30)
(0.0080064 0.0122413 -1.08568e-30)
(0.00818463 0.0121107 0)
(0.00837287 0.0119725 4.39127e-31)
(0.00856761 0.0118275 6.28482e-31)
(0.00876638 0.011676 0)
(0.0089675 0.0115185 3.32147e-30)
(0.00916965 0.0113553 2.241e-30)
(0.00937194 0.0111864 1.07184e-30)
(0.00957367 0.0110122 -7.85961e-32)
(0.00977436 0.0108327 6.50139e-39)
(0.00997352 0.0106479 -2.23514e-39)
(0.0101708 0.0104581 -2.33279e-39)
(0.010366 0.0102632 7.40159e-39)
(0.0105587 0.0100633 -1.55615e-31)
(0.0107488 0.00985859 -1.50737e-30)
(0.010936 0.00964907 -2.81558e-30)
(0.0111201 0.00943479 -4.18292e-30)
(0.0113009 0.00921587 0)
(0.0114783 0.00899235 -1.58408e-30)
(0.0116521 0.0087644 -1.62638e-30)
(0.0118222 0.00853208 0)
(0.0119882 0.00829538 1.34028e-30)
(0.0121504 0.00805465 1.34257e-30)
(0.0123081 0.0078097 -1.34695e-30)
(0.0124617 0.00756093 -1.55896e-30)
(0.0126104 0.00730832 1.56236e-30)
(0.0127546 0.00705236 1.36048e-30)
(0.0128938 0.00679278 0)
(0.0130284 0.00652994 0)
(0.0131576 0.00626382 0)
(0.0132819 0.00599469 -6.85869e-31)
(0.0134007 0.00572271 -6.85848e-31)
(0.0135143 0.00544796 6.17541e-31)
(0.0136224 0.00517066 1.28525e-30)
(0.0137249 0.00489086 0)
(0.0138219 0.00460889 0)
(0.0139131 0.0043246 -4.66773e-31)
(0.0139987 0.00403834 9.39084e-31)
(0.0140783 0.00375001 1.37873e-30)
(0.0141524 0.00346012 -6.85618e-31)
(0.0142201 0.00316838 4.19259e-31)
(0.0142826 0.00287528 -9.07964e-31)
(0.0143383 0.00258071 0)
(0.0143888 0.00228524 4.96055e-32)
(0.0144323 0.00198871 -2.88705e-31)
(0.0144709 0.00169146 -3.36407e-31)
(0.0145022 0.0013935 -1.56836e-32)
(0.0145286 0.00109517 -2.58471e-32)
(0.0145474 0.000796702 1.68972e-31)
(0.0145618 0.00049813 0)
(0.0145691 0.000200563 0)
(-0.00455973 -0.00439066 2.60304e-31)
(1.58487e-05 0.00359244 -6.74453e-32)
(-0.00229369 0.00469458 5.8427e-29)
(-0.0056126 0.0116722 0)
(-0.00292659 0.0115366 -7.16487e-29)
(-0.00099518 0.0131019 1.64613e-28)
(0.000739183 0.00786854 4.43011e-30)
(0.00167677 0.0113185 -1.40544e-30)
(0.00228521 0.018077 -1.18054e-29)
(0.00137629 0.0123354 -6.3635e-28)
(0.00330313 0.0107441 -2.33127e-29)
(0.00550468 0.0103011 -7.24111e-28)
(0.00776794 0.00873988 2.50608e-28)
(0.00759291 0.00534841 2.9282e-29)
(0.005473 0.00312142 -1.15037e-28)
(0.0135547 -0.00655769 0)
(0.013318 0.00433219 0)
(0.0226334 0.0160149 1.39571e-36)
(0.025655 0.0204462 6.53593e-30)
(0.0221903 0.0191088 -9.05966e-30)
(0.0167268 0.0163585 -1.59509e-30)
(0.0124947 0.0144227 -6.8809e-30)
(0.0100858 0.0134132 -3.8016e-30)
(0.00882375 0.0129371 -1.99998e-30)
(0.00817583 0.0126943 -9.55749e-31)
(0.00786482 0.0125402 0)
(0.00774251 0.0124183 0)
(0.00773075 0.012306 3.41287e-31)
(0.00778719 0.0121939 -7.59126e-39)
(0.00788764 0.0120782 -5.67336e-31)
(0.00801731 0.0119572 -4.29042e-31)
(0.00816683 0.0118303 8.19219e-31)
(0.00833003 0.0116975 0)
(0.00850271 0.0115586 9.14126e-31)
(0.0086819 0.0114138 9.47326e-31)
(0.00886549 0.0112632 -7.39507e-39)
(0.00905194 0.0111069 -1.08164e-30)
(0.00924012 0.0109448 -3.20964e-30)
(0.00942917 0.0107771 -2.03701e-31)
(0.00961842 0.0106038 -2.73858e-31)
(0.00980727 0.0104249 2.95531e-31)
(0.00999532 0.0102405 3.53493e-31)
(0.0101821 0.0100505 2.52781e-30)
(0.0103674 0.00985514 1.50416e-30)
(0.0105508 0.00965432 -1.12742e-38)
(0.0107321 0.00944816 -1.12022e-30)
(0.0109108 0.00923664 -1.13405e-30)
(0.0110871 0.00902003 0)
(0.0112604 0.00879821 -1.1586e-30)
(0.0114307 0.00857145 -4.40025e-31)
(0.0115977 0.00833966 -4.47049e-31)
(0.0117611 0.008103 6.95452e-38)
(0.0119207 0.00786178 2.80163e-30)
(0.0120765 0.00761602 0)
(0.0122278 0.00736583 0)
(0.012375 0.00711169 -1.21583e-30)
(0.0125175 0.00685347 -1.22819e-30)
(0.0126554 0.00659152 -1.22327e-30)
(0.0127882 0.00632574 -1.23708e-30)
(0.0129163 0.00605669 -1.34601e-30)
(0.0130387 0.0057842 -2.58349e-30)
(0.0131563 0.00550886 -6.27696e-31)
(0.0132679 0.00523036 3.79912e-38)
(0.0133745 0.00494945 0)
(0.0134746 0.00466576 0)
(0.0135699 0.00438 -6.18079e-31)
(0.0136584 0.00409171 2.10962e-31)
(0.013742 0.00380175 4.82276e-31)
(0.0138184 0.0035097 -1.90913e-30)
(0.0138901 0.0032163 -2.77706e-31)
(0.0139543 0.00292115 -1.14882e-30)
(0.0140138 0.00262508 8.28321e-32)
(0.0140656 0.00232784 -4.89223e-32)
(0.0141127 0.00203005 -2.72865e-32)
(0.0141522 0.00173155 3.09969e-31)
(0.0141869 0.00143284 0)
(0.0142139 0.00113401 0)
(0.0142359 0.000835059 1.51994e-31)
(0.0142514 0.000536588 -1.37195e-32)
(0.0142615 0.000239779 -3.44772e-32)
(-0.000922874 -0.00308282 8.26172e-31)
(-0.00160709 0.008943 -5.18219e-31)
(-0.00313815 0.0251532 3.86397e-29)
(0.000270984 0.00485421 -3.07211e-29)
(0.000562879 0.00689051 0)
(0.000627408 0.00566535 -1.61235e-38)
(0.000559712 0.0043149 0)
(0.00080608 0.00584695 0)
(-0.0016229 0.00713806 0)
(-0.00152671 0.00818662 -2.77631e-28)
(0.00155287 0.00779098 -4.05849e-28)
(0.00244806 0.00705851 -1.8962e-28)
(0.00451874 0.00482058 2.95033e-28)
(0.00240925 0.00183172 1.47232e-29)
(0.0123469 0.00836385 -5.99909e-29)
(0.00725759 -0.00115666 1.76264e-29)
(0.00644868 0.00309362 0)
(0.0148225 0.0138811 2.15934e-30)
(0.0219113 0.0207851 -8.89808e-30)
(0.0224516 0.0215504 -2.39729e-29)
(0.0188136 0.019091 -5.27828e-30)
(0.0146058 0.0163548 -7.33966e-30)
(0.0115633 0.0144879 -5.72145e-30)
(0.00973832 0.0134547 -4.22708e-30)
(0.00872013 0.0129087 -2.83154e-30)
(0.00817225 0.012597 -6.90514e-31)
(0.0078925 0.0123928 -9.37868e-33)
(0.00777089 0.012238 2.30054e-31)
(0.0077471 0.0121051 -6.69654e-40)
(0.00778665 0.0119811 -5.05439e-31)
(0.00786857 0.011859 -8.20481e-31)
(0.00797984 0.0117357 1.07368e-30)
(0.00811163 0.0116091 -5.76074e-31)
(0.00825822 0.0114784 6.32262e-31)
(0.00841533 0.0113427 -9.2145e-31)
(0.00858017 0.0112019 -2.76262e-30)
(0.00875048 0.0110555 -1.11581e-30)
(0.00892483 0.0109036 -1.95226e-30)
(0.00910189 0.0107459 -1.70725e-30)
(0.00928085 0.0105824 -1.32283e-30)
(0.00946085 0.010413 1.36122e-30)
(0.00964139 0.0102377 1.97513e-30)
(0.00982185 0.0100564 1.46942e-30)
(0.0100019 0.0098692 1.48847e-30)
(0.0101811 0.00967598 3.05714e-30)
(0.010359 0.00947686 1.56558e-30)
(0.0105354 0.0092719 -9.54249e-31)
(0.0107099 0.00906106 9.72483e-31)
(0.0108825 0.00884468 -2.58402e-30)
(0.0110525 0.0086224 1.97793e-30)
(0.01122 0.00839472 2.63264e-30)
(0.0113842 0.00816154 2.06164e-30)
(0.0115454 0.00792326 1.58104e-30)
(0.0117029 0.0076797 2.07019e-32)
(0.0118569 0.00743145 -2.01982e-30)
(0.0120065 0.00717842 -2.59855e-30)
(0.0121521 0.0069211 -2.5474e-30)
(0.012293 0.00665933 -2.54386e-30)
(0.0124295 0.00639364 -1.08772e-30)
(0.0125606 0.00612396 1.34133e-30)
(0.0126871 0.00585084 2.59247e-30)
(0.0128079 0.00557417 6.34862e-31)
(0.0129237 0.00529447 -1.14054e-30)
(0.0130333 0.00501171 0)
(0.0131379 0.00472637 5.04091e-31)
(0.013236 0.00443838 -1.10677e-30)
(0.0133288 0.00414819 1.26078e-31)
(0.013415 0.00385583 1.11907e-30)
(0.0134956 0.0035617 -5.53009e-31)
(0.0135696 0.00326587 -8.54046e-31)
(0.0136377 0.00296868 -3.32622e-31)
(0.0136992 0.00267034 0)
(0.0137547 0.00237119 0)
(0.0138037 0.00207143 0)
(0.0138465 0.00177137 2.7397e-31)
(0.013883 0.00147125 0)
(0.0139131 0.00117131 2.87509e-32)
(0.0139373 0.000871423 1.85541e-32)
(0.0139553 0.00057261 -2.61529e-32)
(0.0139678 0.000275731 -1.68068e-32)
(-0.00155109 -0.00205361 4.42095e-32)
(-0.00164351 0.00496125 4.72924e-32)
(0.000787073 0.0166548 0)
(0.00406968 0.0114576 -1.21572e-30)
(0.00355143 0.019822 0)
(0.00399552 0.0210882 2.04204e-37)
(0.0032299 0.0149565 -1.02923e-29)
(0.00313721 0.0213385 0)
(0.00310688 0.0335506 -1.9761e-28)
(0.000400644 0.00226764 -5.98145e-29)
(0.00125581 0.00626757 2.49207e-31)
(0.00107301 0.00453688 -1.18472e-28)
(0.000521914 0.00200321 5.28122e-29)
(0.00432167 0.00667342 3.8984e-29)
(0.00538269 0.00319721 0)
(0.00431369 -0.000820144 1.33634e-29)
(0.00473311 0.00268234 -3.30379e-30)
(0.00995685 0.0114042 1.42855e-29)
(0.0171547 0.0192366 3.86791e-29)
(0.0204648 0.0222153 1.28413e-29)
(0.0192258 0.0210209 -7.96221e-30)
(0.015908 0.0182617 -5.96774e-30)
(0.0127424 0.0158138 4.08317e-30)
(0.0105394 0.0142248 0)
(0.00920683 0.0133137 0)
(0.00844392 0.012791 1.14631e-30)
(0.00801994 0.0124683 -6.76717e-31)
(0.007798 0.0122466 3.3401e-31)
(0.00770094 0.0120763 -7.56183e-32)
(0.00768439 0.011932 -5.01263e-31)
(0.00772198 0.0118004 -7.75173e-31)
(0.0077971 0.0116741 -3.60884e-31)
(0.00789897 0.0115489 -8.65207e-31)
(0.00802021 0.0114223 -1.38404e-30)
(0.00815577 0.0112927 -5.58703e-31)
(0.00830196 0.011159 6.05407e-31)
(0.00845619 0.0110207 0)
(0.00861646 0.010877 -1.87574e-30)
(0.00878134 0.0107278 6.93154e-31)
(0.0089496 0.0105727 2.07144e-30)
(0.0091204 0.0104116 -2.13571e-30)
(0.00929293 0.0102442 -8.03357e-31)
(0.00946662 0.0100706 2.29127e-30)
(0.00964083 0.00989045 0)
(0.00981529 0.00970402 -1.72146e-30)
(0.00998939 0.00951106 8.84476e-31)
(0.0101629 0.00931178 2.48193e-30)
(0.0103354 0.00910612 1.86941e-30)
(0.0105064 0.00889404 9.24667e-31)
(0.0106757 0.00867591 -2.59194e-30)
(0.0108429 0.00845163 6.25855e-31)
(0.0110078 0.00822143 3.61983e-30)
(0.0111699 0.00798542 1.01178e-30)
(0.011329 0.0077438 -1.02731e-30)
(0.0114847 0.00749683 1.03718e-30)
(0.0116367 0.00724473 0)
(0.0117848 0.00698777 0)
(0.0119286 0.00672607 1.07121e-30)
(0.012068 0.00646002 -1.07077e-30)
(0.0122025 0.00618966 -1.08489e-30)
(0.0123322 0.00591553 -1.28052e-30)
(0.0124565 0.00563757 -1.3642e-30)
(0.0125758 0.00535638 -1.17488e-30)
(0.012689 0.00507182 5.5174e-31)
(0.0127971 0.00478461 0)
(0.0128987 0.00449448 -5.54516e-31)
(0.0129951 0.0042022 9.59635e-31)
(0.0130845 0.0039075 9.32008e-31)
(0.0131687 0.00361119 -5.46059e-31)
(0.0132455 0.00331297 2.60676e-31)
(0.0133173 0.00301365 2.16215e-31)
(0.0133813 0.00271304 0)
(0.0134404 0.0024119 0)
(0.0134916 0.00211013 -2.76866e-31)
(0.0135379 0.00180838 0)
(0.0135765 0.00150675 0)
(0.0136101 0.00120549 0)
(0.0136365 0.000904781 0)
(0.0136579 0.000605229 2.80195e-32)
(0.0136732 0.000308121 3.22598e-32)
(-0.00226745 -0.000376394 -5.41661e-31)
(-0.00275944 0.00329318 8.1489e-31)
(0.000500246 0.00825308 -7.44114e-32)
(0.00257181 0.0059633 -1.21931e-30)
(0.00256425 0.0110258 1.81762e-30)
(0.00366199 0.0125597 -3.09614e-29)
(0.00331936 0.00929081 -1.07641e-30)
(0.00358767 0.014712 -1.64752e-29)
(0.00536681 0.0239442 3.25459e-29)
(0.00319613 0.00742491 2.48441e-29)
(0.00211803 0.016361 3.99642e-29)
(0.00191371 0.0137406 -4.20372e-29)
(-0.000595693 0.00558258 -7.10644e-30)
(-6.45948e-05 0.00247384 -1.63047e-29)
(0.00187707 0.000844958 -6.94914e-30)
(0.00285614 -1.57068e-05 -3.42441e-30)
(0.00366304 0.00282964 -6.68823e-31)
(0.00711103 0.0096641 2.27869e-32)
(0.0131676 0.0173209 -9.4645e-30)
(0.0176977 0.0217856 0)
(0.0184295 0.022048 -5.8093e-30)
(0.0163621 0.0198125 -9.71143e-30)
(0.0135203 0.0171506 9.81201e-31)
(0.0111743 0.0151223 1.12905e-30)
(0.00961137 0.0138443 5.18041e-31)
(0.00866334 0.0130838 0)
(0.00811043 0.0126194 -3.91917e-31)
(0.00779897 0.0123143 7.88361e-31)
(0.00763691 0.0120949 1.80624e-31)
(0.00757065 0.0119219 0)
(0.00756853 0.0117743 -1.40719e-31)
(0.00761084 0.0116401 -7.50347e-31)
(0.00768503 0.0115125 -1.18678e-30)
(0.00778249 0.0113869 -4.11879e-31)
(0.00789743 0.0112608 -9.41697e-31)
(0.00802557 0.0111322 5.22257e-31)
(0.00816395 0.0109999 -1.72298e-30)
(0.00831023 0.010863 -2.4464e-30)
(0.00846276 0.0107208 0)
(0.00862015 0.0105729 -2.61147e-39)
(0.00878139 0.0104189 -2.71006e-39)
(0.00894554 0.0102585 0)
(0.0091119 0.0100914 3.01502e-30)
(0.00928001 0.00991769 2.32423e-30)
(0.00944912 0.00973698 -8.25413e-31)
(0.00961908 0.0095496 1.69813e-30)
(0.00978903 0.00935505 8.74768e-31)
(0.00995885 0.0091538 2.49826e-30)
(0.0101278 0.0089456 -2.55909e-30)
(0.010296 0.00873086 9.50841e-31)
(0.0104626 0.00850935 9.72347e-31)
(0.0106276 0.00828155 9.86097e-31)
(0.0107902 0.00804731 -5.75704e-31)
(0.0109505 0.00780718 -2.59246e-30)
(0.0111075 0.00756105 0)
(0.0112615 0.00730956 -1.49797e-30)
(0.0114116 0.00705257 -1.4847e-30)
(0.0115581 0.00679075 2.48556e-30)
(0.0116999 0.00652393 3.2017e-31)
(0.0118378 0.00625287 -1.07558e-30)
(0.0119702 0.00597735 0)
(0.0120983 0.00569818 2.29673e-30)
(0.0122202 0.00541512 2.17101e-32)
(0.0123376 0.00512899 -5.47221e-33)
(0.0124483 0.00483955 5.56814e-31)
(0.0125542 0.00454758 1.00245e-30)
(0.012653 0.00425286 8.32886e-31)
(0.0127469 0.00395618 3.73088e-31)
(0.0128333 0.00365736 -2.48992e-31)
(0.0129146 0.00335712 8.16826e-31)
(0.0129884 0.00305537 5.60334e-31)
(0.0130569 0.00275283 0)
(0.0131179 0.00244948 2.79841e-31)
(0.0131734 0.00214596 -2.00781e-32)
(0.0132216 0.00184239 2.87388e-31)
(0.0132642 0.00153932 5.87893e-32)
(0.0133001 0.00123674 5.40294e-32)
(0.0133301 0.000935031 4.32285e-32)
(0.013355 0.000634516 5.50802e-32)
(0.013374 0.000337289 3.34785e-32)
(-0.00212278 0.00106502 -1.9601e-31)
(-0.0027201 0.00309911 5.00238e-31)
(-0.000705363 0.00592824 0)
(0.000430619 0.0057309 0)
(0.000981754 0.00857227 -1.161e-30)
(0.00273274 0.00967849 -1.67423e-30)
(0.00278285 0.00886072 -2.52193e-30)
(0.00273465 0.0120798 -3.23482e-30)
(0.00560787 0.0157913 0)
(0.00439202 0.00693872 0)
(0.00195429 0.00955669 1.69459e-29)
(0.00239568 0.00736605 0)
(0.00113768 0.00225991 0)
(0.000709485 0.000410612 0)
(0.00140972 -0.000126068 -3.72207e-30)
(0.00196313 3.98933e-05 -2.79166e-30)
(0.0028157 0.00275143 -2.7163e-30)
(0.00542487 0.00849979 -6.43937e-30)
(0.0102724 0.0156084 -9.51452e-30)
(0.0149689 0.020835 -3.03012e-30)
(0.016961 0.0223495 8.70311e-30)
(0.016109 0.0208994 -7.09435e-32)
(0.0138616 0.018344 -4.15119e-30)
(0.0115983 0.0160484 -1.90482e-30)
(0.00991317 0.0144498 0)
(0.00882248 0.0134484 1.86343e-30)
(0.00815917 0.0128294 1.32728e-30)
(0.00776934 0.0124304 4.50797e-31)
(0.0075506 0.0121541 -9.10894e-31)
(0.00744123 0.0119469 0)
(0.00740445 0.0117789 -9.56062e-32)
(0.00741788 0.0116335 8.45602e-31)
(0.00746713 0.0115005 9.21658e-31)
(0.00754287 0.0113736 3.13997e-31)
(0.00763851 0.0112489 4.49602e-38)
(0.00774956 0.0111236 -1.12697e-30)
(0.00787259 0.0109959 -1.68106e-30)
(0.0080052 0.0108643 -5.22182e-31)
(0.00814545 0.010728 0)
(0.00829194 0.0105861 -6.00068e-31)
(0.00844337 0.0104381 6.37294e-31)
(0.00859886 0.0102836 0)
(0.00875774 0.0101223 7.07111e-31)
(0.00891917 0.00995383 2.27034e-30)
(0.00908293 0.00977828 1.56966e-30)
(0.00924786 0.00959509 6.70223e-38)
(0.00941407 0.00940489 0)
(0.00958065 0.00920708 -7.49985e-31)
(0.00974758 0.00900221 -7.46733e-31)
(0.00991394 0.0087899 9.18962e-31)
(0.0100798 0.00857072 9.39189e-31)
(0.0102442 0.00834442 6.42262e-31)
(0.0104072 0.00811161 9.96085e-31)
(0.0105679 0.00787212 -3.13807e-30)
(0.0107264 0.0076266 -5.38764e-31)
(0.0108816 0.00737495 0)
(0.011034 0.00711783 1.46038e-30)
(0.0111824 0.00685517 3.9158e-30)
(0.0113272 0.0065876 2.07615e-32)
(0.0114673 0.00631513 -1.34616e-30)
(0.0116032 0.00603837 0)
(0.0117337 0.00575736 1.26583e-31)
(0.0118596 0.00547265 1.16037e-30)
(0.0119796 0.00518437 5.45417e-31)
(0.0120944 0.00489297 5.43119e-31)
(0.012203 0.00459867 1.09656e-30)
(0.012306 0.00430182 0)
(0.0124025 0.00400272 0)
(0.0124931 0.0037017 0)
(0.0125771 0.00339908 -5.49512e-31)
(0.0126549 0.00309519 5.4449e-31)
(0.0127263 0.00279042 0)
(0.012791 0.00248511 2.71938e-31)
(0.0128495 0.00217966 2.74153e-31)
(0.0129012 0.00187444 2.72998e-31)
(0.0129471 0.00156971 2.74764e-31)
(0.0129862 0.00126588 0)
(0.0130207 0.000962309 0)
(0.0130491 0.000661222 -3.72548e-32)
(0.0130725 0.000363695 6.65307e-32)
(-0.00166084 0.00202546 0)
(-0.00208855 0.00301371 4.85577e-31)
(-0.00112522 0.00510613 2.71757e-31)
(-0.000348894 0.00619735 2.63559e-31)
(0.000414628 0.00865651 5.46991e-31)
(0.00193581 0.00993361 -2.13345e-31)
(0.0023107 0.0102937 0)
(0.0024207 0.0125099 3.90793e-30)
(0.0049838 0.0139854 0)
(0.00464931 0.00896024 0)
(0.00317488 0.00829234 -8.43359e-31)
(0.00371002 0.00588178 -1.14556e-30)
(0.00303259 0.00240308 0)
(0.00198829 0.000434053 1.43613e-30)
(0.0015827 -0.000330511 -2.08107e-30)
(0.00161826 0.00012858 5.04225e-31)
(0.00230917 0.00269739 9.22405e-32)
(0.00439014 0.00771675 -4.24547e-30)
(0.00826037 0.0142044 1.03913e-30)
(0.0126169 0.0197014 -1.06109e-30)
(0.0152526 0.0221466 2.36752e-30)
(0.0153739 0.0215287 0)
(0.0138041 0.0192997 2.24113e-30)
(0.0117881 0.016916 -2.55243e-30)
(0.0100927 0.0150781 -1.60696e-30)
(0.00891268 0.013856 -2.08669e-31)
(0.00816261 0.0130817 1.35044e-32)
(0.00770666 0.0125838 1.32459e-30)
(0.00743949 0.0122465 -2.91838e-31)
(0.00729326 0.0120017 0)
(0.00722694 0.0118111 2.70603e-32)
(0.00721535 0.0116523 -7.24278e-32)
(0.00724274 0.0115122 0)
(0.00729891 0.0113825 4.56671e-31)
(0.00737693 0.0112577 2.90982e-31)
(0.00747193 0.0111344 0)
(0.0075804 0.01101 1.22962e-30)
(0.00769975 0.0108827 1.73856e-30)
(0.00782797 0.0107511 0)
(0.00796352 0.0106142 -5.29074e-31)
(0.00810509 0.0104713 5.7074e-31)
(0.00825188 0.0103218 0)
(0.00840286 0.0101651 -2.1663e-30)
(0.00855773 0.0100013 -2.24101e-30)
(0.0087152 0.00982946 0)
(0.0088753 0.00965028 7.56896e-31)
(0.00903717 0.00946306 0)
(0.00920055 0.00926824 8.27017e-31)
(0.0093646 0.00906545 8.56719e-31)
(0.00952927 0.00885519 0)
(0.0096936 0.0086372 0)
(0.0098576 0.00841208 -9.29462e-31)
(0.0100203 0.00817964 -6.36585e-31)
(0.0101817 0.00794053 -1.90484e-32)
(0.0103408 0.00769465 2.54035e-30)
(0.0104978 0.00744266 1.49731e-30)
(0.0106516 0.00718455 1.48132e-30)
(0.0108024 0.00692092 1.03101e-30)
(0.0109492 0.00665187 0)
(0.0110923 0.00637793 1.05014e-30)
(0.0112307 0.0060993 0)
(0.0113646 0.00581641 -1.06331e-30)
(0.0114933 0.00552956 1.13555e-30)
(0.0116169 0.00523909 2.10404e-32)
(0.0117347 0.00494541 -1.00624e-30)
(0.011847 0.0046487 8.89673e-32)
(0.0119533 0.00434949 -9.52967e-31)
(0.0120535 0.00404792 0)
(0.0121476 0.00374454 5.36909e-31)
(0.0122351 0.00343948 -1.07409e-30)
(0.0123167 0.00313333 -5.34718e-31)
(0.0123913 0.00282629 -5.34517e-31)
(0.0124601 0.00251893 5.32493e-31)
(0.0125217 0.00221155 0)
(0.0125777 0.0019045 -5.91314e-33)
(0.0126265 0.00159822 2.43736e-31)
(0.0126707 0.00129194 3.17094e-32)
(0.0127087 0.000987254 1.74733e-31)
(0.012742 0.000685012 -1.28121e-31)
(0.0127694 0.000387262 0)
(-0.00124285 0.00269183 5.95983e-33)
(-0.00158658 0.00292386 -5.29973e-32)
(-0.00114909 0.00433647 -2.82559e-31)
(-0.000547836 0.00579122 0)
(0.000211775 0.0079097 4.85547e-31)
(0.00135871 0.00941812 1.39677e-31)
(0.0019845 0.0104269 0)
(0.00247533 0.0121705 6.31982e-31)
(0.00433663 0.0130799 0)
(0.00461034 0.0102322 0)
(0.00405983 0.00861747 -2.11172e-30)
(0.00417953 0.00605619 1.48978e-30)
(0.00353938 0.0029838 -2.7262e-32)
(0.0025048 0.000836577 1.347e-30)
(0.00179753 -8.58769e-05 4.00222e-31)
(0.00157276 0.000403637 1.2015e-30)
(0.00206478 0.00277482 2.94798e-30)
(0.00373571 0.00723145 5.87812e-30)
(0.00686601 0.0131251 3.28551e-32)
(0.0107192 0.0185962 -6.59753e-30)
(0.013575 0.0216527 -5.91297e-30)
(0.0143745 0.0217793 -1.22096e-29)
(0.0134346 0.0199857 -1.05391e-29)
(0.0117524 0.0176623 -1.5213e-30)
(0.0101398 0.0156803 0)
(0.00892679 0.0142769 0)
(0.00811766 0.0133583 -6.29841e-31)
(0.00760948 0.0127629 1.04303e-30)
(0.00730209 0.0123637 -6.0424e-33)
(0.00712505 0.0120804 -9.6907e-31)
(0.0070339 0.0118663 0)
(0.00700102 0.0116935 0)
(0.00700949 0.0115455 8.83198e-32)
(0.00704833 0.0114121 1.58681e-31)
(0.00711038 0.0112866 0)
(0.00719051 0.0111644 0)
(0.00728525 0.0110425 -9.42306e-31)
(0.00739181 0.0109184 -9.52005e-31)
(0.00750827 0.0107907 -4.22178e-31)
(0.007633 0.0106579 -2.07358e-38)
(0.00776482 0.0105191 -2.13889e-38)
(0.00790263 0.0103737 5.51655e-31)
(0.0080459 0.010221 9.51503e-31)
(0.00819338 0.0100604 3.22049e-31)
(0.00834484 0.00989209 0)
(0.00849958 0.00971548 0)
(0.00865706 0.00953078 0)
(0.00881659 0.00933767 -7.90894e-31)
(0.00897791 0.0091365 0)
(0.00914019 0.00892707 0)
(0.00930321 0.00870986 1.6306e-30)
(0.00946611 0.00848477 1.77524e-32)
(0.00962872 0.00825235 -1.61029e-30)
(0.00979016 0.00801258 -9.48537e-31)
(0.00995031 0.00776604 0)
(0.0101083 0.0075128 0)
(0.010264 0.00725343 2.46105e-30)
(0.0104165 0.0069881 1.84041e-30)
(0.0105659 0.00671729 2.75176e-30)
(0.0107114 0.00644132 2.36769e-30)
(0.0108527 0.00616055 2.10431e-31)
(0.0109895 0.0058754 2.05074e-32)
(0.0111215 0.0055861 -2.27164e-30)
(0.0112483 0.00529324 -2.13151e-30)
(0.0113696 0.0049969 -1.96987e-30)
(0.0114854 0.00469776 -1.80561e-30)
(0.011595 0.00439579 -2.2855e-30)
(0.0116991 0.00409178 -1.03198e-32)
(0.0117965 0.00378565 3.1189e-31)
(0.0118883 0.00347822 -5.22587e-31)
(0.011973 0.00316947 -5.27352e-31)
(0.0120522 0.0028602 -5.18559e-31)
(0.012124 0.00255056 5.23587e-31)
(0.0121905 0.00224112 0)
(0.0122495 0.00193224 3.68424e-33)
(0.0123038 0.00162329 -2.25174e-31)
(0.0123517 0.00131543 0)
(0.0123948 0.00100874 1.24559e-31)
(0.0124324 0.000705615 -3.11252e-32)
(0.0124643 0.000407554 -6.53637e-32)
(-0.000911589 0.00322455 0)
(-0.00125449 0.00296882 -1.73246e-31)
(-0.00109828 0.00386495 6.43556e-32)
(-0.000659594 0.00521606 -7.54175e-32)
(1.59896e-05 0.00697042 1.03357e-30)
(0.000935795 0.00850464 -6.03233e-31)
(0.00169732 0.00976184 0)
(0.00245057 0.0111199 0)
(0.00383129 0.0117015 6.04247e-31)
(0.00439948 0.0100305 -6.96181e-31)
(0.00430169 0.0082356 -1.18862e-30)
(0.00418075 0.00582046 1.10691e-30)
(0.00359778 0.00318933 -7.44236e-31)
(0.00272999 0.0012162 1.94875e-31)
(0.00199655 0.000322861 -3.36814e-30)
(0.00165321 0.000793979 -3.32921e-30)
(0.00197661 0.00296745 3.13717e-30)
(0.00332102 0.00697872 2.13574e-30)
(0.00589136 0.0123477 3.72977e-30)
(0.00923549 0.0176343 -6.29981e-31)
(0.0120591 0.0210376 6.60488e-30)
(0.0132745 0.02176 5.71698e-30)
(0.0128525 0.0204211 -1.23444e-30)
(0.0115244 0.0182576 1.10722e-37)
(0.0100576 0.0162203 -9.09928e-31)
(0.00886206 0.014685 0)
(0.00802278 0.0136425 -5.64361e-31)
(0.00747756 0.0129569 -7.55191e-31)
(0.00713846 0.0124981 -1.09653e-30)
(0.00693641 0.0121776 1.07084e-30)
(0.00682466 0.0119405 1.06773e-30)
(0.00677396 0.0117541 0)
(0.00676615 0.0115984 3.4517e-32)
(0.00678981 0.0114612 0)
(0.0068374 0.0113345 1.58663e-31)
(0.0069039 0.0112131 -2.5135e-30)
(0.00698562 0.011093 2.55556e-31)
(0.00707995 0.0109717 1.23773e-32)
(0.007185 0.010847 -2.82516e-30)
(0.00729909 0.0107175 -3.79293e-39)
(0.00742111 0.0105821 -3.91049e-39)
(0.0075501 0.0104399 3.06562e-30)
(0.00768505 0.0102901 2.11928e-32)
(0.00782531 0.0101323 7.02881e-30)
(0.00797044 0.00996615 3.28375e-30)
(0.00811958 0.00979145 -6.79703e-31)
(0.00827229 0.00960807 0)
(0.00842798 0.00941601 -7.56489e-31)
(0.00858607 0.00921529 -7.89977e-31)
(0.00874602 0.0090061 -1.65468e-30)
(0.00890724 0.00878855 -1.6584e-30)
(0.00906919 0.00856295 1.62284e-30)
(0.00923128 0.00832952 1.61734e-30)
(0.00939297 0.00808858 -9.29271e-31)
(0.00955371 0.00784048 0)
(0.0097129 0.00758554 -9.69145e-31)
(0.00987012 0.00732419 5.13081e-38)
(0.0100247 0.00705671 -1.00001e-30)
(0.0101764 0.00678365 -1.36363e-30)
(0.0103243 0.00650517 -3.0588e-31)
(0.0104687 0.00622196 -6.86817e-38)
(0.0106083 0.00593404 -1.18654e-30)
(0.0107437 0.00564221 -1.13962e-30)
(0.0108735 0.00534639 -1.04788e-30)
(0.0109987 0.00504749 1.02992e-30)
(0.0111174 0.00474528 0)
(0.0112314 0.00444076 2.77452e-31)
(0.0113384 0.00413367 1.24111e-30)
(0.0114405 0.00382504 -5.11455e-31)
(0.0115351 0.00351463 2.78491e-31)
(0.0116249 0.00320346 3.06783e-31)
(0.0117069 0.00289147 0)
(0.0117841 0.00257953 0)
(0.0118536 0.00226779 0)
(0.0119184 0.00195627 2.48109e-31)
(0.0119765 0.00164533 -5.32357e-31)
(0.0120296 0.00133498 -2.9677e-32)
(0.0120772 0.00102685 4.71647e-32)
(0.0121192 0.00072285 -2.36204e-39)
(0.012156 0.000423859 -2.98382e-32)
(-0.00063276 0.00370218 -1.84931e-32)
(-0.000988954 0.00313247 -1.2152e-31)
(-0.000994475 0.00367145 -1.38354e-31)
(-0.000699774 0.00481603 7.94501e-31)
(-0.000138459 0.00630934 8.40396e-31)
(0.000637233 0.00776425 4.84017e-31)
(0.00143311 0.00903372 1.36369e-30)
(0.00229127 0.0101065 1.66445e-32)
(0.00341762 0.0104511 7.73652e-31)
(0.004102 0.00934366 2.23549e-32)
(0.00424642 0.00766609 -6.45244e-31)
(0.00411043 0.00552519 2.36678e-30)
(0.00360928 0.00330743 -6.02843e-31)
(0.00286594 0.00159168 2.4251e-30)
(0.00216397 0.000796725 7.55546e-32)
(0.00177246 0.00125218 -5.75483e-30)
(0.00197294 0.00325322 -8.78792e-31)
(0.0030622 0.00690582 0)
(0.0052013 0.0118251 0)
(0.00808739 0.0168553 3.49534e-30)
(0.0107471 0.0204121 5.30729e-30)
(0.0121783 0.0215716 0)
(0.0121461 0.0206501 -8.77196e-31)
(0.0111479 0.0186989 -1.09794e-37)
(0.00985926 0.0166773 1.62752e-30)
(0.00872069 0.0150604 1.78956e-30)
(0.00787843 0.0139206 0)
(0.00731162 0.0131565 4.6767e-38)
(0.00694985 0.0126436 -2.38439e-30)
(0.0067283 0.0122887 -2.06201e-30)
(0.00659987 0.0120304 2.27971e-30)
(0.00653439 0.0118315 2.21818e-30)
(0.00651266 0.0116688 2.35376e-30)
(0.006523 0.0115283 2.47007e-30)
(0.00655758 0.0114006 1.03209e-31)
(0.00661145 0.0112797 0)
(0.00668088 0.0111613 0)
(0.0067636 0.0110422 -2.78441e-30)
(0.00685741 0.0109201 -2.58549e-30)
(0.00696114 0.0107934 -3.50239e-31)
(0.00707332 0.0106604 3.97414e-31)
(0.00719321 0.0105206 2.68371e-30)
(0.00731977 0.0103728 -3.227e-30)
(0.00745277 0.0102168 0)
(0.00759115 0.0100519 0)
(0.0077346 0.00987813 -6.38882e-31)
(0.0078823 0.00969509 -4.04452e-30)
(0.0080339 0.00950308 -3.39529e-30)
(0.00818858 0.00930188 -4.87509e-30)
(0.008346 0.00909194 -3.36979e-30)
(0.00850529 0.00887318 4.13246e-30)
(0.00866614 0.00864616 3.29909e-30)
(0.00882763 0.00841089 -8.81234e-31)
(0.0089895 0.00816802 0)
(0.00915074 0.00791761 -1.54142e-30)
(0.00931122 0.00766036 -2.4625e-30)
(0.00946981 0.00739634 -4.92531e-38)
(0.00962659 0.0071263 -9.7184e-31)
(0.00978028 0.0068503 0)
(0.00993121 0.00656912 -1.30293e-30)
(0.0100779 0.00628278 -1.26423e-30)
(0.0102212 0.00599209 0)
(0.0103592 0.00569702 0)
(0.0104931 0.00539842 2.58367e-32)
(0.0106209 0.00509621 3.03735e-30)
(0.0107443 0.00479124 -1.883e-30)
(0.0108609 0.00448343 -1.83349e-30)
(0.0109728 0.00417361 1.18894e-30)
(0.0110776 0.00386175 8.96829e-32)
(0.0111773 0.00354867 7.4045e-31)
(0.0112699 0.00323444 5.20159e-31)
(0.0113573 0.00291986 -9.75824e-33)
(0.0114377 0.00260509 9.88054e-33)
(0.0115128 0.00229073 -5.61196e-31)
(0.0115816 0.00197666 2.42809e-32)
(0.011645 0.00166316 -3.98528e-31)