/*--------------------------------*- C++ -*----------------------------------*\
  =========                 |
  \\      /  F ield         | OpenFOAM: The Open Source CFD Toolbox
   \\    /   O peration     | Website:  https://openfoam.org
    \\  /    A nd           | Version:  7
     \\/     M anipulation  |
\*---------------------------------------------------------------------------*/
FoamFile
{
    version     2.0;
    format      ascii;
    class       volVectorField;
    location    "15";
    object      Us;
}
// * * * * * * * * * * * * * * * * * * * * * * * * * * * * * * * * * * * * * //

dimensions      [0 1 -1 0 0 0 0];

internalField   nonuniform List<vector> 
49920
(
(-1.12931e-10 -1.15918e-10 0)
(-6.80322e-11 -2.64071e-12 0)
(-4.64549e-11 2.98937e-11 0)
(-3.17716e-11 4.15208e-11 0)
(-1.90805e-11 4.5616e-11 0)
(-1.0449e-11 4.60322e-11 0)
(-3.60264e-12 4.67855e-11 0)
(2.65735e-12 4.63371e-11 0)
(8.87416e-12 4.79309e-11 0)
(1.67415e-11 4.92475e-11 0)
(2.57334e-11 4.76104e-11 0)
(3.66463e-11 4.2234e-11 0)
(4.86969e-11 3.08315e-11 0)
(5.93556e-11 1.03764e-11 0)
(6.04091e-11 -2.73794e-11 0)
(5.47713e-11 -1.21946e-10 0)
(-3.44501e-11 -2.25339e-10 0)
(2.21614e-09 2.3354e-09 0)
(3.34453e-08 1.39575e-08 0)
(1.11043e-07 2.90349e-08 0)
(2.34516e-07 4.1149e-08 0)
(3.98224e-07 4.63732e-08 0)
(5.94342e-07 4.20633e-08 0)
(8.13729e-07 2.65608e-08 0)
(1.04718e-06 -5.8116e-10 0)
(1.2865e-06 -3.86512e-08 0)
(1.52508e-06 -8.61329e-08 0)
(1.75785e-06 -1.41136e-07 0)
(1.98095e-06 -2.01728e-07 0)
(2.19131e-06 -2.66115e-07 0)
(2.38629e-06 -3.32672e-07 0)
(2.56347e-06 -3.99898e-07 0)
(2.7207e-06 -4.66346e-07 0)
(2.85623e-06 -5.30575e-07 0)
(2.969e-06 -5.91144e-07 0)
(3.05899e-06 -6.46674e-07 0)
(3.12756e-06 -6.95942e-07 0)
(3.17768e-06 -7.38011e-07 0)
(3.21419e-06 -7.72356e-07 0)
(3.24387e-06 -7.98949e-07 0)
(3.2755e-06 -8.18292e-07 0)
(3.31979e-06 -8.31375e-07 0)
(3.38935e-06 -8.39565e-07 0)
(3.49843e-06 -8.44449e-07 0)
(3.6626e-06 -8.47632e-07 0)
(3.89822e-06 -8.50528e-07 0)
(4.22164e-06 -8.54148e-07 0)
(4.64833e-06 -8.58908e-07 0)
(5.19184e-06 -8.64467e-07 0)
(5.8629e-06 -8.69609e-07 0)
(6.66861e-06 -8.72211e-07 0)
(7.61174e-06 -8.69289e-07 0)
(8.69027e-06 -8.57146e-07 0)
(9.89704e-06 -8.31631e-07 0)
(1.12195e-05 -7.88461e-07 0)
(1.26398e-05 -7.23617e-07 0)
(1.41347e-05 -6.33746e-07 0)
(1.56763e-05 -5.1655e-07 0)
(1.72324e-05 -3.71102e-07 0)
(1.87675e-05 -1.98066e-07 0)
(2.02443e-05 2.24263e-10 0)
(2.16247e-05 2.19849e-07 0)
(2.28716e-05 4.5553e-07 0)
(2.39508e-05 7.00997e-07 0)
(2.48323e-05 9.49437e-07 0)
(2.54924e-05 1.19396e-06 0)
(2.59143e-05 1.42804e-06 0)
(2.60895e-05 1.64582e-06 0)
(2.60177e-05 1.84236e-06 0)
(2.57071e-05 2.01372e-06 0)
(2.51733e-05 2.15693e-06 0)
(2.44382e-05 2.27001e-06 0)
(2.35291e-05 2.35182e-06 0)
(2.24762e-05 2.40208e-06 0)
(2.13119e-05 2.42128e-06 0)
(2.00684e-05 2.41063e-06 0)
(1.8777e-05 2.37208e-06 0)
(1.74667e-05 2.30815e-06 0)
(1.6163e-05 2.22189e-06 0)
(1.48881e-05 2.11667e-06 0)
(-9.98849e-10 3.08503e-10 0)
(-1.70369e-10 5.18916e-11 0)
(-1.07481e-10 8.34603e-11 0)
(-7.63171e-11 1.00958e-10 0)
(-4.9346e-11 1.14719e-10 0)
(-2.57931e-11 1.17951e-10 0)
(-5.17232e-12 1.1961e-10 0)
(9.08659e-12 1.16281e-10 0)
(2.09746e-11 1.21701e-10 0)
(4.17866e-11 1.302e-10 0)
(6.72178e-11 1.24375e-10 0)
(9.35207e-11 1.07661e-10 0)
(1.18881e-10 7.70762e-11 0)
(1.40216e-10 2.94906e-11 0)
(1.59149e-10 -3.29973e-11 0)
(1.85762e-10 -1.41981e-10 0)
(1.89819e-10 -2.26925e-10 0)
(5.57857e-08 1.57324e-08 0)
(2.54823e-07 6.01422e-08 0)
(6.193e-07 1.19423e-07 0)
(1.11435e-06 1.69164e-07 0)
(1.69223e-06 1.91439e-07 0)
(2.31105e-06 1.7773e-07 0)
(2.93948e-06 1.26843e-07 0)
(3.55657e-06 4.23101e-08 0)
(4.14971e-06 -6.99606e-08 0)
(4.71205e-06 -2.035e-07 0)
(5.24019e-06 -3.52389e-07 0)
(5.73252e-06 -5.1172e-07 0)
(6.18813e-06 -6.77611e-07 0)
(6.60638e-06 -8.46956e-07 0)
(6.98692e-06 -1.01712e-06 0)
(7.32991e-06 -1.18564e-06 0)
(7.6365e-06 -1.35004e-06 0)
(7.90928e-06 -1.50777e-06 0)
(8.15281e-06 -1.65621e-06 0)
(8.37407e-06 -1.7928e-06 0)
(8.58284e-06 -1.91524e-06 0)
(8.79207e-06 -2.02164e-06 0)
(9.01819e-06 -2.11063e-06 0)
(9.28133e-06 -2.18147e-06 0)
(9.60535e-06 -2.23396e-06 0)
(1.00177e-05 -2.26831e-06 0)
(1.05484e-05 -2.285e-06 0)
(1.12289e-05 -2.28449e-06 0)
(1.20895e-05 -2.26694e-06 0)
(1.31564e-05 -2.23206e-06 0)
(1.44481e-05 -2.1788e-06 0)
(1.59733e-05 -2.10539e-06 0)
(1.77281e-05 -2.00938e-06 0)
(1.96962e-05 -1.8879e-06 0)
(2.18492e-05 -1.73806e-06 0)
(2.41485e-05 -1.55748e-06 0)
(2.65477e-05 -1.34477e-06 0)
(2.89954e-05 -1.09996e-06 0)
(3.14379e-05 -8.24815e-07 0)
(3.38218e-05 -5.22864e-07 0)
(3.60969e-05 -1.99301e-07 0)
(3.82174e-05 1.39364e-07 0)
(4.01442e-05 4.85778e-07 0)
(4.18453e-05 8.3232e-07 0)
(4.32969e-05 1.17167e-06 0)
(4.44827e-05 1.49731e-06 0)
(4.5394e-05 1.80391e-06 0)
(4.60283e-05 2.08756e-06 0)
(4.63884e-05 2.34575e-06 0)
(4.64815e-05 2.57728e-06 0)
(4.63177e-05 2.78197e-06 0)
(4.59092e-05 2.96028e-06 0)
(4.527e-05 3.11302e-06 0)
(4.44152e-05 3.24096e-06 0)
(4.33611e-05 3.34462e-06 0)
(4.2125e-05 3.42413e-06 0)
(4.07259e-05 3.47919e-06 0)
(3.91842e-05 3.50919e-06 0)
(3.75218e-05 3.5133e-06 0)
(3.57623e-05 3.49074e-06 0)
(3.39301e-05 3.44095e-06 0)
(3.20503e-05 3.36377e-06 0)
(3.01478e-05 3.25961e-06 0)
(1.43243e-09 1.53186e-09 0)
(-1.03564e-10 1.00148e-09 0)
(-1.60053e-10 2.21435e-10 0)
(-1.13625e-10 1.6614e-10 0)
(-7.39956e-11 1.90939e-10 0)
(-3.48355e-11 1.97922e-10 0)
(2.9607e-12 2.09228e-10 0)
(1.75826e-11 1.90282e-10 0)
(2.01841e-11 2.00009e-10 0)
(5.53437e-11 1.94914e-10 0)
(9.79281e-11 1.83578e-10 0)
(1.37987e-10 1.57382e-10 0)
(1.81205e-10 1.17903e-10 0)
(2.29233e-10 5.36814e-11 0)
(2.92055e-10 -1.91367e-11 0)
(3.02535e-10 -1.37736e-10 0)
(9.31695e-08 2.45798e-08 0)
(4.38025e-07 1.19224e-07 0)
(1.0894e-06 2.73859e-07 0)
(1.96578e-06 4.2623e-07 0)
(2.9501e-06 5.22511e-07 0)
(3.95335e-06 5.4127e-07 0)
(4.92348e-06 4.8448e-07 0)
(5.83606e-06 3.64687e-07 0)
(6.68332e-06 1.96974e-07 0)
(7.46614e-06 -4.91227e-09 0)
(8.18887e-06 -2.29984e-07 0)
(8.8566e-06 -4.70116e-07 0)
(9.47391e-06 -7.19547e-07 0)
(1.00447e-05 -9.74177e-07 0)
(1.05725e-05 -1.23088e-06 0)
(1.10609e-05 -1.48692e-06 0)
(1.15147e-05 -1.73956e-06 0)
(1.19398e-05 -1.98579e-06 0)
(1.23444e-05 -2.22224e-06 0)
(1.27396e-05 -2.44521e-06 0)
(1.31391e-05 -2.65073e-06 0)
(1.35605e-05 -2.83469e-06 0)
(1.4025e-05 -2.99303e-06 0)
(1.45576e-05 -3.12173e-06 0)
(1.51874e-05 -3.21698e-06 0)
(1.59462e-05 -3.27523e-06 0)
(1.68676e-05 -3.29323e-06 0)
(1.79846e-05 -3.26828e-06 0)
(1.93256e-05 -3.19844e-06 0)
(2.09111e-05 -3.0828e-06 0)
(2.27491e-05 -2.92168e-06 0)
(2.48323e-05 -2.71675e-06 0)
(2.7137e-05 -2.47091e-06 0)
(2.96242e-05 -2.18809e-06 0)
(3.22421e-05 -1.87306e-06 0)
(3.49308e-05 -1.53126e-06 0)
(3.76265e-05 -1.16869e-06 0)
(4.02665e-05 -7.91845e-07 0)
(4.27926e-05 -4.07631e-07 0)
(4.51543e-05 -2.3184e-08 0)
(4.73106e-05 3.54404e-07 0)
(4.92307e-05 7.18408e-07 0)
(5.08944e-05 1.06282e-06 0)
(5.22912e-05 1.38268e-06 0)
(5.34191e-05 1.67429e-06 0)
(5.42827e-05 1.93534e-06 0)
(5.48922e-05 2.16495e-06 0)
(5.52607e-05 2.3635e-06 0)
(5.54032e-05 2.53247e-06 0)
(5.53352e-05 2.67414e-06 0)
(5.50714e-05 2.79128e-06 0)
(5.46251e-05 2.88687e-06 0)
(5.4008e-05 2.9638e-06 0)
(5.32301e-05 3.02464e-06 0)
(5.23e-05 3.07145e-06 0)
(5.12249e-05 3.10566e-06 0)
(5.00119e-05 3.12798e-06 0)
(4.86678e-05 3.13845e-06 0)
(4.72005e-05 3.13641e-06 0)
(4.5619e-05 3.12067e-06 0)
(4.39341e-05 3.08965e-06 0)
(4.21585e-05 3.04153e-06 0)
(4.0307e-05 2.97449e-06 0)
(3.83961e-05 2.88686e-06 0)
(1.95109e-07 1.67909e-07 0)
(7.28204e-08 6.94439e-08 0)
(2.5182e-10 2.91917e-10 0)
(-8.04523e-11 3.16283e-10 0)
(-8.72552e-11 1.11873e-09 0)
(1.28207e-09 1.12257e-08 0)
(1.40379e-09 7.03014e-09 0)
(1.30856e-09 6.11957e-09 0)
(5.80425e-11 1.45662e-09 0)
(5.61581e-11 2.6964e-10 0)
(1.26813e-10 2.47067e-10 0)
(1.86039e-10 2.11617e-10 0)
(2.92582e-10 1.95018e-10 0)
(4.42348e-10 1.387e-10 0)
(4.41819e-10 -1.51993e-11 0)
(1.78615e-07 4.42438e-08 0)
(7.69725e-07 2.15006e-07 0)
(1.82013e-06 5.02914e-07 0)
(3.16055e-06 7.9872e-07 0)
(4.58018e-06 9.98989e-07 0)
(5.94207e-06 1.06465e-06 0)
(7.18838e-06 1.00574e-06 0)
(8.30889e-06 8.5066e-07 0)
(9.31459e-06 6.28261e-07 0)
(1.02228e-05 3.61526e-07 0)
(1.10505e-05 6.68708e-08 0)
(1.18119e-05 -2.44713e-07 0)
(1.25178e-05 -5.66117e-07 0)
(1.31769e-05 -8.92731e-07 0)
(1.37963e-05 -1.22132e-06 0)
(1.4383e-05 -1.5492e-06 0)
(1.49444e-05 -1.87362e-06 0)
(1.54897e-05 -2.19139e-06 0)
(1.60304e-05 -2.49868e-06 0)
(1.65806e-05 -2.79094e-06 0)
(1.71581e-05 -3.06286e-06 0)
(1.77841e-05 -3.30849e-06 0)
(1.84835e-05 -3.5213e-06 0)
(1.92847e-05 -3.69433e-06 0)
(2.02189e-05 -3.82038e-06 0)
(2.13183e-05 -3.8923e-06 0)
(2.2614e-05 -3.90347e-06 0)
(2.41326e-05 -3.84847e-06 0)
(2.58918e-05 -3.72387e-06 0)
(2.78966e-05 -3.52904e-06 0)
(3.01361e-05 -3.2668e-06 0)
(3.2582e-05 -2.94352e-06 0)
(3.51892e-05 -2.56872e-06 0)
(3.79001e-05 -2.15424e-06 0)
(4.06489e-05 -1.71307e-06 0)
(4.33677e-05 -1.2583e-06 0)
(4.59921e-05 -8.02273e-07 0)
(4.84653e-05 -3.55979e-07 0)
(5.07411e-05 7.12195e-08 0)
(5.27856e-05 4.71739e-07 0)
(5.4577e-05 8.39785e-07 0)
(5.61049e-05 1.1713e-06 0)
(5.73684e-05 1.46387e-06 0)
(5.83747e-05 1.71658e-06 0)
(5.91366e-05 1.92984e-06 0)
(5.96702e-05 2.10518e-06 0)
(5.99939e-05 2.24504e-06 0)
(6.01262e-05 2.3525e-06 0)
(6.00847e-05 2.43107e-06 0)
(5.98857e-05 2.48447e-06 0)
(5.9543e-05 2.51645e-06 0)
(5.90684e-05 2.53062e-06 0)
(5.84712e-05 2.53032e-06 0)
(5.77585e-05 2.51854e-06 0)
(5.69354e-05 2.49782e-06 0)
(5.60057e-05 2.47016e-06 0)
(5.49716e-05 2.43705e-06 0)
(5.38349e-05 2.39936e-06 0)
(5.2597e-05 2.35739e-06 0)
(5.12597e-05 2.31087e-06 0)
(4.98252e-05 2.25894e-06 0)
(4.82972e-05 2.2003e-06 0)
(4.66809e-05 2.13323e-06 0)
(4.49833e-05 2.05573e-06 0)
(4.32132e-05 1.96567e-06 0)
(8.41959e-07 6.92221e-07 0)
(5.39849e-07 4.07394e-07 0)
(2.50779e-07 1.66089e-07 0)
(-1.21593e-11 4.97079e-10 0)
(-3.58496e-09 2.86447e-09 0)
(6.92734e-09 1.55277e-08 0)
(6.6327e-09 7.55969e-09 0)
(7.63977e-09 6.55504e-09 0)
(3.8341e-09 1.14883e-09 0)
(7.25193e-10 1.25489e-09 0)
(3.99775e-10 6.33586e-10 0)
(3.62231e-10 5.19663e-10 0)
(6.4669e-10 8.56891e-10 0)
(6.60145e-10 1.37469e-10 0)
(3.88443e-07 9.16388e-08 0)
(1.39625e-06 3.97927e-07 0)
(2.96892e-06 8.63079e-07 0)
(4.8106e-06 1.31686e-06 0)
(6.6299e-06 1.61842e-06 0)
(8.27152e-06 1.72289e-06 0)
(9.69849e-06 1.65445e-06 0)
(1.09322e-05 1.46004e-06 0)
(1.20108e-05 1.18283e-06 0)
(1.29709e-05 8.54593e-07 0)
(1.38418e-05 4.96323e-07 0)
(1.46453e-05 1.21126e-07 0)
(1.53972e-05 -2.63084e-07 0)
(1.61092e-05 -6.515e-07 0)
(1.67908e-05 -1.04093e-06 0)
(1.7451e-05 -1.42876e-06 0)
(1.80991e-05 -1.81223e-06 0)
(1.87465e-05 -2.18796e-06 0)
(1.94068e-05 -2.55168e-06 0)
(2.00969e-05 -2.89803e-06 0)
(2.0837e-05 -3.22054e-06 0)
(2.16511e-05 -3.51162e-06 0)
(2.25665e-05 -3.7627e-06 0)
(2.36128e-05 -3.9644e-06 0)
(2.4821e-05 -4.10694e-06 0)
(2.62205e-05 -4.18067e-06 0)
(2.78361e-05 -4.17697e-06 0)
(2.96839e-05 -4.0893e-06 0)
(3.17674e-05 -3.91443e-06 0)
(3.40738e-05 -3.65358e-06 0)
(3.65727e-05 -3.31303e-06 0)
(3.92171e-05 -2.90409e-06 0)
(4.19462e-05 -2.44223e-06 0)
(4.46916e-05 -1.94551e-06 0)
(4.73838e-05 -1.43277e-06 0)
(4.99576e-05 -9.21885e-07 0)
(5.2358e-05 -4.28476e-07 0)
(5.45424e-05 3.48728e-08 0)
(5.64822e-05 4.58864e-07 0)
(5.81621e-05 8.37365e-07 0)
(5.95783e-05 1.16705e-06 0)
(6.07366e-05 1.44694e-06 0)
(6.16499e-05 1.6779e-06 0)
(6.23353e-05 1.86217e-06 0)
(6.28126e-05 2.00296e-06 0)
(6.31022e-05 2.10412e-06 0)
(6.32238e-05 2.16981e-06 0)
(6.31957e-05 2.20431e-06 0)
(6.30342e-05 2.21184e-06 0)
(6.27532e-05 2.19647e-06 0)
(6.23643e-05 2.16202e-06 0)
(6.18767e-05 2.11201e-06 0)
(6.12976e-05 2.04964e-06 0)
(6.06322e-05 1.97774e-06 0)
(5.9884e-05 1.8988e-06 0)
(5.90553e-05 1.81493e-06 0)
(5.81471e-05 1.72786e-06 0)
(5.71594e-05 1.63889e-06 0)
(5.60918e-05 1.54892e-06 0)
(5.49437e-05 1.45842e-06 0)
(5.37142e-05 1.3674e-06 0)
(5.2403e-05 1.27544e-06 0)
(5.10104e-05 1.18167e-06 0)
(4.95378e-05 1.08485e-06 0)
(4.79877e-05 9.83338e-07 0)
(4.63642e-05 8.75247e-07 0)
(2.1031e-06 1.70412e-06 0)
(1.76648e-06 1.28118e-06 0)
(1.38656e-06 8.93331e-07 0)
(9.86976e-07 6.03828e-07 0)
(7.8736e-07 5.04619e-07 0)
(6.81476e-07 4.23222e-07 0)
(6.00122e-07 3.37094e-07 0)
(5.16945e-07 2.55183e-07 0)
(4.03297e-07 1.62818e-07 0)
(2.20672e-07 6.40739e-08 0)
(1.10076e-09 4.73973e-10 0)
(7.89567e-10 5.69286e-10 0)
(1.04319e-07 6.25914e-09 0)
(9.98804e-07 2.27931e-07 0)
(2.62262e-06 7.58815e-07 0)
(4.75242e-06 1.42625e-06 0)
(7.0035e-06 2.01115e-06 0)
(9.07738e-06 2.37405e-06 0)
(1.08539e-05 2.4887e-06 0)
(1.23399e-05 2.39776e-06 0)
(1.35927e-05 2.1622e-06 0)
(1.46745e-05 1.83459e-06 0)
(1.56358e-05 1.45221e-06 0)
(1.65132e-05 1.03891e-06 0)
(1.73323e-05 6.0906e-07 0)
(1.81108e-05 1.71059e-07 0)
(1.88614e-05 -2.70143e-07 0)
(1.95945e-05 -7.11309e-07 0)
(2.03196e-05 -1.14976e-06 0)
(2.10473e-05 -1.58256e-06 0)
(2.17898e-05 -2.00603e-06 0)
(2.25622e-05 -2.41535e-06 0)
(2.33828e-05 -2.80438e-06 0)
(2.42734e-05 -3.16554e-06 0)
(2.5259e-05 -3.48985e-06 0)
(2.63673e-05 -3.76707e-06 0)
(2.76272e-05 -3.98603e-06 0)
(2.9067e-05 -4.13525e-06 0)
(3.07106e-05 -4.20375e-06 0)
(3.25742e-05 -4.18231e-06 0)
(3.46624e-05 -4.06481e-06 0)
(3.69642e-05 -3.84968e-06 0)
(3.94513e-05 -3.54097e-06 0)
(4.20783e-05 -3.1488e-06 0)
(4.47858e-05 -2.68889e-06 0)
(4.75054e-05 -2.18112e-06 0)
(5.01666e-05 -1.64751e-06 0)
(5.27038e-05 -1.10994e-06 0)
(5.50612e-05 -5.88153e-07 0)
(5.7197e-05 -9.83969e-08 0)
(5.90841e-05 3.4728e-07 0)
(6.07098e-05 7.41041e-07 0)
(6.20736e-05 1.07884e-06 0)
(6.31846e-05 1.35975e-06 0)
(6.40585e-05 1.58521e-06 0)
(6.47152e-05 1.75831e-06 0)
(6.5176e-05 1.88316e-06 0)
(6.54624e-05 1.96445e-06 0)
(6.55948e-05 2.00705e-06 0)
(6.55916e-05 2.01576e-06 0)
(6.5469e-05 1.99519e-06 0)
(6.52408e-05 1.94961e-06 0)
(6.49184e-05 1.88298e-06 0)
(6.45112e-05 1.79886e-06 0)
(6.40263e-05 1.70048e-06 0)
(6.34694e-05 1.59072e-06 0)
(6.28443e-05 1.47217e-06 0)
(6.21539e-05 1.34708e-06 0)
(6.13996e-05 1.21744e-06 0)
(6.0582e-05 1.08494e-06 0)
(5.97009e-05 9.50984e-07 0)
(5.87554e-05 8.16705e-07 0)
(5.77441e-05 6.82918e-07 0)
(5.66656e-05 5.50133e-07 0)
(5.55181e-05 4.18535e-07 0)
(5.43001e-05 2.87968e-07 0)
(5.30105e-05 1.57931e-07 0)
(5.16487e-05 2.75768e-08 0)
(5.02152e-05 -1.04273e-07 0)
(4.87114e-05 -2.39101e-07 0)
(3.8919e-06 3.19859e-06 0)
(3.68533e-06 2.74755e-06 0)
(3.4238e-06 2.33726e-06 0)
(3.12662e-06 2.01216e-06 0)
(2.87374e-06 1.7623e-06 0)
(2.682e-06 1.5167e-06 0)
(2.51935e-06 1.262e-06 0)
(2.35326e-06 9.92967e-07 0)
(2.16251e-06 7.06819e-07 0)
(1.94602e-06 4.39761e-07 0)
(1.79214e-06 2.86148e-07 0)
(2.065e-06 3.35131e-07 0)
(3.06759e-06 6.95543e-07 0)
(5.02063e-06 1.41601e-06 0)
(7.39414e-06 2.22735e-06 0)
(9.75034e-06 2.87092e-06 0)
(1.18285e-05 3.23715e-06 0)
(1.35598e-05 3.33008e-06 0)
(1.49859e-05 3.20709e-06 0)
(1.61829e-05 2.93423e-06 0)
(1.72216e-05 2.56605e-06 0)
(1.8156e-05 2.14105e-06 0)
(1.90232e-05 1.68402e-06 0)
(1.98483e-05 1.20996e-06 0)
(2.0648e-05 7.27704e-07 0)
(2.14345e-05 2.4251e-07 0)
(2.22176e-05 -2.42099e-07 0)
(2.30068e-05 -7.23134e-07 0)
(2.38126e-05 -1.1973e-06 0)
(2.46478e-05 -1.66046e-06 0)
(2.55277e-05 -2.10717e-06 0)
(2.64712e-05 -2.53054e-06 0)
(2.75001e-05 -2.92202e-06 0)
(2.8639e-05 -3.27151e-06 0)
(2.99145e-05 -3.56757e-06 0)
(3.13527e-05 -3.79788e-06 0)
(3.2977e-05 -3.9501e-06 0)
(3.48046e-05 -4.01293e-06 0)
(3.68427e-05 -3.97758e-06 0)
(3.90845e-05 -3.83931e-06 0)
(4.15074e-05 -3.59885e-06 0)
(4.40717e-05 -3.26328e-06 0)
(4.67232e-05 -2.84608e-06 0)
(4.93968e-05 -2.36623e-06 0)
(5.20238e-05 -1.84636e-06 0)
(5.45378e-05 -1.31037e-06 0)
(5.68817e-05 -7.81039e-07 0)
(5.90113e-05 -2.78052e-07 0)
(6.08976e-05 1.83254e-07 0)
(6.25267e-05 5.92313e-07 0)
(6.38976e-05 9.43116e-07 0)
(6.50196e-05 1.23353e-06 0)
(6.59089e-05 1.46445e-06 0)
(6.65861e-05 1.63887e-06 0)
(6.70732e-05 1.76113e-06 0)
(6.73921e-05 1.83625e-06 0)
(6.75637e-05 1.8695e-06 0)
(6.76065e-05 1.86605e-06 0)
(6.75367e-05 1.83081e-06 0)
(6.73682e-05 1.76829e-06 0)
(6.71127e-05 1.68258e-06 0)
(6.67794e-05 1.57734e-06 0)
(6.6376e-05 1.45585e-06 0)
(6.59083e-05 1.321e-06 0)
(6.53808e-05 1.17538e-06 0)
(6.47968e-05 1.02124e-06 0)
(6.41583e-05 8.60595e-07 0)
(6.34666e-05 6.952e-07 0)
(6.2722e-05 5.26582e-07 0)
(6.19243e-05 3.56049e-07 0)
(6.10724e-05 1.84701e-07 0)
(6.01651e-05 1.34248e-08 0)
(5.92005e-05 -1.57102e-07 0)
(5.81767e-05 -3.26421e-07 0)
(5.70917e-05 -4.94304e-07 0)
(5.59434e-05 -6.60766e-07 0)
(5.47302e-05 -8.26073e-07 0)
(5.34506e-05 -9.90762e-07 0)
(5.2104e-05 -1.15564e-06 0)
(5.06905e-05 -1.32177e-06 0)
(5.9709e-06 5.02635e-06 0)
(5.96191e-06 4.60257e-06 0)
(5.91411e-06 4.20862e-06 0)
(5.83557e-06 3.84485e-06 0)
(5.7439e-06 3.47663e-06 0)
(5.66367e-06 3.08271e-06 0)
(5.59994e-06 2.66455e-06 0)
(5.55602e-06 2.2327e-06 0)
(5.55711e-06 1.82225e-06 0)
(5.67764e-06 1.5209e-06 0)
(6.08261e-06 1.47277e-06 0)
(7.04258e-06 1.79628e-06 0)
(8.69697e-06 2.46838e-06 0)
(1.07768e-05 3.244e-06 0)
(1.28512e-05 3.84675e-06 0)
(1.4687e-05 4.16767e-06 0)
(1.62289e-05 4.22098e-06 0)
(1.75171e-05 4.06585e-06 0)
(1.8619e-05 3.76485e-06 0)
(1.95966e-05 3.36885e-06 0)
(2.0497e-05 2.9144e-06 0)
(2.13526e-05 2.42581e-06 0)
(2.21849e-05 1.91834e-06 0)
(2.30083e-05 1.40133e-06 0)
(2.38331e-05 8.80592e-07 0)
(2.46681e-05 3.6022e-07 0)
(2.55222e-05 -1.56252e-07 0)
(2.64055e-05 -6.64988e-07 0)
(2.73303e-05 -1.16126e-06 0)
(2.8312e-05 -1.63903e-06 0)
(2.93686e-05 -2.09071e-06 0)
(3.05211e-05 -2.50702e-06 0)
(3.17926e-05 -2.87709e-06 0)
(3.32067e-05 -3.18875e-06 0)
(3.47856e-05 -3.4292e-06 0)
(3.65472e-05 -3.58591e-06 0)
(3.85015e-05 -3.64799e-06 0)
(4.06473e-05 -3.60768e-06 0)
(4.2969e-05 -3.46196e-06 0)
(4.54356e-05 -3.21378e-06 0)
(4.80009e-05 -2.87273e-06 0)
(5.06071e-05 -2.4547e-06 0)
(5.31894e-05 -1.98059e-06 0)
(5.5683e-05 -1.47423e-06 0)
(5.80292e-05 -9.59899e-07 0)
(6.01804e-05 -4.59953e-07 0)
(6.21034e-05 6.97419e-09 0)
(6.37799e-05 4.26984e-07 0)
(6.52053e-05 7.91121e-07 0)
(6.63863e-05 1.09495e-06 0)
(6.73373e-05 1.33775e-06 0)
(6.80779e-05 1.52153e-06 0)
(6.86297e-05 1.65016e-06 0)
(6.90147e-05 1.72852e-06 0)
(6.92538e-05 1.76197e-06 0)
(6.93657e-05 1.75589e-06 0)
(6.93671e-05 1.71541e-06 0)
(6.92722e-05 1.64531e-06 0)
(6.90928e-05 1.54989e-06 0)
(6.88387e-05 1.43299e-06 0)
(6.85179e-05 1.29801e-06 0)
(6.81368e-05 1.14794e-06 0)
(6.77001e-05 9.85371e-07 0)
(6.72117e-05 8.12592e-07 0)
(6.66742e-05 6.3158e-07 0)
(6.60893e-05 4.44052e-07 0)
(6.54578e-05 2.51489e-07 0)
(6.47799e-05 5.51632e-08 0)
(6.40552e-05 -1.4384e-07 0)
(6.32828e-05 -3.44602e-07 0)
(6.24612e-05 -5.46361e-07 0)
(6.15887e-05 -7.48492e-07 0)
(6.06634e-05 -9.5051e-07 0)
(5.9683e-05 -1.15206e-06 0)
(5.86455e-05 -1.35294e-06 0)
(5.75487e-05 -1.5531e-06 0)
(5.63907e-05 -1.75264e-06 0)
(5.51699e-05 -1.95186e-06 0)
(5.38851e-05 -2.15126e-06 0)
(5.25358e-05 -2.35154e-06 0)
(8.11542e-06 6.97532e-06 0)
(8.29774e-06 6.56288e-06 0)
(8.46095e-06 6.15426e-06 0)
(8.60931e-06 5.73546e-06 0)
(8.75197e-06 5.288e-06 0)
(8.90749e-06 4.8118e-06 0)
(9.09831e-06 4.32541e-06 0)
(9.35846e-06 3.86729e-06 0)
(9.74702e-06 3.50794e-06 0)
(1.03573e-05 3.35196e-06 0)
(1.12997e-05 3.49399e-06 0)
(1.26269e-05 3.92061e-06 0)
(1.42339e-05 4.46868e-06 0)
(1.58791e-05 4.92158e-06 0)
(1.73856e-05 5.15539e-06 0)
(1.86982e-05 5.15958e-06 0)
(1.98363e-05 4.97627e-06 0)
(2.0845e-05 4.65658e-06 0)
(2.17695e-05 4.24421e-06 0)
(2.26456e-05 3.77192e-06 0)
(2.34987e-05 3.26257e-06 0)
(2.43459e-05 2.73133e-06 0)
(2.51988e-05 2.18806e-06 0)
(2.6066e-05 1.63931e-06 0)
(2.69552e-05 1.08993e-06 0)
(2.78741e-05 5.44171e-07 0)
(2.88325e-05 6.52497e-09 0)
(2.98419e-05 -5.17665e-07 0)
(3.09167e-05 -1.0218e-06 0)
(3.20739e-05 -1.49774e-06 0)
(3.33326e-05 -1.93574e-06 0)
(3.47134e-05 -2.32452e-06 0)
(3.62365e-05 -2.65169e-06 0)
(3.79194e-05 -2.90446e-06 0)
(3.97745e-05 -3.07066e-06 0)
(4.18055e-05 -3.1402e-06 0)
(4.40043e-05 -3.10655e-06 0)
(4.63494e-05 -2.96826e-06 0)
(4.8805e-05 -2.73004e-06 0)
(5.13226e-05 -2.40313e-06 0)
(5.38446e-05 -2.00471e-06 0)
(5.63102e-05 -1.55636e-06 0)
(5.86607e-05 -1.08197e-06 0)
(6.08456e-05 -6.05191e-07 0)
(6.28264e-05 -1.47311e-07 0)
(6.45789e-05 2.74397e-07 0)
(6.60923e-05 6.47462e-07 0)
(6.73681e-05 9.64248e-07 0)
(6.8417e-05 1.22143e-06 0)
(6.92559e-05 1.41912e-06 0)
(6.99048e-05 1.55992e-06 0)
(7.0385e-05 1.64802e-06 0)
(7.07171e-05 1.68845e-06 0)
(7.09204e-05 1.68658e-06 0)
(7.10118e-05 1.64766e-06 0)
(7.1006e-05 1.5767e-06 0)
(7.09155e-05 1.47826e-06 0)
(7.07507e-05 1.35643e-06 0)
(7.05201e-05 1.21484e-06 0)
(7.02307e-05 1.05664e-06 0)
(6.98878e-05 8.84577e-07 0)
(6.94957e-05 7.01006e-07 0)
(6.90573e-05 5.07932e-07 0)
(6.85747e-05 3.07044e-07 0)
(6.80493e-05 9.97566e-08 0)
(6.74814e-05 -1.12763e-07 0)
(6.68709e-05 -3.29557e-07 0)
(6.62171e-05 -5.49844e-07 0)
(6.5519e-05 -7.72986e-07 0)
(6.47749e-05 -9.98463e-07 0)
(6.39831e-05 -1.22585e-06 0)
(6.31417e-05 -1.45478e-06 0)
(6.22486e-05 -1.68496e-06 0)
(6.13017e-05 -1.91616e-06 0)
(6.02988e-05 -2.14821e-06 0)
(5.9238e-05 -2.38099e-06 0)
(5.81174e-05 -2.6145e-06 0)
(5.69355e-05 -2.84883e-06 0)
(5.5691e-05 -3.0842e-06 0)
(5.43831e-05 -3.32101e-06 0)
(1.01989e-05 8.8948e-06 0)
(1.05433e-05 8.46415e-06 0)
(1.08858e-05 8.0204e-06 0)
(1.12336e-05 7.55664e-06 0)
(1.15991e-05 7.073e-06 0)
(1.20024e-05 6.58446e-06 0)
(1.2472e-05 6.12308e-06 0)
(1.30473e-05 5.73936e-06 0)
(1.37777e-05 5.49831e-06 0)
(1.47085e-05 5.45561e-06 0)
(1.5849e-05 5.61106e-06 0)
(1.71393e-05 5.87754e-06 0)
(1.84639e-05 6.11911e-06 0)
(1.97174e-05 6.22922e-06 0)
(2.08563e-05 6.17071e-06 0)
(2.18862e-05 5.9577e-06 0)
(2.28343e-05 5.62333e-06 0)
(2.3731e-05 5.20112e-06 0)
(2.46023e-05 4.71853e-06 0)
(2.54674e-05 4.19608e-06 0)
(2.634e-05 3.64835e-06 0)
(2.72294e-05 3.08551e-06 0)
(2.81429e-05 2.51481e-06 0)
(2.90872e-05 1.94187e-06 0)
(3.00694e-05 1.37171e-06 0)
(3.10985e-05 8.09513e-07 0)
(3.21851e-05 2.61197e-07 0)
(3.33424e-05 -2.66169e-07 0)
(3.45857e-05 -7.64104e-07 0)
(3.59319e-05 -1.22263e-06 0)
(3.73986e-05 -1.63044e-06 0)
(3.90022e-05 -1.97527e-06 0)
(4.07561e-05 -2.24474e-06 0)
(4.26674e-05 -2.42736e-06 0)
(4.47349e-05 -2.51396e-06 0)
(4.6946e-05 -2.49916e-06 0)
(4.92756e-05 -2.38271e-06 0)
(5.16862e-05 -2.1704e-06 0)
(5.41299e-05 -1.87423e-06 0)
(5.65523e-05 -1.51165e-06 0)
(5.88977e-05 -1.10402e-06 0)
(6.11144e-05 -6.74428e-07 0)
(6.31593e-05 -2.45415e-07 0)
(6.50016e-05 1.63064e-07 0)
(6.66231e-05 5.35055e-07 0)
(6.80184e-05 8.59248e-07 0)
(6.91921e-05 1.12893e-06 0)
(7.01567e-05 1.34141e-06 0)
(7.09295e-05 1.4972e-06 0)
(7.153e-05 1.59905e-06 0)
(7.19783e-05 1.65117e-06 0)
(7.22933e-05 1.6585e-06 0)
(7.24926e-05 1.62624e-06 0)
(7.25916e-05 1.55948e-06 0)
(7.26035e-05 1.46302e-06 0)
(7.25396e-05 1.34123e-06 0)
(7.24091e-05 1.19804e-06 0)
(7.22198e-05 1.03687e-06 0)
(7.19776e-05 8.60703e-07 0)
(7.16873e-05 6.72061e-07 0)
(7.13525e-05 4.73061e-07 0)
(7.09754e-05 2.65441e-07 0)
(7.05577e-05 5.05907e-08 0)
(7.01e-05 -1.70403e-07 0)
(6.96022e-05 -3.9672e-07 0)
(6.90638e-05 -6.27758e-07 0)
(6.84836e-05 -8.6309e-07 0)
(6.78601e-05 -1.10242e-06 0)
(6.71917e-05 -1.34553e-06 0)
(6.64763e-05 -1.59228e-06 0)
(6.57121e-05 -1.84251e-06 0)
(6.48968e-05 -2.09611e-06 0)
(6.40285e-05 -2.35293e-06 0)
(6.31052e-05 -2.61281e-06 0)
(6.21249e-05 -2.87559e-06 0)
(6.1086e-05 -3.14112e-06 0)
(5.99869e-05 -3.40924e-06 0)
(5.88262e-05 -3.67988e-06 0)
(5.76029e-05 -3.95302e-06 0)
(5.63164e-05 -4.22872e-06 0)
(1.21822e-05 1.07384e-05 0)
(1.26616e-05 1.02796e-05 0)
(1.31535e-05 9.80627e-06 0)
(1.36678e-05 9.32164e-06 0)
(1.42188e-05 8.83725e-06 0)
(1.48259e-05 8.37521e-06 0)
(1.55126e-05 7.96791e-06 0)
(1.63039e-05 7.65345e-06 0)
(1.72184e-05 7.46288e-06 0)
(1.82537e-05 7.39933e-06 0)
(1.93754e-05 7.42197e-06 0)
(2.05225e-05 7.45555e-06 0)
(2.16352e-05 7.42553e-06 0)
(2.26818e-05 7.28857e-06 0)
(2.36614e-05 7.03685e-06 0)
(2.45901e-05 6.68441e-06 0)
(2.54888e-05 6.25264e-06 0)
(2.63768e-05 5.76227e-06 0)
(2.72692e-05 5.23049e-06 0)
(2.81773e-05 4.67059e-06 0)
(2.91093e-05 4.09257e-06 0)
(3.00717e-05 3.50413e-06 0)
(3.10707e-05 2.91152e-06 0)
(3.21131e-05 2.32045e-06 0)
(3.3207e-05 1.73669e-06 0)
(3.43621e-05 1.16663e-06 0)
(3.55903e-05 6.17684e-07 0)
(3.69049e-05 9.84811e-08 0)
(3.83204e-05 -3.81022e-07 0)
(3.98514e-05 -8.09723e-07 0)
(4.15108e-05 -1.17581e-06 0)
(4.3308e-05 -1.46751e-06 0)
(4.52465e-05 -1.67414e-06 0)
(4.73212e-05 -1.78744e-06 0)
(4.9517e-05 -1.80292e-06 0)
(5.18075e-05 -1.72106e-06 0)
(5.41557e-05 -1.54807e-06 0)
(5.65161e-05 -1.29593e-06 0)
(5.88389e-05 -9.81603e-07 0)
(6.10738e-05 -6.25521e-07 0)
(6.31756e-05 -2.49537e-07 0)
(6.51077e-05 1.2519e-07 0)
(6.68446e-05 4.8004e-07 0)
(6.83726e-05 8.00194e-07 0)
(6.96891e-05 1.0752e-06 0)
(7.08003e-05 1.29888e-06 0)
(7.17189e-05 1.46883e-06 0)
(7.24616e-05 1.58559e-06 0)
(7.30467e-05 1.65184e-06 0)
(7.34927e-05 1.67159e-06 0)
(7.38174e-05 1.64957e-06 0)
(7.40367e-05 1.59074e-06 0)
(7.41648e-05 1.50001e-06 0)
(7.42138e-05 1.382e-06 0)
(7.41941e-05 1.24094e-06 0)
(7.41142e-05 1.08057e-06 0)
(7.3981e-05 9.04193e-07 0)
(7.38001e-05 7.14603e-07 0)
(7.35754e-05 5.14124e-07 0)
(7.33099e-05 3.04632e-07 0)
(7.30054e-05 8.75776e-08 0)
(7.26628e-05 -1.35972e-07 0)
(7.2282e-05 -3.6529e-07 0)
(7.18624e-05 -5.99936e-07 0)
(7.14028e-05 -8.39699e-07 0)
(7.09015e-05 -1.08454e-06 0)
(7.03567e-05 -1.33455e-06 0)
(6.97661e-05 -1.58985e-06 0)
(6.91276e-05 -1.8506e-06 0)
(6.84389e-05 -2.11695e-06 0)
(6.76979e-05 -2.38899e-06 0)
(6.69025e-05 -2.66672e-06 0)
(6.60509e-05 -2.95011e-06 0)
(6.51412e-05 -3.23903e-06 0)
(6.41719e-05 -3.53328e-06 0)
(6.31416e-05 -3.83263e-06 0)
(6.20492e-05 -4.1368e-06 0)
(6.08937e-05 -4.44553e-06 0)
(5.96745e-05 -4.75857e-06 0)
(5.83912e-05 -5.07571e-06 0)
(1.40677e-05 1.25214e-05 0)
(1.46611e-05 1.20392e-05 0)
(1.5277e-05 1.15492e-05 0)
(1.59253e-05 1.10602e-05 0)
(1.66185e-05 1.05871e-05 0)
(1.73702e-05 1.01495e-05 0)
(1.81936e-05 9.76941e-06 0)
(1.90961e-05 9.46459e-06 0)
(2.00745e-05 9.23878e-06 0)
(2.11091e-05 9.07399e-06 0)
(2.2167e-05 8.93165e-06 0)
(2.32132e-05 8.76582e-06 0)
(2.42249e-05 8.54033e-06 0)
(2.51972e-05 8.238e-06 0)
(2.61384e-05 7.85872e-06 0)
(2.70627e-05 7.41234e-06 0)
(2.79844e-05 6.91212e-06 0)
(2.8916e-05 6.37101e-06 0)
(2.98673e-05 5.80023e-06 0)
(3.08459e-05 5.20905e-06 0)
(3.18583e-05 4.60515e-06 0)
(3.29104e-05 3.99515e-06 0)
(3.40087e-05 3.38521e-06 0)
(3.51608e-05 2.78153e-06 0)
(3.63755e-05 2.19084e-06 0)
(3.76631e-05 1.62068e-06 0)
(3.90352e-05 1.0797e-06 0)
(4.05039e-05 5.77629e-07 0)
(4.20809e-05 1.25158e-07 0)
(4.37762e-05 -2.66491e-07 0)
(4.5596e-05 -5.86283e-07 0)
(4.75409e-05 -8.24352e-07 0)
(4.96036e-05 -9.73194e-07 0)
(5.17678e-05 -1.02891e-06 0)
(5.40076e-05 -9.92268e-07 0)
(5.62877e-05 -8.69345e-07 0)
(5.85664e-05 -6.71517e-07 0)
(6.07983e-05 -4.14714e-07 0)
(6.2939e-05 -1.18e-07 0)
(6.49486e-05 1.98271e-07 0)
(6.67955e-05 5.14396e-07 0)
(6.84582e-05 8.13008e-07 0)
(6.99256e-05 1.08022e-06 0)
(7.11965e-05 1.30615e-06 0)
(7.22774e-05 1.48489e-06 0)
(7.31804e-05 1.61403e-06 0)
(7.39211e-05 1.69395e-06 0)
(7.45164e-05 1.72707e-06 0)
(7.49837e-05 1.7171e-06 0)
(7.5339e-05 1.6685e-06 0)
(7.55974e-05 1.58601e-06 0)
(7.5772e-05 1.47435e-06 0)
(7.58741e-05 1.33797e-06 0)
(7.59135e-05 1.18098e-06 0)
(7.58982e-05 1.00703e-06 0)
(7.58344e-05 8.19258e-07 0)
(7.57273e-05 6.20307e-07 0)
(7.55803e-05 4.12293e-07 0)
(7.53956e-05 1.96831e-07 0)
(7.51746e-05 -2.49381e-08 0)
(7.49174e-05 -2.52305e-07 0)
(7.46233e-05 -4.84938e-07 0)
(7.42909e-05 -7.22814e-07 0)
(7.39184e-05 -9.66154e-07 0)
(7.35034e-05 -1.21535e-06 0)
(7.30433e-05 -1.47088e-06 0)
(7.25357e-05 -1.73327e-06 0)
(7.19777e-05 -2.00302e-06 0)
(7.13669e-05 -2.28058e-06 0)
(7.07009e-05 -2.56629e-06 0)
(6.99775e-05 -2.86037e-06 0)
(6.91947e-05 -3.16293e-06 0)
(6.83509e-05 -3.47393e-06 0)
(6.74447e-05 -3.79323e-06 0)
(6.64748e-05 -4.12057e-06 0)
(6.54404e-05 -4.45558e-06 0)
(6.43408e-05 -4.79786e-06 0)
(6.31756e-05 -5.14694e-06 0)
(6.19445e-05 -5.50235e-06 0)
(6.06477e-05 -5.86364e-06 0)
(1.58673e-05 1.42704e-05 0)
(1.65568e-05 1.37705e-05 0)
(1.72737e-05 1.32695e-05 0)
(1.80257e-05 1.27771e-05 0)
(1.88211e-05 1.23054e-05 0)
(1.9667e-05 1.18676e-05 0)
(2.05671e-05 1.14742e-05 0)
(2.15191e-05 1.11289e-05 0)
(2.25123e-05 1.08245e-05 0)
(2.3529e-05 1.05422e-05 0)
(2.45485e-05 1.02558e-05 0)
(2.55551e-05 9.94019e-06 0)
(2.65424e-05 9.5777e-06 0)
(2.75132e-05 9.16119e-06 0)
(2.8476e-05 8.69198e-06 0)
(2.94412e-05 8.17643e-06 0)
(3.04189e-05 7.62288e-06 0)
(3.14176e-05 7.03988e-06 0)
(3.24447e-05 6.43536e-06 0)
(3.35065e-05 5.81647e-06 0)
(3.46092e-05 5.18982e-06 0)
(3.57589e-05 4.56172e-06 0)
(3.69627e-05 3.93857e-06 0)
(3.82286e-05 3.32722e-06 0)
(3.95656e-05 2.73524e-06 0)
(4.09834e-05 2.17107e-06 0)
(4.2492e-05 1.64411e-06 0)
(4.41009e-05 1.16451e-06 0)
(4.58174e-05 7.42807e-07 0)
(4.76453e-05 3.89287e-07 0)
(4.95833e-05 1.13076e-07 0)
(5.1623e-05 -7.89198e-08 0)
(5.37482e-05 -1.8312e-07 0)
(5.59341e-05 -2.00214e-07 0)
(5.81485e-05 -1.35728e-07 0)
(6.03533e-05 -2.31685e-11 0)
(6.25081e-05 1.92368e-07 0)
(6.45731e-05 4.23993e-07 0)
(6.65132e-05 6.76134e-07 0)
(6.83006e-05 9.30547e-07 0)
(6.99164e-05 1.17101e-06 0)
(7.13511e-05 1.3844e-06 0)
(7.26038e-05 1.56121e-06 0)
(7.36806e-05 1.6956e-06 0)
(7.45925e-05 1.78497e-06 0)
(7.53538e-05 1.82942e-06 0)
(7.59801e-05 1.83098e-06 0)
(7.64874e-05 1.79305e-06 0)
(7.68907e-05 1.7198e-06 0)
(7.72041e-05 1.61573e-06 0)
(7.74399e-05 1.4854e-06 0)
(7.76091e-05 1.33315e-06 0)
(7.77208e-05 1.163e-06 0)
(7.77826e-05 9.78483e-07 0)
(7.78004e-05 7.82647e-07 0)
(7.77789e-05 5.77966e-07 0)
(7.7721e-05 3.66345e-07 0)
(7.76285e-05 1.49125e-07 0)
(7.75021e-05 -7.28912e-08 0)
(7.73411e-05 -2.99386e-07 0)
(7.71442e-05 -5.30462e-07 0)
(7.69092e-05 -7.66565e-07 0)
(7.66334e-05 -1.00839e-06 0)
(7.63138e-05 -1.25681e-06 0)
(7.59472e-05 -1.51275e-06 0)
(7.55301e-05 -1.77717e-06 0)
(7.50593e-05 -2.05094e-06 0)
(7.45319e-05 -2.33485e-06 0)
(7.39451e-05 -2.62952e-06 0)
(7.32965e-05 -2.9354e-06 0)
(7.25838e-05 -3.25279e-06 0)
(7.18055e-05 -3.58177e-06 0)
(7.09602e-05 -3.92227e-06 0)
(7.00468e-05 -4.27405e-06 0)
(6.90646e-05 -4.63674e-06 0)
(6.80134e-05 -5.00984e-06 0)
(6.68929e-05 -5.39277e-06 0)
(6.57033e-05 -5.78486e-06 0)
(6.4445e-05 -6.18544e-06 0)
(6.31185e-05 -6.59381e-06 0)