/*--------------------------------*- C++ -*----------------------------------*\
  =========                 |
  \\      /  F ield         | OpenFOAM: The Open Source CFD Toolbox
   \\    /   O peration     | Website:  https://openfoam.org
    \\  /    A nd           | Version:  7
     \\/     M anipulation  |
\*---------------------------------------------------------------------------*/
FoamFile
{
    version     2.0;
    format      ascii;
    class       volScalarField;
    location    "2000";
    object      alpha.wetting;
}
// * * * * * * * * * * * * * * * * * * * * * * * * * * * * * * * * * * * * * //

dimensions      [0 0 0 0 0 0 0];

internalField   nonuniform List<scalar> 
160000
(
0.534978
0.534978
0.422842
0.452197
0.422774
0.413406
0.492603
0.596694
0.49587
0.491174
0.476748
0.455715
0.440612
0.51302
0.498164
0.46285
0.46285
0.5012
0.584716
0.572237
0.440401
0.440401
0.514822
0.496748
0.402775
0.402775
0.541511
0.541524
0.541512
0.541526
0.541509
0.424918
0.424914
0.424918
0.424914
0.431799
0.570428
0.57043
0.570431
0.570433
0.393517
0.393517
0.433707
0.560267
0.560269
0.560271
0.560273
0.432844
0.432844
0.432844
0.438058
0.565716
0.565711
0.56574
0.565711
0.559816
0.46483
0.464833
0.469172
0.508309
0.508327
0.508309
0.508332
0.508309
0.508325
0.467793
0.449195
0.449195
0.449195
0.514449
0.514755
0.514736
0.514761
0.514741
0.514771
0.514747
0.514765
0.514757
0.514772
0.514759
0.514767
0.511855
0.496062
0.496063
0.497598
0.497595
0.485879
0.482786
0.48279
0.471153
0.471167
0.508212
0.508263
0.508212
0.500718
0.5007
0.517631
0.517624
0.517631
0.517624
0.517638
0.499951
0.500154
0.500152
0.511326
0.484827
0.484829
0.5282
0.528233
0.528206
0.528234
0.52821
0.528218
0.504591
0.504592
0.488995
0.488996
0.539485
0.539483
0.539495
0.539489
0.539495
0.542569
0.542569
0.542569
0.535625
0.482886
0.482882
0.482878
0.463727
0.463727
0.463727
0.553766
0.553766
0.488662
0.472447
0.472479
0.472455
0.472479
0.472471
0.498408
0.477421
0.477422
0.531188
0.531135
0.531185
0.531135
0.531221
0.500487
0.49327
0.509057
0.509061
0.509065
0.48726
0.487267
0.527541
0.52759
0.527541
0.507979
0.483471
0.483471
0.487857
0.478885
0.459678
0.45968
0.514915
0.514933
0.514915
0.514959
0.514915
0.514986
0.514911
0.488279
0.48642
0.486418
0.488075
0.52331
0.50949
0.507193
0.507193
0.507193
0.51825
0.518206
0.518259
0.540352
0.554221
0.529864
0.486827
0.486836
0.486887
0.442399
0.439647
0.440599
0.44061
0.440621
0.440632
0.513861
0.438436
0.432277
0.432166
0.432278
0.432238
0.432311
0.467156
0.531151
0.531151
0.531151
0.531055
0.509312
0.518917
0.518927
0.4846
0.484611
0.503448
0.503447
0.503452
0.503458
0.519226
0.519189
0.519243
0.519189
0.483955
0.483961
0.547944
0.566163
0.566236
0.566166
0.53168
0.478686
0.478701
0.478666
0.540688
0.537412
0.537401
0.537387
0.517607
0.491792
0.499701
0.499677
0.507272
0.507291
0.52391
0.549775
0.54976
0.551
0.526246
0.5197
0.463917
0.40481
0.404665
0.40481
0.404808
0.404872
0.418937
0.47906
0.488981
0.488943
0.465241
0.465177
0.452184
0.452106
0.452184
0.452165
0.486474
0.528655
0.528706
0.528665
0.528708
0.528666
0.528734
0.52207
0.492026
0.491247
0.46435
0.46537
0.539922
0.578793
0.578772
0.52143
0.45906
0.459062
0.513298
0.513291
0.511501
0.458913
0.459021
0.458887
0.459033
0.493829
0.514026
0.514063
0.51404
0.560126
0.560142
0.560158
0.560171
0.520764
0.52077
0.573508
0.528229
0.386604
0.384247
0.383899
0.384247
0.384003
0.384321
0.384342
0.38757
0.394139
0.468323
0.508959
0.508947
0.516382
0.516404
0.452006
0.446461
0.446376
0.446465
0.480873
0.535687
0.528253
0.528248
0.560885
0.560884
0.561078
0.481515
0.45645
0.456643
0.456466
0.456649
0.456549
0.456654
0.456556
0.456662
0.456606
0.456668
0.467808
0.525618
0.381318
0.341064
0.34114
0.341104
0.341125
0.341118
0.602328
0.636767
0.636888
0.636764
0.636904
0.590655
0.520013
0.498739
0.538117
0.538121
0.538206
0.53813
0.538233
0.53814
0.503489
0.50282
0.502827
0.537896
0.538191
0.538172
0.538335
0.515786
0.51261
0.512619
0.512608
0.512606
0.506182
0.501068
0.494864
0.487636
0.487647
0.494813
0.494815
0.527234
0.527212
0.530496
0.530502
0.530507
0.531088
0.531078
0.531147
0.531074
0.50386
0.495758
0.495765
0.500661
0.501005
0.484545
0.48384
0.405024
0.379878
0.311667
0.217689
0.217789
0.217789
0.217826
0.464009
0.455913
0.586835
0.416796
0.416795
0.431337
0.473492
0.473488
0.483946
0.48368
0.483682
0.500666
0.523051
0.523062
0.523051
0.503539
0.46285
0.5012
0.488136
0.440405
0.440405
0.514822
0.514822
0.514822
0.444252
0.541508
0.541524
0.541512
0.541527
0.541509
0.469575
0.430729
0.434176
0.424915
0.424918
0.567533
0.568612
0.496372
0.570432
0.466088
0.393517
0.393517
0.412555
0.553987
0.560267
0.560269
0.555533
0.476067
0.435902
0.432844
0.432844
0.549012
0.534853
0.522144
0.522178
0.558305
0.543002
0.500958
0.508308
0.508322
0.508309
0.508329
0.490666
0.508313
0.508309
0.459961
0.503597
0.514435
0.514438
0.514441
0.465059
0.460706
0.460698
0.496952
0.477516
0.47752
0.477506
0.477521
0.51327
0.515704
0.50907
0.493844
0.506878
0.507682
0.507682
0.494891
0.485874
0.508218
0.508211
0.508251
0.508212
0.508252
0.508212
0.508271
0.507803
0.507803
0.495779
0.493646
0.464986
0.46499
0.464982
0.46499
0.521345
0.56345
0.517716
0.515511
0.515511
0.488203
0.487924
0.487955
0.487924
0.487955
0.529046
0.531216
0.539469
0.539469
0.539481
0.539475
0.539495
0.539483
0.530351
0.493744
0.493741
0.493744
0.493741
0.507835
0.488913
0.498791
0.505543
0.463727
0.463727
0.480866
0.553766
0.553772
0.553766
0.553784
0.563939
0.49617
0.47643
0.516697
0.531137
0.531132
0.531176
0.531134
0.53118
0.51109
0.500097
0.489025
0.489048
0.493276
0.476029
0.476031
0.511064
0.52755
0.52754
0.527578
0.527543
0.527572
0.48489
0.488534
0.488535
0.487888
0.459678
0.45968
0.464583
0.514928
0.514915
0.512164
0.499101
0.458395
0.458432
0.458399
0.468534
0.527827
0.527864
0.555343
0.54017
0.51994
0.53463
0.511995
0.515624
0.515605
0.515652
0.536217
0.554231
0.55425
0.546385
0.4977
0.554245
0.554349
0.554245
0.439032
0.439066
0.452224
0.454256
0.513861
0.513881
0.453039
0.432151
0.432265
0.432256
0.432298
0.44465
0.511502
0.53115
0.531151
0.501719
0.471916
0.47191
0.471911
0.471885
0.471888
0.516894
0.525118
0.525122
0.526371
0.531248
0.469864
0.469885
0.46988
0.469885
0.471062
0.532825
0.566163
0.566228
0.566177
0.566282
0.566177
0.56629
0.566177
0.566257
0.566162
0.515895
0.450511
0.450584
0.507944
0.478192
0.4782
0.478203
0.478206
0.478205
0.536769
0.566733
0.566747
0.562494
0.575767
0.575711
0.438562
0.404595
0.404749
0.404669
0.420443
0.4479
0.4479
0.465712
0.473078
0.473081
0.491848
0.452198
0.452087
0.452168
0.452153
0.507371
0.528639
0.528686
0.497983
0.498034
0.528665
0.528734
0.528665
0.484781
0.448131
0.448131
0.448131
0.47888
0.571609
0.578838
0.506839
0.45906
0.459019
0.499433
0.513291
0.473319
0.458878
0.459021
0.458885
0.459021
0.459012
0.471874
0.491718
0.518874
0.560084
0.560098
0.504922
0.50492
0.596499
0.596484
0.583656
0.596479
0.596613
0.404015
0.383861
0.384167
0.384127
0.38505
0.401672
0.444324
0.479643
0.482769
0.505961
0.516391
0.516382
0.516406
0.501204
0.446459
0.446362
0.446451
0.467404
0.538954
0.559516
0.559531
0.560842
0.560837
0.561054
0.56084
0.497572
0.47992
0.456514
0.456649
0.456601
0.516961
0.521953
0.474119
0.467356
0.456668
0.456627
0.498991
0.544375
0.49692
0.4553
0.485125
0.456415
0.346773
0.4565
0.636751
0.636859
0.596126
0.472228
0.472073
0.472226
0.472164
0.475854
0.534392
0.538146
0.536653
0.536716
0.53814
0.538209
0.538152
0.538191
0.538164
0.538194
0.538172
0.53831
0.538178
0.538456
0.538183
0.480097
0.480049
0.480097
0.480054
0.480099
0.480097
0.487636
0.508979
0.509003
0.530457
0.530476
0.530485
0.530496
0.530496
0.529073
0.53108
0.515158
0.515157
0.515295
0.503801
0.504975
0.538949
0.538917
0.523134
0.523375
0.523375
0.460404
0.456307
0.378132
0.217677
0.217781
0.217816
0.217833
0.464009
0.499547
0.586835
0.586835
0.565453
0.469261
0.520722
0.520719
0.493326
0.511557
0.511559
0.511561
0.512662
0.523051
0.523062
0.52305
0.517878
0.437741
0.454733
0.49224
0.492241
0.488764
0.488764
0.497203
0.541505
0.541511
0.541509
0.541527
0.541509
0.522698
0.501768
0.500431
0.465424
0.424923
0.424919
0.527702
0.540488
0.496366
0.496371
0.497884
0.521299
0.517194
0.494067
0.51083
0.445292
0.443693
0.471511
0.494639
0.494643
0.494639
0.476508
0.476504
0.506489
0.547338
0.552781
0.556037
0.552125
0.511322
0.465908
0.465908
0.483662
0.508309
0.477327
0.424778
0.453488
0.453493
0.453487
0.453495
0.464193
0.514438
0.514432
0.503679
0.460706
0.460702
0.515687
0.515689
0.515706
0.515697
0.515713
0.515703
0.525107
0.463217
0.462399
0.462399
0.507688
0.504599
0.522086
0.483546
0.454324
0.482401
0.489094
0.485069
0.489498
0.480979
0.480999
0.498951
0.499882
0.499884
0.499886
0.499888
0.538509
0.538514
0.521336
0.563461
0.563466
0.477283
0.476206
0.476206
0.521793
0.521792
0.521795
0.521794
0.521804
0.51479
0.519335
0.519334
0.536064
0.508296
0.463698
0.463707
0.463702
0.505014
0.506018
0.506012
0.494794
0.494798
0.508987
0.513475
0.513476
0.513476
0.525341
0.525392
0.525349
0.525397
0.532032
0.532028
0.563948
0.557554
0.498235
0.491855
0.531128
0.472396
0.472351
0.514998
0.510794
0.5108
0.51948
0.507433
0.489031
0.496644
0.511053
0.511053
0.511056
0.501528
0.4729
0.472904
0.527557
0.485234
0.464914
0.464917
0.488542
0.538208
0.538248
0.538207
0.496558
0.484528
0.484534
0.49721
0.532746
0.458862
0.458316
0.458431
0.458321
0.458431
0.458421
0.558173
0.558164
0.558182
0.558164
0.555781
0.508441
0.472805
0.51705
0.550093
0.550092
0.55424
0.554297
0.554254
0.554386
0.554245
0.373502
0.37351
0.451896
0.4761
0.487068
0.51387
0.513861
0.510702
0.445712
0.432257
0.443653
0.484134
0.519119
0.472717
0.469311
0.46931
0.469311
0.484825
0.487927
0.487908
0.483661
0.521793
0.535426
0.522153
0.522179
0.535424
0.535432
0.516095
0.46988
0.469885
0.528834
0.566147
0.56615
0.56621
0.566163
0.566226
0.566166
0.566228
0.566177
0.566277
0.566163
0.566187
0.450478
0.450565
0.518983
0.477926
0.477931
0.482796
0.543365
0.552163
0.552168
0.55217
0.552172
0.566767
0.575874
0.575819
0.519928
0.404537
0.404743
0.404604
0.409367
0.438471
0.443776
0.443774
0.472392
0.497353
0.504183
0.515277
0.515238
0.468463
0.452158
0.500977
0.528635
0.528666
0.528639
0.528668
0.528634
0.512671
0.475035
0.475081
0.498758
0.559027
0.559032
0.559037
0.559677
0.572578
0.578881
0.459064
0.458961
0.459048
0.458925
0.459046
0.45895
0.459036
0.459006
0.511841
0.53853
0.538537
0.538536
0.540456
0.543168
0.543172
0.551677
0.596436
0.596634
0.596485
0.596772
0.596485
0.596722
0.596479
0.425059
0.384254
0.384159
0.461639
0.553271
0.55696
0.469214
0.467266
0.467268
0.512599
0.516377
0.493012
0.471421
0.446475
0.446383
0.446461
0.509663
0.550249
0.550256
0.550261
0.560799
0.560792
0.561007
0.477169
0.453776
0.453752
0.456229
0.456679
0.456646
0.472896
0.52196
0.521974
0.509344
0.504646
0.504268
0.504524
0.568901
0.626296
0.626317
0.618283
0.554625
0.498718
0.532018
0.541717
0.496753
0.472133
0.472226
0.472043
0.472226
0.477418
0.531184
0.533234
0.533269
0.531064
0.531141
0.537509
0.538152
0.504916
0.482003
0.482038
0.521056
0.538164
0.538291
0.538172
0.538267
0.494538
0.577586
0.602436
0.573213
0.630557
0.656706
0.656659
0.507293
0.453382
0.453565
0.453398
0.453564
0.453512
0.502126
0.513744
0.493057
0.529094
0.533203
0.53313
0.526966
0.531799
0.538981
0.538966
0.538959
0.493891
0.507434
0.523375
0.523375
0.523374
0.509834
0.361156
0.217678
0.217808
0.217824
0.217842
0.484547
0.497856
0.52813
0.531521
0.522062
0.520728
0.520724
0.518175
0.480335
0.465174
0.465174
0.470006
0.47312
0.509706
0.52305
0.465895
0.452866
0.437743
0.470155
0.483804
0.49224
0.492241
0.490677
0.497202
0.491431
0.49143
0.537393
0.517468
0.424176
0.426019
0.510278
0.524833
0.529403
0.531078
0.531081
0.531084
0.494197
0.494199
0.536217
0.5362
0.529448
0.504223
0.492825
0.485661
0.453629
0.44369
0.443693
0.44369
0.460221
0.494646
0.494642
0.494669
0.47466
0.475943
0.447654
0.447652
0.453947
0.474317
0.498977
0.505078
0.505081
0.505087
0.407967
0.424775
0.471611
0.502125
0.517453
0.578032
0.578058
0.485396
0.485429
0.486122
0.513895
0.538557
0.482158
0.433048
0.433027
0.433048
0.433027
0.474901
0.526858
0.526856
0.520427
0.521996
0.522082
0.522086
0.52209
0.522095
0.454309
0.450814
0.450814
0.485088
0.485075
0.480999
0.501
0.500416
0.391655
0.434235
0.499884
0.499886
0.47722
0.581537
0.581539
0.563452
0.579955
0.54585
0.487112
0.476206
0.500137
0.491027
0.493587
0.521802
0.486339
0.465905
0.518642
0.533846
0.533856
0.507289
0.463707
0.463698
0.465395
0.444878
0.443491
0.443502
0.495458
0.495448
0.495515
0.49548
0.495828
0.501859
0.486901
0.502051
0.501257
0.576264
0.610887
0.610881
0.595384
0.470239
0.461036
0.460989
0.461035
0.460986
0.524741
0.524733
0.524806
0.524733
0.524806
0.524733
0.524748
0.524732
0.467006
0.461749
0.461747
0.484228
0.525082
0.538222
0.538205
0.538228
0.538206
0.538237
0.538208
0.538262
0.538208
0.52254
0.435461
0.484538
0.576584
0.606426
0.606519
0.606409
0.60653
0.536825
0.536816
0.531174
0.484539
0.48455
0.484564
0.484564
0.523233
0.554794
0.457417
0.443282
0.486927
0.553058
0.554233
0.554267
0.554241
0.554366
0.493735
0.356056
0.356054
0.439705
0.462712
0.462743
0.4528
0.452822
0.500815
0.510676
0.506661
0.482516
0.434551
0.483944
0.554571
0.56295
0.562957
0.534425
0.470293
0.468726
0.468721
0.468726
0.488884
0.535423
0.535413
0.53544
0.535423
0.535441
0.535433
0.525994
0.505967
0.53818
0.566143
0.566136
0.566169
0.562292
0.490618
0.480728
0.483826
0.510882
0.541636
0.560672
0.564591
0.491472
0.407031
0.453374
0.592079
0.605606
0.60561
0.605614
0.514551
0.469017
0.469023
0.475849
0.556056
0.575984
0.575925
0.575874
0.453785
0.404737
0.404572
0.404743
0.430537
0.432508
0.432508
0.452513
0.513341
0.515238
0.515293
0.515238
0.515324
0.515238
0.510189
0.52863
0.528665
0.528635
0.501665
0.451213
0.489922
0.58217
0.582178
0.582172
0.562414
0.493224
0.493234
0.493224
0.542124
0.584157
0.58427
0.584156
0.511224
0.458967
0.459048
0.459025
0.472265
0.479967
0.48
0.479978
0.482556
0.516438
0.538537
0.514106
0.504438
0.531404
0.59643
0.596595
0.596436
0.5967
0.509284
0.49844
0.515113
0.482082
0.427758
0.491733
0.569196
0.60025
0.600219
0.600249
0.600214
0.546764
0.479816
0.462623
0.46263
0.476548
0.539915
0.522606
0.449483
0.44644
0.446477
0.44646
0.500989
0.560715
0.56074
0.529412
0.462918
0.453762
0.453727
0.469522
0.495116
0.527676
0.528107
0.505016
0.482376
0.51916
0.566007
0.6168
0.626281
0.626383
0.626296
0.626532
0.626296
0.57935
0.503394
0.498736
0.510574
0.541795
0.541738
0.541797
0.484094
0.472226
0.472171
0.472227
0.477345
0.479285
0.513296
0.533858
0.533852
0.533863
0.533856
0.537438
0.537536
0.537438
0.537537
0.498995
0.448273
0.483522
0.489367
0.425582
0.488333
0.639092
0.656657
0.656695
0.656661
0.656698
0.623246
0.489607
0.453413
0.453564
0.453448
0.453564
0.525209
0.495364
0.493002
0.493058
0.533135
0.533235
0.533141
0.533248
0.538991
0.48912
0.457143
0.457194
0.457175
0.457194
0.496472
0.523374
0.519683
0.464542
0.391646
0.25088
0.217842
0.217845
0.494373
0.563079
0.541105
0.501566
0.500675
0.493269
0.484132
0.485646
0.453685
0.453686
0.470076
0.470006
0.511926
0.453222
0.453222
0.49726
0.497264
0.497267
0.49727
0.474269
0.47427
0.475304
0.480637
0.483639
0.483637
0.500946
0.537388
0.496085
0.410078
0.402685
0.40268
0.402683
0.482625
0.402687
0.50712
0.552779
0.55277
0.552776
0.536225
0.517751
0.517751
0.507255
0.470111
0.470114
0.505731
0.50636
0.480854
0.480855
0.4755
0.475497
0.494647
0.471691
0.463816
0.463817
0.505756
0.505757
0.482986
0.485575
0.479185
0.479185
0.498573
0.440863
0.405356
0.405348
0.405355
0.405357
0.405359
0.559105
0.578041
0.578067
0.578034
0.578059
0.578027
0.538902
0.516416
0.447658
0.433048
0.43304
0.433048
0.433038
0.433048
0.526871
0.526869
0.526882
0.51849
0.500714
0.500715
0.511965
0.511963
0.511961
0.469142
0.472088
0.504968
0.504954
0.5023
0.468381
0.357854
0.357857
0.357853
0.357865
0.357876
0.483044
0.599023
0.599002
0.599062
0.599002
0.599054
0.541833
0.522121
0.491026
0.459839
0.482942
0.46477
0.459427
0.45938
0.459427
0.526295
0.526285
0.490897
0.486126
0.48843
0.456927
0.467915
0.493294
0.471231
0.471235
0.471217
0.495777
0.495828
0.492017
0.406657
0.357079
0.357051
0.35707
0.554413
0.614083
0.614055
0.614052
0.614037
0.578132
0.482543
0.461035
0.461025
0.461044
0.515809
0.50845
0.508432
0.524742
0.524732
0.524746
0.515131
0.514551
0.51454
0.499236
0.460659
0.460612
0.460659
0.460627
0.498876
0.538208
0.538286
0.458366
0.338355
0.338363
0.338357
0.338391
0.338386
0.565749
0.606405
0.606503
0.606397
0.582109
0.53012
0.519529
0.51953
0.519471
0.506318
0.510056
0.513364
0.539877
0.539823
0.443259
0.44319
0.443188
0.511998
0.554236
0.554353
0.48994
0.355936
0.355922
0.384933
0.431147
0.457137
0.452799
0.452822
0.452805
0.497668
0.510651
0.468179
0.394055
0.379228
0.452649
0.558929
0.562962
0.56295
0.549494
0.496897
0.493787
0.515697
0.532842
0.535393
0.535382
0.526273
0.477867
0.477877
0.497385
0.546061
0.546942
0.546932
0.546959
0.546948
0.505201
0.50254
0.480827
0.480728
0.48073
0.51183
0.541823
0.54182
0.530745
0.472191
0.373206
0.373209
0.37321
0.530314
0.60561
0.605614
0.605618
0.607543
0.607533
0.607623
0.607496
0.607595
0.584485
0.45817
0.404607
0.404753
0.404547
0.404742
0.426963
0.468408
0.480871
0.48986
0.510206
0.515237
0.515278
0.515238
0.515274
0.495171
0.460541
0.460571
0.467186
0.493376
0.425423
0.345848
0.345863
0.345871
0.573933
0.582172
0.582178
0.575244
0.507618
0.502256
0.58366
0.584159
0.584288
0.584157
0.524008
0.459016
0.459061
0.459045
0.49114
0.478173
0.478178
0.483931
0.492473
0.49248
0.492487
0.477337
0.47734
0.504446
0.585097
0.596559
0.596426
0.59661
0.489515
0.365573
0.339511
0.339554
0.339534
0.339554
0.493569
0.60024
0.600238
0.570465
0.54493
0.544929
0.54493
0.576448
0.576421
0.563081
0.563052
0.563035
0.562999
0.557486
0.550334
0.550356
0.53241
0.47436
0.453664
0.453774
0.453583
0.453762
0.453624
0.453762
0.502707
0.5281
0.528107
0.528113
0.372056
0.346746
0.34675
0.346752
0.346754
0.465273
0.611706
0.626349
0.626296
0.62043
0.599496
0.615434
0.615384
0.517578
0.470041
0.47008
0.470041
0.500109
0.519958
0.519968
0.511481
0.534711
0.534676
0.530812
0.49204
0.488989
0.515619
0.537438
0.537452
0.537438
0.537531
0.537438
0.489786
0.415695
0.316723
0.286695
0.286712
0.286705
0.515125
0.645297
0.64521
0.656698
0.656664
0.621547
0.4539
0.453591
0.543209
0.543137
0.530827
0.533085
0.533068
0.533167
0.533085
0.533279
0.531252
0.496859
0.537421
0.542346
0.54223
0.5423
0.538502
0.496816
0.457175
0.457235
0.457216
0.459158
0.497489
0.434774
0.266642
0.21787
0.21788
0.458726
0.564958
0.502864
0.471365
0.474262
0.50824
0.482975
0.482974
0.502017
0.512393
0.512392
0.511936
0.51193
0.506705
0.506707
0.482982
0.48298
0.492233
0.497272
0.498304
0.519523
0.466461
0.432134
0.432134
0.494778
0.468251
0.468251
0.470909
0.48173
0.462529
0.402676
0.402678
0.402684
0.402684
0.54315
0.552776
0.552796
0.55277
0.552792
0.552766
0.552769
0.548849
0.495039
0.506361
0.50636
0.50636
0.477244
0.477245
0.489366
0.486056
0.458188
0.45819
0.48901
0.489012
0.489014
0.505758
0.505759
0.501106
0.490989
0.49099
0.469941
0.462545
0.430186
0.405356
0.405351
0.405358
0.405365
0.468039
0.578067
0.578034
0.578061
0.547243
0.490935
0.490908
0.516401
0.516384
0.485168
0.467045
0.444178
0.472745
0.492991
0.492978
0.493004
0.511975
0.531049
0.531051
0.531054
0.531057
0.461526
0.445189
0.44519
0.50497
0.504959
0.46884
0.424568
0.35808
0.357859
0.357852
0.357858
0.357862
0.357868
0.574752
0.599019
0.599056
0.599002
0.585756
0.52696
0.541827
0.541815
0.485953
0.448716
0.448723
0.472735
0.522877
0.504861
0.459406
0.459436
0.501582
0.556763
0.556768
0.556774
0.556779
0.522757
0.522764
0.509606
0.480985
0.494593
0.487823
0.456664
0.358239
0.357074
0.357031
0.35706
0.357051
0.591182
0.614073
0.614158
0.614055
0.614079
0.582936
0.510343
0.485457
0.520561
0.471693
0.4717
0.496979
0.524735
0.524729
0.473726
0.473724
0.48761
0.51454
0.514531
0.513987
0.511346
0.480131
0.487616
0.531083
0.538208
0.538286
0.538208
0.495674
0.338362
0.338337
0.338363
0.33836
0.338383
0.486075
0.606395
0.606397
0.600582
0.589077
0.589418
0.589414
0.519161
0.519159
0.525743
0.525597
0.539859
0.539865
0.528003
0.445527
0.453631
0.54642
0.546382
0.464336
0.355671
0.355849
0.355774
0.400422
0.480904
0.498856
0.480519
0.452843
0.452799
0.452822
0.47478
0.430295
0.379228
0.379228
0.379228
0.441428
0.554631
0.562959
0.557951
0.536184
0.535808
0.523993
0.509508
0.509507
0.535373
0.535393
0.479361
0.477877
0.477868
0.480038
0.514247
0.476053
0.453196
0.453177
0.453196
0.459682
0.506638
0.5369
0.536904
0.53691
0.536915
0.54182
0.541823
0.435801
0.373194
0.373208
0.373209
0.373209
0.482491
0.588654
0.603813
0.607559
0.607533
0.607672
0.529503
0.529585
0.537977
0.429432
0.404735
0.404832
0.405486
0.416643
0.416637
0.421517
0.478259
0.527879
0.529213
0.529214
0.492976
0.466254
0.466211
0.466254
0.466236
0.517649
0.545298
0.545335
0.498164
0.345843
0.345849
0.345848
0.345863
0.504307
0.576387
0.574951
0.574937
0.56518
0.569
0.584159
0.584287
0.584159
0.492571
0.48295
0.482939
0.519386
0.55312
0.55318
0.553162
0.55318
0.506571
0.460504
0.460538
0.517527
0.542878
0.542897
0.543306
0.578411
0.394157
0.3396
0.339481
0.339567
0.339475
0.339554
0.339511
0.33954
0.339511
0.457492
0.600238
0.600243
0.600242
0.590427
0.555803
0.574343
0.600333
0.566386
0.453234
0.452395
0.452251
0.452397
0.452255
0.452398
0.506814
0.547047
0.547056
0.547047
0.493068
0.453774
0.453732
0.45494
0.502407
0.523076
0.523059
0.523102
0.528123
0.416698
0.346717
0.346747
0.34675
0.346752
0.470748
0.605842
0.60573
0.605769
0.605742
0.615421
0.615397
0.555427
0.517552
0.540602
0.540551
0.470207
0.470278
0.513469
0.534676
0.534741
0.534676
0.534814
0.5312
0.488989
0.489
0.48899
0.489
0.488972
0.488999
0.488996
0.520931
0.512586
0.35803
0.286624
0.286708
0.286695
0.286705
0.435691
0.651591
0.656712
0.656664
0.656716
0.656668
0.656834
0.656664
0.639319
0.520876
0.508823
0.508815
0.497228
0.476978
0.476978
0.476978
0.496872
0.49686
0.496859
0.54223
0.542349
0.54223
0.542373
0.542217
0.542352
0.542211
0.511311
0.511234
0.51129
0.479453
0.270364
0.217911
0.217896
0.509165
0.489349
0.471365
0.471369
0.514618
0.508242
0.482974
0.511348
0.512393
0.512392
0.512393
0.510367
0.464131
0.46413
0.47933
0.47933
0.502242
0.507028
0.51195
0.519523
0.519529
0.466456
0.475826
0.510268
0.510265
0.510274
0.492459
0.487915
0.48173
0.482399
0.402674
0.402684
0.402683
0.402686
0.552776
0.5528
0.552776
0.55281
0.550079
0.552767
0.552756
0.551723
0.495041
0.500679
0.479026
0.479025
0.483406
0.489364
0.489361
0.489369
0.489361
0.484963
0.489008
0.48901
0.487683
0.505758
0.505758
0.469182
0.466002
0.466002
0.466002
0.481224
0.432589
0.405351
0.405357
0.515045
0.422554
0.578044
0.578043
0.578072
0.578039
0.578099
0.578039
0.578083
0.472084
0.472133
0.481288
0.452695
0.441946
0.441957
0.441951
0.441959
0.493409
0.531042
0.531044
0.505509
0.479643
0.477406
0.477405
0.477399
0.452013
0.504959
0.504975
0.424771
0.420694
0.420689
0.478773
0.478779
0.357861
0.416763
0.359728
0.599008
0.599056
0.599008
0.599054
0.591254
0.513937
0.513951
0.541808
0.497809
0.448706
0.511103
0.522877
0.522885
0.52288
0.459436
0.51549
0.556742
0.556746
0.520873
0.472927
0.472927
0.472927
0.522762
0.522747
0.50087
0.497645
0.493555
0.469229
0.450998
0.381477
0.357079
0.35706
0.35707
0.582035
0.614162
0.614073
0.614152
0.585903
0.510348
0.510354
0.524956
0.524946
0.524939
0.524928
0.467073
0.453115
0.453123
0.463334
0.513808
0.513794
0.504983
0.504973
0.510241
0.46872
0.468722
0.482525
0.538196
0.538238
0.538208
0.538286
0.538208
0.405844
0.374869
0.338359
0.338383
0.338389
0.539177
0.606385
0.606407
0.606385
0.601056
0.58942
0.589418
0.589409
0.537975
0.525731
0.523148
0.505876
0.486406
0.446776
0.446169
0.546478
0.546435
0.355973
0.355601
0.35576
0.355753
0.399144
0.444214
0.481211
0.522482
0.550382
0.550367
0.55038
0.525093
0.483265
0.397007
0.37922
0.379228
0.379228
0.414729
0.524553
0.562986
0.56298
0.563046
0.56298
0.533172
0.514088
0.514492
0.514502
0.457999
0.471913
0.494481
0.477877
0.477875
0.513345
0.527245
0.527211
0.521854
0.499072
0.484691
0.484692
0.498368
0.536902
0.536906
0.53691
0.52878
0.516188
0.469109
0.373196
0.373209
0.373209
0.37321
0.514905
0.607532
0.607646
0.607534
0.607762
0.607533
0.607728
0.602196
0.5461
0.445683
0.404897
0.404793
0.404897
0.413611
0.434168
0.472993
0.523597
0.529213
0.529238
0.529203
0.545204
0.545297
0.545363
0.545297
0.545357
0.545298
0.545381
0.497318
0.393846
0.345808
0.345848
0.345849
0.345848
0.427345
0.543943
0.583772
0.583766
0.583791
0.583552
0.584201
0.584161
0.584288
0.584159
0.569196
0.484615
0.474167
0.474169
0.479966
0.510209
0.478749
0.45958
0.459579
0.45958
0.48074
0.526487
0.531472
0.567636
0.578358
0.578316
0.384967
0.3396
0.359284
0.42156
0.4312
0.357574
0.339526
0.339554
0.414045
0.54076
0.596313
0.600342
0.600327
0.599447
0.600334
0.600439
0.477246
0.452395
0.452338
0.454908
0.483593
0.521202
0.534306
0.534314
0.534322
0.542487
0.547059
0.54705
0.547145
0.528206
0.469644
0.47045
0.517689
0.539444
0.539427
0.539427
0.390091
0.346703
0.346732
0.346748
0.346751
0.460578
0.615395
0.615414
0.605742
0.605782
0.615397
0.615443
0.615397
0.593723
0.543086
0.504163
0.472204
0.470303
0.479691
0.534699
0.534676
0.534741
0.525069
0.508894
0.508891
0.526271
0.547644
0.547633
0.531439
0.532869
0.553091
0.553084
0.553113
0.49783
0.386225
0.286693
0.286712
0.286705
0.483851
0.636233
0.636133
0.656318
0.656668
0.656756
0.656668
0.617128
0.499247
0.504711
0.510712
0.51071
0.506418
0.476996
0.479022
0.542231
0.535045
0.496859
0.527586
0.542402
0.54223
0.475946
0.47529
0.475067
0.475289
0.475081
0.475289
0.475245
0.489338
0.404814
0.219148
0.217916
0.217911
0.477379
0.496513
0.482909
0.519236
0.519236
0.486206
0.486209
0.507535
0.494241
0.494241
0.496776
0.476179
0.496106
0.496106
0.496105
0.496106
0.502239
0.480208
0.480206
0.482581
0.519533
0.511092
0.521562
0.4802
0.480204
0.510265
0.510274
0.487113
0.494191
0.484038
0.430781
0.423469
0.497316
0.523349
0.55277
0.544031
0.514685
0.514675
0.545103
0.545094
0.552762
0.552752
0.552747
0.552588
0.552442
0.514031
0.514034
0.480837
0.470837
0.47083
0.479938
0.461139
0.460654
0.460654
0.478382
0.478379
0.505759
0.505144
0.505142
0.50514
0.491691
0.481225
0.46848
0.435732
0.464274
0.545716
0.578044
0.578038
0.578069
0.578038
0.57809
0.55828
0.482987
0.482974
0.506788
0.518336
0.518335
0.513752
0.514759
0.510931
0.490093
0.474826
0.458698
0.458702
0.464225
0.464225
0.514407
0.477581
0.463701
0.463717
0.495434
0.504968
0.504959
0.504974
0.504958
0.50498
0.477946
0.495543
0.495544
0.495544
0.412565
0.541015
0.546543
0.546546
0.572984
0.58779
0.532485
0.524472
0.45445
0.448706
0.448706
0.448706
0.459789
0.502582
0.528051
0.528858
0.528857
0.470568
0.470571
0.507109
0.527688
0.502133
0.500517
0.468489
0.46847
0.46847
0.472791
0.493555
0.493548
0.493546
0.398632
0.417512
0.579096
0.614102
0.614162
0.614076
0.61418
0.614064
0.548785
0.525112
0.52511
0.525102
0.519972
0.516254
0.453116
0.453115
0.453116
0.522534
0.522504
0.513802
0.489862
0.489863
0.528891
0.528937
0.475069
0.46872
0.502055
0.521781
0.533499
0.538248
0.538208
0.486183
0.463647
0.530181
0.530163
0.530178
0.517214
0.606303
0.606336
0.577597
0.577616
0.606321
0.605863
0.507354
0.507354
0.507353
0.525743
0.478339
0.4635
0.463503
0.515476
0.546488
0.546672
0.534998
0.355502
0.35576
0.355621
0.41178
0.499953
0.522264
0.48947
0.489478
0.506292
0.55039
0.550379
0.55039
0.506319
0.474141
0.466539
0.446604
0.425038
0.500216
0.551946
0.56298
0.563014
0.562983
0.563054
0.530811
0.453837
0.453099
0.453112
0.453099
0.499377
0.526633
0.526652
0.526655
0.527224
0.527211
0.527272
0.527216
0.525404
0.499587
0.530039
0.536751
0.536769
0.497122
0.500458
0.530736
0.530728
0.528083
0.464772
0.445833
0.485535
0.490091
0.554674
0.554689
0.558724
0.55626
0.556211
0.556255
0.575625
0.564939
0.493935
0.451099
0.450788
0.463417
0.444689
0.441775
0.467827
0.469514
0.469516
0.490577
0.531681
0.545319
0.545298
0.545348
0.545298
0.545364
0.545298
0.545362
0.494172
0.42192
0.411494
0.451152
0.451143
0.4512
0.363113
0.414814
0.536441
0.567271
0.536898
0.536873
0.536899
0.571762
0.584194
0.584159
0.544946
0.514742
0.517029
0.517022
0.517038
0.517022
0.517043
0.493698
0.461265
0.501261
0.501261
0.501261
0.485711
0.485709
0.520539
0.578315
0.578279
0.416093
0.339543
0.339663
0.378885
0.465578
0.521207
0.521958
0.521951
0.521991
0.521951
0.525455
0.590495
0.600388
0.600334
0.600448
0.600335
0.585007
0.455993
0.452395
0.4845
0.495292
0.495286
0.495288
0.49529
0.524969
0.547091
0.547049
0.54717
0.54705
0.547173
0.53782
0.539099
0.539444
0.539442
0.415241
0.388453
0.388464
0.453808
0.526539
0.531143
0.531148
0.615395
0.615506
0.615395
0.615506
0.615395
0.615457
0.571966
0.486404
0.48641
0.486416
0.485649
0.475463
0.475475
0.516815
0.521065
0.521049
0.534686
0.534746
0.533958
0.547644
0.547644
0.547644
0.52334
0.491839
0.491845
0.491849
0.531219
0.553099
0.553148
0.466615
0.40901
0.422165
0.522427
0.6567
0.656665
0.656809
0.656668
0.656795
0.656672
0.656932
0.595949
0.489987
0.489997
0.49001
0.47715
0.477155
0.498394
0.542231
0.542223
0.542233
0.542229
0.542388
0.54223
0.542411
0.516033
0.527893
0.527977
0.527876
0.527985
0.527869
0.527968
0.465939
0.270398
0.217967
0.217951
0.217916
0.455046
0.496513
0.468053
0.481729
0.523664
0.523664
0.492883
0.492421
0.483524
0.495696
0.495699
0.47237
0.491873
0.453312
0.453311
0.498936
0.498941
0.480206
0.509226
0.530748
0.530748
0.530748
0.530748
0.52836
0.492509
0.510272
0.508935
0.487116
0.494543
0.440385
0.423474
0.423471
0.441805
0.441805
0.552754
0.55275
0.552735
0.552748
0.55273
0.552743
0.473402
0.465826
0.492847
0.507659
0.466648
0.466649
0.466649
0.466649
0.512261
0.512274
0.487562
0.491204
0.507906
0.461521
0.461518
0.505756
0.505756
0.49868
0.50514
0.483396
0.440877
0.439859
0.398198
0.356798
0.356809
0.356813
0.356816
0.578031
0.578038
0.578072
0.578034
0.578064
0.54827
0.535644
0.535645
0.482882
0.478566
0.478561
0.52669
0.541633
0.509522
0.458698
0.458702
0.493871
0.510835
0.512761
0.531917
0.521314
0.488545
0.463702
0.463719
0.501515
0.50497
0.504958
0.504976
0.429817
0.396389