/*--------------------------------*- C++ -*----------------------------------*\
  =========                 |
  \\      /  F ield         | OpenFOAM: The Open Source CFD Toolbox
   \\    /   O peration     | Website:  https://openfoam.org
    \\  /    A nd           | Version:  7
     \\/     M anipulation  |
\*---------------------------------------------------------------------------*/
FoamFile
{
    version     2.0;
    format      ascii;
    class       surfaceScalarField;
    location    "2000";
    object      alphaPhi;
}
// * * * * * * * * * * * * * * * * * * * * * * * * * * * * * * * * * * * * * //

dimensions      [0 3 -1 0 0 0 0];

internalField   nonuniform List<scalar> 
319200
(
3.28341e-17
7.42154e-17
9.6185e-17
5.18139e-17
7.37145e-17
-2.0244e-17
1.83033e-16
5.74812e-17
2.06894e-16
7.78728e-17
2.32474e-16
6.66471e-17
2.9735e-16
9.82304e-17
3.99498e-16
6.87627e-17
3.96315e-16
2.20588e-17
4.76012e-16
3.4566e-17
5.05905e-16
6.77744e-17
5.61922e-16
1.33946e-17
5.53637e-16
1.06648e-16
3.98498e-16
1.28849e-16
3.79446e-16
5.25948e-17
4.35785e-16
3.04682e-17
4.33074e-16
8.31651e-17
5.27118e-16
4.12122e-17
7.56849e-16
-1.7931e-17
6.72509e-16
-2.44703e-17
7.81343e-16
-4.36346e-18
8.69173e-16
1.28647e-17
1.02399e-15
-4.37029e-17
1.07363e-15
-6.53371e-17
1.17861e-15
-2.11346e-18
1.11909e-15
1.68749e-16
1.04346e-15
2.22427e-16
5.00087e-16
9.49707e-17
1.03413e-15
1.41636e-16
3.42498e-16
2.84821e-17
1.05425e-15
-5.04862e-17
7.52249e-16
-9.18431e-17
1.37738e-15
-2.28095e-17
1.26955e-15
5.40455e-17
1.45924e-15
7.20821e-17
1.53905e-15
1.06886e-16
1.5288e-15
4.08553e-17
1.35972e-15
2.01558e-16
1.08994e-15
2.95387e-16
1.08547e-15
3.24754e-17
1.21901e-15
-3.79297e-17
1.29697e-15
1.49271e-17
1.48542e-15
1.19481e-16
1.36759e-15
1.34724e-16
1.2889e-15
9.6713e-17
1.29933e-15
8.64584e-18
1.32978e-15
-1.31117e-17
1.38209e-15
3.58989e-17
1.41323e-15
6.91139e-17
1.52154e-15
-1.813e-17
2.02172e-15
-2.33534e-16
1.55755e-15
-2.88725e-17
2.46202e-15
2.91863e-16
8.55046e-16
5.1807e-17
2.4611e-15
7.11145e-17
7.22313e-16
7.23067e-17
5.93507e-16
-7.3179e-18
3.76661e-16
1.10281e-16
4.41048e-16
-2.8635e-17
1.36705e-15
-1.25215e-16
4.33088e-16
1.46435e-17
1.11081e-15
2.36172e-16
7.29424e-17
7.5655e-17
9.72616e-16
4.95773e-17
5.36544e-16
-1.18947e-16
9.08561e-16
-8.24561e-17
8.88136e-16
1.06974e-16
7.6055e-16
2.37957e-16
5.67235e-16
2.61743e-16
6.77773e-16
-1.14851e-16
-1.48408e-16
-1.76717e-16
8.73786e-16
-1.37113e-16
-1.80003e-16
-7.36709e-17
1.49496e-15
4.78308e-17
4.99922e-17
4.98133e-17
9.15689e-16
1.8485e-17
1.67392e-16
-2.85007e-17
9.81657e-16
-1.22111e-17
2.62945e-16
1.06344e-17
7.14651e-16
-1.81506e-17
3.92878e-16
-9.86349e-17
9.41728e-16
6.26448e-17
7.43475e-16
2.15044e-16
5.17295e-16
2.80469e-16
3.25038e-16
1.12844e-16
3.89438e-16
-1.42063e-16
2.6421e-16
-6.33089e-17
5.97947e-16
-4.13724e-17
5.70324e-16
-8.86495e-17
1.20027e-15
5.28679e-17
8.26482e-16
-1.43466e-16
2.29396e-15
-9.76963e-17
-2.96874e-16
-3.23319e-17
2.0249e-15
6.99882e-17
4.77519e-16
8.14217e-17
6.91497e-16
9.35955e-17
3.60318e-16
7.79054e-17
6.68716e-16
8.97589e-17
4.26393e-16
3.78566e-19
1.08969e-15
2.69195e-17
5.29239e-16
-8.91862e-18
8.7515e-16
-1.10694e-16
7.73165e-16
8.62149e-17
6.7863e-16
8.05894e-17
8.17912e-16
-1.55321e-16
8.24429e-16
-6.12151e-18
7.47343e-16
7.74333e-17
1.47941e-15
-4.29769e-17
3.34897e-17
-1.32272e-16
1.59156e-15
-1.02972e-16
3.35857e-16
-1.01189e-16
1.36997e-15
-1.17691e-16
1.07679e-15
-2.76516e-17
1.00188e-15
1.39654e-16
9.84923e-16
8.42488e-17
9.56907e-16
2.01018e-17
9.94691e-16
8.1019e-19
7.64177e-16
-8.70232e-17
9.73382e-16
1.40734e-16
2.35446e-16
1.99873e-16
7.00262e-16
-1.34235e-16
7.94704e-16
-2.57317e-16
1.18409e-15
-2.57003e-16
1.55256e-15
-2.36002e-16
1.9445e-15
-2.5026e-16
1.17006e-15
-4.85977e-17
1.3949e-15
9.44754e-17
1.49436e-15
1.56327e-16
1.83388e-15
-5.96149e-17
1.94621e-15
-4.38837e-17
1.9058e-15
1.12034e-16
1.81726e-15
1.47461e-16
1.67809e-15
-1.77034e-16
2.3547e-15
-2.62339e-16
4.14876e-16
-3.58739e-17
1.68475e-15
3.58155e-16
7.37765e-16
-4.72289e-17
2.28881e-15
-3.50534e-16
1.35908e-15
-2.96968e-17
1.78361e-15
-7.59206e-17
1.65778e-15
-2.31775e-18
1.5026e-15
1.31881e-16
1.4997e-15
-9.91464e-18
-4.90567e-16
-4.70836e-16
2.70494e-15
-2.04386e-16
3.30593e-16
1.42938e-17
4.66355e-15
9.19015e-17
5.10418e-16
8.63277e-17
1.44555e-15
3.3118e-16
8.67607e-16
4.65267e-16
7.45434e-16
-2.55004e-18
1.03671e-15
-3.45892e-16
9.99872e-16
-9.33721e-17
1.1214e-15
3.32532e-17
9.40032e-16
-5.2737e-17
1.9921e-15
-2.15171e-16
2.07146e-16
-4.73382e-16
2.95547e-15
-1.42944e-16
1.74091e-15
7.31154e-17
1.27388e-15
2.18027e-16
1.1228e-15
2.20229e-16
8.29863e-16
-3.80889e-17
1.89427e-15
-2.13902e-16
1.86645e-15
-3.52532e-17
1.7165e-15
1.39059e-16
2.41143e-15
2.51636e-16
1.44198e-15
1.4734e-16
2.26797e-15
1.16727e-17
4.96135e-16
-1.70777e-16
3.67248e-15
-2.08561e-16
-6.81074e-17
-6.7155e-17
4.24108e-15
4.5126e-17
1.53857e-15
7.15355e-17
1.36313e-15
1.48948e-16
1.43499e-15
-9.64231e-17
1.36413e-15
1.61714e-16
1.76102e-15
-3.10751e-16
2.50456e-15
-4.89278e-16
2.78907e-15
-2.17656e-16
2.72945e-15
1.21533e-16
2.67343e-15
1.03822e-16
3.52037e-16
1.4975e-16
1.84041e-15
8.0879e-16
1.36918e-15
5.38437e-16
9.95812e-16
2.35184e-16
8.72577e-16
-9.62605e-17
1.15677e-15
-1.29169e-16
1.24524e-15
6.16083e-17
8.09861e-16
1.13654e-16
1.45613e-16
-5.16591e-17
-2.47377e-16
-2.16499e-17
2.20403e-16
5.2512e-16
3.53374e-16
4.43966e-16
5.44362e-16
4.0825e-16
9.23428e-16
3.1242e-16
1.49502e-15
-1.53983e-16
2.19292e-15
2.69202e-18
4.31924e-15
3.36086e-15
-2.36242e-15
-6.24407e-16
5.39821e-15
9.11525e-16
7.86487e-16
-1.46178e-16
4.01542e-15
8.08707e-16
3.90752e-15
3.79483e-16
4.1553e-15
3.93119e-16
4.17738e-15
1.08948e-17
4.49863e-15
-2.85813e-16
3.675e-15
8.63697e-16
3.16326e-15
6.08186e-16
3.63989e-15
4.41082e-16
4.05646e-15
2.98584e-16
4.38696e-15
3.92586e-16
4.07848e-15
4.66357e-16
3.97265e-15
2.48265e-16
4.19778e-15
5.94391e-17
4.15614e-15
3.47433e-16
4.09299e-15
3.55803e-16
4.61897e-15
-2.66104e-16
3.20081e-15
-2.70219e-16
6.07841e-15
1.50734e-16
2.78161e-15
4.40461e-16
5.10018e-15
6.10425e-16
3.07985e-15
8.4453e-16
3.81841e-15
6.84665e-16
3.83843e-15
3.23314e-16
3.8741e-15
3.32613e-16
8.17688e-16
5.52398e-18
4.63887e-15
2.1943e-16
1.20746e-15
-1.04819e-16
2.05626e-15
-5.12141e-17
3.17546e-16
1.93389e-16
1.43574e-15
1.08617e-16
1.05863e-15
2.48455e-16
5.81633e-16
4.62928e-17
2.59106e-16
-1.7809e-16
-4.32665e-18
-2.28825e-16
5.2554e-16
-1.52697e-16
9.01821e-16
6.43493e-17
6.23832e-16
-8.97432e-17
1.91824e-15
-9.94738e-17
3.28193e-15
1.63912e-17
2.3336e-15
1.61061e-16
2.09315e-15
4.01539e-16
1.63956e-15
1.11895e-16
1.68423e-15
-3.65897e-16
1.63067e-15
-2.96888e-16
1.31848e-15
-7.22227e-17
1.1013e-15
-1.81606e-16
-1.78414e-15
1.48126e-15
-4.63223e-15
1.68689e-15
2.53963e-15
1.5691e-15
-2.14195e-15
6.25203e-16
3.4891e-16
9.79233e-16
1.10436e-15
5.76518e-16
1.68873e-15
3.79203e-16
2.34407e-15
4.62069e-17
1.47759e-15
2.66171e-18
3.42472e-15
1.57642e-16
3.43524e-15
-6.09435e-16
6.5875e-15
-2.30981e-16
2.18336e-15
-4.56258e-16
6.31239e-15
8.92576e-16
2.42027e-15
1.00137e-15
3.32709e-15
6.43444e-16
3.54214e-15
2.48445e-16
5.54707e-15
-1.93661e-16
3.41651e-15
-3.64777e-16
5.64061e-15
-1.48039e-16
4.27369e-15
-3.25332e-16
7.82069e-15
-4.06619e-16
3.50663e-15
3.25227e-16
1.11389e-15
6.94861e-16
8.91464e-16
8.58253e-17
1.06847e-15
-3.23825e-17
2.23031e-15
4.74917e-17
3.37507e-15
-4.64157e-17
3.91464e-15
-1.93707e-16
3.81363e-15
-3.47433e-16
1.47066e-15
5.38204e-17
2.17944e-15
5.19405e-16
6.18151e-16
2.75754e-16
1.73836e-15
1.07611e-16
2.09606e-15
1.7314e-17
2.22406e-15
2.65434e-16
-5.37988e-16
2.99678e-16
5.30434e-15
1.61898e-16
1.03556e-16
-9.72533e-16
7.86625e-15
-3.4896e-16
5.52593e-15
-5.55648e-16
6.09577e-15
-4.02919e-17
5.74818e-15
1.17731e-15
2.96598e-15
1.09376e-15
3.16976e-15
3.09081e-16
3.25419e-15
-6.62556e-16
3.35976e-15
-7.03207e-16
3.2101e-15
-5.06041e-16
2.38895e-15
1.83197e-16
2.05253e-15
4.45189e-17
1.70102e-15
1.46157e-16
1.17512e-15
9.42708e-17
3.21295e-16
1.25356e-15
3.87497e-15
7.31436e-15
-1.7681e-14
-4.2242e-16
3.03202e-15
2.87577e-15
-1.37631e-14
-1.60685e-16
4.37423e-15
1.01069e-15
2.56186e-17
3.51935e-16
2.54315e-15
5.00048e-16
3.70753e-15
5.55486e-16
4.81246e-15
3.34648e-16
6.02071e-15
2.03595e-16
5.90832e-15
4.82532e-16
5.85443e-15
3.93047e-16
6.93269e-15
2.10183e-17
5.6794e-15
7.92932e-17
9.01998e-15
5.15019e-16
4.92797e-15
-5.01228e-16
9.21934e-15
4.80388e-16
5.50054e-15
5.44338e-16
6.05281e-15
2.50689e-16
5.8387e-15
2.01172e-16
5.6416e-15
-1.11161e-16
5.35502e-15
-2.18389e-16
3.59804e-15
-4.82225e-17
1.11166e-14
-7.94201e-17
-1.78741e-15
-1.36992e-16
-5.37283e-19
1.16941e-15
1.01815e-14
4.45176e-16
8.97926e-16
5.13212e-17
9.79948e-15
3.68548e-16
2.39372e-15
5.99154e-16
6.87423e-15
1.32669e-16
2.64218e-15
-4.57762e-16
7.11055e-15
3.58951e-16
4.12666e-15
-5.01026e-16
7.03345e-15
-3.37549e-17
6.36261e-15
-3.18458e-16
7.50666e-15
-7.73782e-16
8.00384e-15
-9.89365e-16
4.65693e-15
2.71606e-16
7.28429e-15
6.71518e-16
5.49213e-15
4.24058e-16
7.2624e-15
-2.29812e-16
7.0827e-15
-1.10881e-16
8.05231e-15
-2.65877e-16
7.44638e-15
4.04006e-16
1.15726e-14
1.19236e-15
4.88609e-15
5.29926e-16
9.87581e-15
2.00121e-15
1.89178e-15
1.07318e-15
4.4351e-15
1.65911e-16
5.79823e-15
1.70908e-16
6.77321e-15
3.03037e-16
6.00252e-15
6.11771e-16
6.96265e-15
2.02946e-16
3.34363e-15
-3.04081e-16
7.66407e-15
4.05979e-17
2.6837e-15
6.75361e-17
6.97217e-15
1.32118e-16
5.07029e-15
2.16217e-16
5.05004e-15
3.06715e-16
4.66532e-15
1.23408e-16
4.7562e-15
-1.51731e-16
3.7512e-15
-2.44319e-16
6.68201e-15
-1.61529e-16
2.53039e-16
-1.71302e-15
2.58905e-15
4.01949e-16
3.57322e-15
-7.50412e-16
3.50165e-15
-3.48933e-16
2.77845e-15
8.20406e-16
1.84939e-15
9.23931e-16
2.60585e-15
-1.78788e-16
4.11804e-15
-7.25097e-16
6.46172e-15
-1.07043e-15
6.7798e-15
2.75414e-17
6.35556e-15
6.89952e-16
5.80808e-15
9.62681e-16
4.25632e-15
1.8957e-15
3.49996e-15
8.01127e-16
3.20862e-15
3.32761e-16
2.78235e-15
2.3494e-16
2.51762e-15
3.70304e-17
2.19538e-15
1.11848e-16
2.41512e-15
-6.09641e-16
7.14053e-15
-1.49139e-15
4.50531e-15
-8.78253e-16
8.35568e-15
-1.61798e-16
4.44299e-15
-2.25699e-16
3.96884e-15
5.56363e-16
2.66527e-15
9.59885e-16
2.44468e-15
1.1518e-16
2.4856e-15
-1.62064e-16
2.36526e-15
4.73133e-17
2.86241e-15
-4.59449e-16
3.58332e-15
-3.72205e-16
5.04176e-15
-5.81223e-16
6.87561e-15
-4.3153e-16
7.11792e-15
3.04386e-17
7.65877e-15
-5.22034e-16
1.02932e-14
-5.71368e-16
1.43435e-16
5.07155e-17
1.18457e-16
7.32229e-18
4.24953e-17
6.83266e-17
6.91376e-17
9.48195e-17
2.82063e-17
1.6438e-16
3.19141e-17
2.4261e-16
7.75541e-17
2.0685e-16
8.28367e-17
2.17529e-16
1.003e-17
2.82768e-16
6.30648e-17
2.78195e-16
4.50009e-17
3.04486e-16
4.75187e-17
3.71942e-16
1.50084e-17
4.83107e-16
1.38905e-16
1.22442e-16
9.50514e-17
5.96833e-16
2.71627e-16
3.51931e-16
7.35325e-17
5.45696e-16
-2.53928e-17
7.65186e-16
1.37206e-19
3.69205e-16
3.95905e-17
4.45835e-16
1.03118e-17
5.12047e-16
2.90375e-17
6.25408e-16
8.54722e-18
6.92094e-16
9.77014e-18
6.59596e-16
8.54657e-17
6.38563e-16
5.37259e-17
9.12752e-16
6.28396e-17
3.20834e-16
9.04519e-17
9.10433e-16
2.77256e-16
2.56038e-16
4.60341e-17
1.51532e-15
6.66562e-17
1.86964e-16
6.2815e-17
1.79957e-16
5.16558e-17
2.17458e-16
4.15645e-17
6.99696e-16
3.6221e-17
8.50028e-16
5.55378e-18
7.26835e-16
6.09418e-17
4.87323e-16
5.25936e-17
6.83258e-16
9.97742e-17
9.10186e-16
9.78941e-17
8.40432e-16
2.75039e-17
8.2372e-16
7.32135e-17
8.69461e-16
5.75363e-17
8.70732e-16
1.34586e-16
8.09587e-16
1.74925e-16
9.11865e-16
1.35319e-17
9.42951e-16
-2.8712e-18
6.56755e-16
1.14971e-16
5.35051e-16
9.50401e-17
5.42613e-16
5.34524e-17
6.50504e-16
-1.73821e-17
5.87254e-16
-7.7004e-17
6.43885e-16
-1.65955e-17
3.75145e-16
-1.69451e-18
2.3402e-15
4.55692e-17
9.07233e-16
2.37831e-16
2.79807e-16
1.71677e-16
3.88369e-16
1.54784e-16
4.64408e-16
1.4035e-16
8.75158e-16
-5.30115e-17
3.03271e-16
-7.30085e-17
1.16339e-15
8.24513e-17
3.58772e-16
1.38403e-16
4.32127e-16
4.68447e-17
4.2254e-16
-1.69704e-17
8.65368e-16
5.88299e-17
2.75438e-16
-2.27773e-17
5.64283e-16
-1.20416e-16
9.12431e-16
-1.14542e-16
1.24603e-15
-7.86715e-17
1.04538e-15
7.85654e-17
9.42823e-16
2.38733e-16
3.0399e-16
1.07464e-16
5.19123e-16
1.06513e-16
3.94122e-16
6.74019e-17
7.12101e-16
3.70926e-17
2.03375e-17
6.5546e-17
5.89223e-16
1.47773e-16
5.6693e-16
5.48882e-17
7.55822e-16
-1.55224e-16
5.5867e-16
-6.888e-17
5.39555e-16
1.01677e-16
6.03139e-16
6.8735e-17
9.18715e-16
-3.43577e-18
1.36582e-15
-7.23587e-17
1.36714e-15
2.21239e-16
8.00986e-16
1.97064e-16
6.85175e-16
2.48471e-16
4.46506e-16
-5.21206e-17
1.61294e-15
-1.07937e-16
-7.63293e-17
-1.45292e-16
1.96715e-15
4.7752e-18
1.42643e-16
-1.39694e-16
3.41474e-15
6.40384e-17
4.09686e-16
1.22745e-16
7.67251e-16
3.00721e-16
1.33519e-16
6.29743e-17
4.18603e-16
1.18284e-16
2.03754e-16
5.35148e-17
5.6289e-16
-4.09645e-17
5.1353e-16
-4.01496e-17
9.63033e-16
1.14721e-17
5.38496e-16
1.50808e-17
9.48956e-16
-2.07563e-16
8.6561e-16
1.79969e-17
5.67877e-16
9.97414e-17
7.70244e-16
-1.14129e-16
1.0585e-15
-9.98129e-17
2.32189e-17
4.65772e-17
1.36926e-15
1.24403e-16
-2.40336e-16
4.39176e-17
1.19532e-15
2.4688e-17
6.89388e-16
3.25026e-17
8.16841e-16
-8.77749e-17
9.83912e-16
-2.39552e-18
8.38651e-16
-1.46072e-17
1.07713e-15
-4.85217e-17
7.41451e-16
-1.0598e-16
1.32409e-15
-1.65602e-16
7.84208e-16
-2.04252e-16
1.91421e-15
-1.34577e-16
1.32904e-15
7.2102e-17
6.28672e-16
1.2643e-16
6.83411e-16
-8.9626e-17
5.3642e-16
-1.53121e-16
6.27905e-16
-1.3859e-16
7.79057e-16
-7.54094e-17
9.8045e-16
1.49041e-17
1.32379e-15
-2.92415e-17
1.63064e-15
-7.68759e-17
1.60901e-15
4.93187e-17
1.77192e-15
1.09428e-17
2.59523e-15
-4.8255e-16
3.26841e-15
-4.4818e-16
2.74059e-15
1.63367e-17
2.96405e-15
1.26813e-16
2.90914e-15
-1.53818e-16
2.35912e-15
4.52075e-16
1.42741e-15
2.79334e-16
1.4702e-15
-6.86874e-18
1.68908e-15
-4.9786e-17
1.31251e-15
1.49652e-16
2.5304e-15
1.34118e-16
7.74001e-16
-3.00386e-16
2.7557e-15
-3.70848e-17
3.19809e-16
-7.13173e-17
1.17433e-15
-1.52177e-16
1.33635e-15
-5.05014e-17
2.41574e-15
1.03056e-17
1.80519e-15
-1.98695e-17
2.28367e-15
-1.19588e-16
2.30255e-15
-5.17598e-17
1.66135e-15
2.71303e-16
1.37774e-15
2.72577e-16
9.01342e-16
-2.20281e-17
2.99657e-15
-4.57176e-16
1.12855e-15
-1.61513e-16
2.47995e-15
-1.80881e-16
1.00116e-15
-1.4438e-16
1.46026e-15
-1.98202e-16
1.7207e-15
-5.60801e-17
1.82302e-15
1.04882e-16
1.31286e-15
7.66539e-17
9.36508e-16
1.04543e-16
8.4998e-16
3.86049e-17
1.19816e-15
-1.3332e-16
1.05397e-15
-1.69025e-16
2.05864e-15
1.67614e-16
1.41172e-15
2.93341e-16
8.24665e-17
1.76193e-16
1.45523e-15
2.90038e-16
-1.22157e-15
-1.81955e-16
6.80249e-16
-2.50997e-16
1.61488e-15
-6.15111e-16
4.052e-15
-3.15566e-16
1.94652e-15
4.53346e-16
1.59513e-15
6.20033e-16
1.12329e-15
-3.3144e-18
9.91794e-16
-4.133e-16
1.18448e-15
-2.55419e-16
1.59575e-15
-6.89378e-17
1.51179e-15
-1.82238e-16
3.62963e-15
2.73059e-16
2.6331e-15
6.9393e-16
2.83488e-15
3.62374e-16
2.94623e-15
4.17592e-16
1.65704e-15
3.86871e-16
1.18643e-15
1.87007e-16
1.01123e-15
-2.81583e-18
2.269e-15
-5.43122e-17
-3.58646e-15
1.22919e-16
-1.50633e-15
1.94862e-15
-1.34287e-15
1.25939e-15
4.97713e-16
6.25508e-16
1.27767e-15
7.03426e-16
1.86592e-15
5.38444e-16
2.35961e-15
4.19907e-16
-4.22653e-16
1.58325e-15
-1.71053e-15
2.63476e-15
6.50142e-15
6.2109e-16
3.25567e-15
-6.02258e-16
4.80892e-15
5.95342e-16
5.68038e-15
4.81067e-16
6.62507e-15
1.86969e-16
7.57471e-15
2.00388e-16
7.32342e-15
2.97824e-16
6.37717e-15
7.03078e-16
5.20029e-15
9.08166e-16
5.54307e-15
-5.13352e-17
6.10131e-15
2.06085e-16
6.0004e-15
3.74047e-16
6.08029e-15
4.85555e-16
6.35241e-15
1.06544e-16
6.68246e-15
2.66729e-16
6.0724e-15
5.50694e-16
5.92374e-15
3.7921e-16
6.27269e-15
1.38284e-16
5.53723e-15
-9.1668e-17
5.82621e-15
5.33694e-17
5.29103e-15
4.90521e-16
5.23801e-15
7.18355e-16
5.13587e-15
5.5906e-16
5.93746e-15
3.62147e-16
6.78614e-15
3.4982e-16
7.15591e-15
1.93541e-16
4.54074e-15
7.55906e-17
8.2594e-15
7.0155e-16
2.18049e-15
4.63087e-16
6.05744e-15
5.93908e-16
6.81493e-16
-2.03204e-16
5.54405e-15
-3.63103e-17
1.47655e-15
-1.89768e-16
6.2179e-15
-2.42853e-16
1.60456e-15
-3.94086e-17
4.07599e-15
4.28732e-16
1.69862e-15
-9.21691e-17
2.31435e-15
-4.27874e-16
2.93857e-15
-3.00483e-16
2.99843e-15
1.78957e-17
2.72556e-15
2.83156e-16
2.54481e-15
2.15971e-16
3.31879e-15
-9.53957e-17
4.26096e-15
-2.60548e-16
3.81856e-15
-4.21487e-17
3.10007e-15
-2.52014e-16
3.69896e-15
-7.12366e-16
1.50474e-15
-4.35134e-16
-2.55675e-15
1.13078e-15
-1.34047e-14
8.31072e-15
-1.58349e-16
2.77135e-15
-4.50091e-15
6.58901e-16
2.6386e-15
1.33756e-15
4.29509e-15
7.63197e-16
4.24175e-15
9.706e-16
3.79161e-15
8.72286e-16
4.26391e-15
1.35497e-16
4.6077e-15
-4.70856e-17
5.23972e-15
-2.15119e-16
4.70017e-15
-7.10125e-16
2.46905e-15
-8.70913e-16
7.36222e-15
4.59126e-16
4.80023e-15
7.07511e-16
6.38904e-15
6.59351e-16
7.265e-15
5.20406e-16
8.16585e-15
3.14274e-16
5.56725e-15
2.03043e-16
7.72583e-15
2.06999e-17
5.77715e-15
-8.7296e-16
9.04232e-15
-1.06615e-15
4.86909e-15
-1.03672e-16
8.01259e-15
1.13595e-15
4.96251e-15
5.56227e-16
4.75064e-15
3.28388e-16
4.30663e-15
4.42831e-16
4.18891e-15
1.92016e-16
5.09681e-15
-4.63521e-16
5.30864e-15
-7.32682e-16
3.21065e-15
-3.7438e-16
5.02828e-15
1.2135e-16
1.03048e-15
7.21705e-16
2.72592e-15
4.04112e-16
3.01693e-15
1.35789e-16
3.68804e-15
-2.46487e-16
-3.00393e-16
-3.25288e-16
8.40898e-15
1.47275e-16
1.28569e-15
2.17043e-16
6.7131e-15
-1.51842e-17
3.91806e-15
-7.05327e-16
4.92472e-15
-4.98283e-16
5.65174e-15
-3.9418e-16
6.69015e-15
5.32615e-16
7.07119e-15
1.10229e-15
7.01016e-15
-1.90641e-16
6.25307e-15
-5.09441e-16
4.51152e-15
-5.62777e-17
3.43061e-15
-2.46314e-16
1.56677e-15
-8.32227e-16
3.52422e-15
1.09842e-16
9.38223e-16
2.14446e-16
2.79345e-15
1.6513e-16
-2.02107e-14
4.74807e-15
-1.46851e-14
1.10012e-14
8.73903e-15
1.82074e-15
-1.83394e-15
-1.333e-15
3.92899e-15
2.37809e-16
5.99049e-15
1.0185e-16
7.37051e-15
4.83482e-16
8.31807e-15
6.5925e-16
8.33118e-15
1.00529e-15
7.97683e-15
7.30459e-16
8.14679e-15
2.62003e-16
8.13045e-15
1.89904e-16
9.58345e-15
3.89515e-17
8.77831e-15
-2.51508e-16
1.14742e-14
1.97409e-16
6.06801e-15
8.16094e-16
9.43673e-15
1.01494e-15
6.69066e-15
2.61963e-16
8.05825e-15
9.89801e-17
8.74535e-15
1.08908e-16
8.11586e-15
2.2808e-16
7.49817e-15
-9.32441e-17
6.50866e-15
-1.25949e-15
1.57742e-14
-7.5154e-16
8.05151e-16
1.62374e-15
1.085e-14
2.61704e-15
3.75609e-15
5.8628e-16
6.43067e-15
-5.39702e-18
1.29927e-14
7.91429e-16
5.12266e-15
9.72473e-16
7.14873e-15
9.55525e-16
6.76954e-15
1.01364e-15
7.17638e-15
2.8321e-16
6.15399e-15
-5.13088e-18
7.29996e-15
-4.97341e-16
4.85962e-15
-2.60846e-16
6.88259e-15
-2.72923e-16
7.62016e-15
-9.10889e-16
7.15083e-15
-5.57928e-16
6.47468e-15
4.30244e-16
6.7803e-15
5.17863e-16
6.90028e-15
3.51453e-16
5.09437e-15
5.85194e-16
4.53818e-15
8.60319e-17
4.65068e-15
-7.83223e-17
5.61226e-15
5.4847e-16
1.10969e-15
3.45418e-16
6.38683e-15
1.08666e-15
3.42263e-15
-2.05803e-16
1.16615e-14
-4.09706e-17
4.93868e-15
-1.22544e-16
7.49552e-15
2.29329e-16
7.8689e-15
3.07664e-16
8.64853e-15
1.42277e-16
7.37171e-15
-6.87787e-17
9.06614e-15
8.07709e-16
6.77247e-15
6.32055e-16
7.10453e-15
3.17353e-16
4.35647e-15
-1.31024e-16
6.69216e-15
-4.38875e-17
5.4343e-15
-4.27628e-17
6.91951e-15
1.25865e-16
5.30472e-15
1.25241e-16
6.86854e-15
-5.19045e-16
2.21751e-15
-1.82574e-15
1.58637e-14
-4.50755e-16
2.23179e-15
9.81109e-17
8.34513e-15
-8.33086e-16
5.56744e-15
-2.30155e-16
7.60447e-15
8.40766e-16
5.65353e-15
9.9816e-16
7.16505e-15
1.28777e-16
5.56209e-15
-8.25693e-16
4.89613e-15
7.41135e-17
5.21713e-15
-4.47668e-17
6.71056e-15
3.72889e-16
7.1478e-15
-5.31135e-17
8.67967e-15
7.35248e-16
7.69476e-15
1.37835e-15
6.34506e-15
1.32379e-15
6.2531e-15
-1.72799e-16
6.21288e-15
-1.53673e-16
6.61385e-15
-1.51148e-16
6.31427e-15
1.07045e-16
5.06421e-15
-8.35281e-16
5.22549e-15
-1.08168e-15
3.2333e-15
-1.90045e-16
4.0848e-15
5.84257e-16
4.27979e-15
1.53207e-16
5.58214e-15
-6.11059e-16
5.6437e-15
-3.15477e-16
5.48441e-15
2.38413e-18
5.90575e-15
-3.49082e-16
5.66204e-15
-1.88879e-16
5.09875e-15
7.75421e-17
5.49343e-15
-9.06151e-16
6.3701e-15
-2.61296e-16
5.20504e-15
3.76969e-16
6.19116e-15
9.99921e-17
6.8953e-15
-5.76449e-16
-2.47152e-16
2.71147e-17
1.58403e-16
1.39172e-17
6.25991e-17
9.64975e-17
1.42329e-16
1.13323e-16
1.416e-16
7.79119e-17
2.84344e-17
8.22957e-17
2.39234e-17
1.26842e-16
6.10517e-17
1.39282e-16
2.28528e-17
1.63435e-16
3.86074e-17
1.87019e-16
2.84256e-17
1.74481e-16
6.76262e-17
1.51039e-16
4.52688e-17
1.71608e-16
1.0089e-16
6.83721e-16
2.1461e-16
3.29096e-16
7.12034e-17
9.11162e-16
1.76412e-16
1.41877e-16
6.45409e-17
9.58387e-17
4.70023e-17
1.54338e-16
9.14955e-17
2.37406e-16
1.123e-16
2.15358e-16
1.21798e-16
3.00466e-16
3.66264e-17
2.36288e-16
6.88473e-17
2.41025e-16
1.21059e-16
3.2524e-16
2.15809e-17
2.13546e-16
1.28012e-17
6.36121e-16
1.25314e-16
8.26156e-17
5.4356e-17
1.07764e-15
2.23632e-16
2.96617e-16
1.69581e-16
2.00003e-16
1.0772e-16
1.74503e-16
1.02638e-16
2.54934e-16
9.26935e-17
5.71332e-17
1.90448e-16
2.39664e-16
7.22439e-17
3.28596e-16
3.87106e-17
2.64577e-16
1.29705e-16
3.08468e-16
1.94896e-16
3.86208e-16
1.44082e-16
3.18731e-16
1.43796e-16
3.32849e-16
2.65277e-17
3.14496e-16
1.87214e-17
3.95873e-16
2.63046e-17
4.84818e-16
-3.21706e-18
6.36579e-16
-2.32732e-17
4.12874e-16
1.47471e-16
5.05034e-16
1.14762e-16
7.38603e-16
5.34874e-17
7.24332e-16
4.84153e-18
8.50406e-16
1.81855e-16
3.51011e-16
1.66874e-16
3.97713e-16
2.47382e-17
3.75059e-16
4.40544e-17
4.12131e-16
6.81411e-17
3.90831e-16
1.61193e-17
1.78022e-16
-6.25012e-17
1.27667e-16
-1.27257e-17
1.14598e-15
4.57335e-17
7.63e-16
1.37748e-16
5.90082e-16
1.98608e-16
5.31433e-16
1.16666e-16
1.21497e-15
1.26859e-16
3.07848e-16
-1.89348e-17
5.54894e-16
5.19489e-17
9.94046e-16
3.03218e-17
7.08144e-16
8.7834e-17
8.8424e-16
1.08013e-16
6.35916e-16
2.57272e-17
6.25395e-16
7.26627e-18
7.47001e-16
-4.91598e-17
1.05653e-15
-7.25814e-17
1.05104e-15
7.11505e-17
6.6541e-16
1.86782e-16
8.32534e-16
2.71373e-16
7.34203e-16
3.49333e-18
1.42304e-15
-8.40361e-17
9.84328e-16
-7.47544e-17
1.71704e-15
-8.00818e-17
7.58145e-16
4.05888e-17
6.7293e-16
1.49366e-16
7.2423e-16
3.32731e-17
9.03921e-16
-9.43757e-17
1.02007e-15
-3.02637e-17
8.12499e-16
1.95073e-16
9.58233e-16
1.71525e-16
1.04109e-15
1.29547e-16
1.10147e-15
9.46781e-17
8.69248e-16
2.76681e-17
7.73766e-16
1.30769e-16
8.48304e-16
-3.5687e-17
3.18196e-16
-3.01051e-17
8.47515e-16
-1.8161e-17
9.05697e-16
-1.61418e-17
1.76725e-15
1.52968e-16
1.12124e-15
2.02536e-16
1.15954e-15
9.08967e-17
1.34208e-15
-6.04422e-17
1.25538e-15
1.43968e-16
9.2093e-16
2.97534e-16
8.58956e-16
2.54057e-17
9.82347e-16
-3.15742e-16
9.50753e-16
-1.24203e-16
9.61825e-16
-9.20122e-17
9.47991e-16
-8.69031e-17
8.97765e-16
1.46139e-17
7.54875e-16
1.12197e-17
7.56938e-16
-3.3123e-17
9.43452e-16
-6.52081e-17
1.07859e-15
-4.64898e-17
1.19693e-15
8.90339e-17
9.35455e-16
2.50929e-16
1.30851e-15
3.00877e-16
8.84555e-16
-3.47993e-17
1.07265e-15
-1.2137e-16
1.19477e-15
-8.83263e-17
1.09703e-15
-3.29061e-17
1.08547e-15
-8.05042e-17
6.82353e-16
-1.24232e-16
1.07714e-15
-1.26299e-16
6.52249e-16
-4.14423e-17
9.8256e-16
2.80906e-17
1.1718e-15
2.81133e-17
9.05716e-16
-2.67974e-18
1.06057e-15
5.11432e-17
1.06967e-15
-4.3468e-17
1.16145e-15
-2.30356e-16
1.50759e-15
-2.38098e-16
1.68401e-15
-1.6154e-16
1.64079e-15
1.15372e-17
1.90876e-15
-1.11166e-16
2.61313e-15
-2.07553e-16
-1.68171e-16
-2.04402e-16
2.20287e-15
-1.97401e-16
1.33664e-15
-1.86237e-16
1.58633e-15
-1.67792e-16
1.54297e-15
-5.30184e-17
1.80428e-15
1.48248e-16
1.72996e-15
1.51369e-16
1.42457e-15
1.70243e-16
1.60964e-15
-3.28968e-16
2.68616e-15
-5.51071e-16
-4.04475e-16
-1.80874e-16
1.7238e-15
3.30246e-16
1.60355e-15
1.64596e-16
1.61327e-15
2.19346e-16
8.74371e-16
-9.18459e-17
9.49899e-16
-3.51026e-16
8.44164e-16
-1.07025e-16
1.3e-15
1.72927e-16
1.40843e-15
-7.24605e-17
1.61887e-15
-1.6771e-16
2.11532e-15
-1.35766e-16
3.00431e-15
-5.25714e-16
2.84406e-15
-1.67253e-16
1.91576e-15
2.93546e-16
1.38855e-15
2.83899e-16
1.21168e-15
-7.96699e-18
1.29288e-15
-2.52109e-16
1.12751e-15
-8.42667e-17
1.07945e-15
-5.89865e-17
1.30347e-15
-1.304e-16
2.13217e-15
9.62061e-17
3.96013e-16
-1.94971e-17
2.49634e-15
-1.08839e-16
1.49095e-15
-7.14843e-17
1.49796e-15
-2.02451e-17
1.74721e-15
-6.46962e-18
1.85499e-15
4.66074e-17
1.32182e-15
-1.39738e-16
-1.21792e-15
-7.24792e-16
4.96988e-15
-3.96946e-16
-8.86955e-16
1.13398e-16
3.5224e-15
3.21293e-16
1.15027e-15
-1.7822e-16
2.31849e-15
-2.61831e-16
2.76345e-15
-1.8002e-16
3.5064e-15
2.33837e-16
2.02443e-15
2.21686e-16
2.3044e-15
3.08767e-16
1.45581e-15
1.27133e-16
1.32812e-15
-1.716e-16
1.80184e-15
-7.38559e-17
2.40532e-15
2.66868e-16
2.56289e-15
3.77739e-16
2.56463e-15
2.87125e-16
3.09025e-15
4.11831e-16
9.43584e-16
-1.43814e-16
5.99075e-15
6.41055e-16
-3.26008e-15
6.05136e-16
2.28343e-15
4.28645e-15
-4.1499e-15
2.0646e-15
1.82497e-15
6.17962e-16
3.54975e-15
-1.0949e-17
3.34988e-15
1.61672e-15
3.17683e-15
8.85319e-16
2.44619e-15
7.04779e-16
4.2436e-15
1.03314e-15
5.23254e-15
1.89805e-16
4.86174e-15
4.80087e-16
5.67708e-15
6.58283e-16
6.56374e-15
7.19351e-17
7.32078e-15
3.17978e-16
7.0512e-15
2.03e-16
6.81682e-15
-1.36525e-16
6.87084e-15
1.90745e-16
7.2429e-15
3.49489e-16
7.66123e-15
4.4288e-16
7.62563e-15
2.9346e-16
6.55777e-15
5.32557e-16
7.30241e-15
5.36134e-16
7.36572e-15
2.74797e-16
7.74074e-15
1.46498e-16
6.76823e-15
2.91296e-16
7.92371e-15
3.61002e-16
6.94266e-15
3.01939e-16
6.82394e-15
2.65027e-16
6.21529e-15
1.98222e-16
5.74392e-15
2.64494e-16
6.05593e-15
4.01998e-16
6.12564e-15
4.94269e-16
6.61874e-15
6.16232e-16
6.09526e-15
4.27723e-16
7.18882e-15
1.50704e-16
4.87445e-15
-2.43846e-16
7.04071e-15
3.74733e-16
4.31359e-15
4.52423e-16
6.27415e-15
3.68398e-16
3.75218e-15
2.6164e-16
7.71534e-15
9.38472e-16
2.21129e-15
3.13181e-16
4.38332e-15
-2.62999e-16
2.68242e-15
-2.37991e-16
5.66846e-15
-1.89688e-16
4.26619e-15
-3.39972e-16
4.21901e-15
-2.23306e-16
3.11526e-15
2.37666e-16
2.50541e-15
-7.11566e-17
3.16037e-15
-5.76253e-16
4.34227e-15
-6.85683e-16
5.58765e-15
-5.23069e-16
5.56213e-15
-2.31606e-16
5.29233e-15
-3.62772e-17
4.94491e-15
2.68618e-16
4.17383e-15
-2.25715e-17
1.20435e-15
-2.12725e-16
-1.72416e-15
-6.8711e-17
-1.72479e-14
6.65933e-15
2.76312e-15
6.24219e-15
-3.21501e-15
2.12786e-16
3.8761e-15
1.01423e-15
5.23781e-15
9.91519e-16
5.69841e-15
8.98827e-16
5.67786e-15
1.01666e-15
6.16827e-15
4.06722e-16
6.76491e-15
-2.68321e-17
6.77705e-15
5.38385e-17
6.50308e-15
-2.02735e-16
5.06056e-15
-9.9764e-16
8.37001e-15
9.88766e-17
5.27897e-15
3.88727e-16
6.48572e-15
6.14036e-16
7.24295e-15
6.3029e-16
7.75075e-15
1.65148e-16
6.94508e-15
-2.32903e-16
8.94317e-15
2.08578e-16
7.08916e-15
4.34507e-16
7.68346e-15
-1.34435e-16
4.48371e-15
-8.20523e-16
5.73811e-15
2.58226e-16
4.28076e-15
5.10758e-16
5.42347e-15
-1.5605e-16
5.97597e-15
-1.79345e-16
5.80183e-15
6.67784e-16
6.1343e-15
-8.42639e-17
6.32336e-15
-6.1634e-16
6.1819e-15
-1.16183e-15
4.2594e-15
-5.08423e-16
2.40095e-15
1.15288e-16
7.29445e-15
5.04464e-16
3.38682e-15
1.67221e-16
9.30302e-15
2.79085e-16
4.13229e-15
4.97835e-17
8.12417e-15
4.78419e-16
4.47081e-15
3.05999e-17
6.17353e-15
-2.35369e-16
6.6138e-15
-6.01684e-17
6.16749e-15
4.65433e-17
5.86155e-15
-1.60331e-16
6.52242e-15
-9.87169e-16
8.36274e-15
-1.18501e-15
8.7753e-15
7.73377e-16
7.96664e-15
7.07671e-16
8.26919e-15
-8.18542e-16
1.0612e-14
-3.5102e-16
1.48169e-15
-1.01592e-15
8.64084e-15
1.32776e-15
-8.85825e-15
3.6169e-16
3.24017e-15
2.10029e-16
-1.31536e-14
1.9458e-15
-9.72298e-15
8.35562e-15
9.42024e-15
2.52266e-15
2.46458e-15
-2.28735e-15
7.00947e-15
-1.84866e-15
1.01695e-14
-9.06537e-16
1.12673e-14
4.46109e-16
9.18457e-15
1.27387e-15
8.10742e-15
9.15468e-16
8.39388e-15
7.68278e-16
8.50119e-15
5.35105e-16
8.43045e-15
4.97828e-16
8.5637e-15
4.54113e-16
6.96454e-15
3.44679e-17
7.04309e-15
-1.75938e-16
3.89016e-15
3.24851e-16
8.18061e-15
6.34099e-16
7.9796e-15
3.98781e-16
8.81511e-15
7.08024e-16
7.63699e-15
9.69287e-16
7.39544e-15
6.05667e-17
8.49381e-15
-1.10729e-15
7.00585e-15
-9.95285e-16
1.45059e-14
-1.97011e-16
-1.38602e-16
1.4717e-15
3.48773e-15
1.14423e-15
3.97002e-15
3.08004e-16
6.85351e-15
-5.40106e-17
6.73637e-15
3.24491e-16
7.27691e-15
2.32185e-16
8.48089e-15
1.98021e-16
9.53693e-15
6.79726e-16
9.39457e-15
1.66176e-15
8.06218e-15
9.61721e-16
8.21576e-15
5.68537e-17
8.19364e-15
-9.79438e-16
8.49834e-15
-1.16639e-15
8.82521e-15
-6.81769e-16
9.50056e-15
-1.41528e-15
9.51959e-15
-6.37325e-16
8.52854e-15
-1.85527e-16
8.6481e-15
8.68501e-16
7.52502e-15
3.78164e-16
7.57026e-15
-6.61338e-17
6.58913e-15
1.0632e-15
7.38617e-15
8.21719e-16
4.15961e-15
-5.54358e-16
9.63329e-15
-4.29116e-16
3.78278e-15
5.3765e-16
1.19248e-14
5.13577e-16
6.44963e-15
-7.98565e-16
7.85545e-15
-3.37388e-16
8.94417e-15
-4.0888e-16
1.06931e-14
-2.31502e-16
8.80726e-15
3.27692e-16
1.17703e-14
6.65836e-16
9.00758e-15
3.36564e-16
9.46603e-15
2.51422e-16
8.09294e-15
6.36951e-16
6.82338e-15
1.03368e-15
7.19448e-15
3.11661e-16
6.80383e-15
-1.07564e-15
7.94465e-15
-7.98976e-16
1.03221e-14
-5.83643e-16
3.63595e-15
-1.40855e-16
8.2027e-15
2.21529e-16
2.9162e-15
1.20178e-16
4.57252e-15
-1.52757e-16
6.42344e-15
-2.41676e-15
6.99509e-15
-6.10403e-16
8.00054e-15
5.58604e-17
9.78415e-15
-4.26664e-16
8.51072e-15
-9.17428e-16
1.04469e-14
-3.97618e-16
2.22166e-15
-4.34728e-16
1.08964e-14
2.82749e-16
2.91391e-15
3.21478e-16
9.48653e-15
9.76294e-16
4.08135e-15
2.99797e-17
6.35437e-15
1.19757e-15
6.21763e-15
1.52411e-15
5.22779e-15
2.00838e-16
4.75984e-15
-2.41304e-16
4.5892e-15
3.92915e-17
1.77309e-15
-1.33476e-15
6.26615e-15
-1.18043e-15
4.22281e-15
-1.33932e-15
4.61564e-15
-7.68901e-16
4.99629e-15
-1.43573e-16
4.94776e-15
-8.1386e-17
3.87285e-15
1.07561e-16
3.51875e-15
5.17936e-17
4.60226e-15
-9.70059e-16
5.20032e-15
-9.20986e-16
5.43687e-15
-3.99584e-16
5.7561e-15
-2.17272e-16
5.06355e-15
-1.16926e-16
3.95153e-15
1.37044e-16
6.19406e-15
3.4586e-17
6.96314e-15
1.09272e-16
6.87396e-15
3.35576e-16
2.37435e-16
3.78697e-17
2.16541e-16
7.42701e-18
9.34921e-17
8.04882e-18
-2.957e-17
-4.29564e-18
2.824e-18
-1.97037e-17
1.46915e-18
1.24496e-17
1.74722e-17
4.18028e-17
5.65526e-17
5.24953e-17
1.94885e-18
3.3476e-17
1.90728e-17
8.98447e-17
5.12663e-17
1.33264e-16
8.58299e-17
1.11292e-16