/*--------------------------------*- C++ -*----------------------------------*\
  =========                 |
  \\      /  F ield         | OpenFOAM: The Open Source CFD Toolbox
   \\    /   O peration     | Website:  https://openfoam.org
    \\  /    A nd           | Version:  7
     \\/     M anipulation  |
\*---------------------------------------------------------------------------*/
FoamFile
{
    version     2.0;
    format      ascii;
    class       volScalarField;
    location    "2000";
    object      epss;
}
// * * * * * * * * * * * * * * * * * * * * * * * * * * * * * * * * * * * * * //

dimensions      [0 0 0 0 0 0 0];

internalField   nonuniform List<scalar> 
160000
(
0.550485
0.516408
0.54051
0.501298
0.469872
0.542961
0.478003
0.5526
0.522212
0.450499
0.480423
0.520087
0.457267
0.464576
0.570674
0.530125
0.562483
0.557174
0.482457
0.489916
0.505266
0.52315
0.500945
0.462752
0.485459
0.453683
0.451194
0.499154
0.479055
0.536787
0.539392
0.491964
0.412506
0.484532
0.501873
0.475336
0.464224
0.423336
0.552048
0.502407
0.501765
0.503096
0.472475
0.532865
0.469557
0.472913
0.489688
0.546228
0.482468
0.53607
0.497453
0.4172
0.461489
0.493531
0.427946
0.536848
0.433046
0.55618
0.572745
0.532778
0.383303
0.510943
0.515838
0.539809
0.569608
0.435133
0.478591
0.455138
0.587787
0.654317
0.438554
0.554294
0.453905
0.527972
0.475982
0.500026
0.466362
0.511457
0.441456
0.496988
0.433542
0.404695
0.475278
0.504176
0.507639
0.518529
0.517238
0.561854
0.520685
0.470161
0.565833
0.442963
0.422811
0.440181
0.479958
0.557217
0.497312
0.527201
0.520327
0.565598
0.504229
0.597356
0.463642
0.52498
0.572577
0.485084
0.580504
0.489536
0.466853
0.468896
0.43481
0.553679
0.440475
0.517191
0.538219
0.502683
0.55477
0.517371
0.447524
0.478283
0.499039
0.538824
0.480026
0.460779
0.443527
0.392866
0.422514
0.522239
0.493841
0.487839
0.525765
0.559053
0.50098
0.410146
0.463518
0.487384
0.541844
0.504362
0.551669
0.598479
0.494833
0.457767
0.61788
0.488982
0.411726
0.484272
0.479691
0.487696
0.504243
0.555527
0.580173
0.524192
0.575744
0.482723
0.588842
0.498466
0.497877
0.432233
0.481873
0.469647
0.53256
0.507989
0.537753
0.452379
0.585174
0.48655
0.487208
0.546303
0.511023
0.547948
0.433395
0.398816
0.511301
0.410289
0.473433
0.546209
0.50919
0.501327
0.42095
0.433108
0.585955
0.459359
0.5512
0.584883
0.573503
0.560284
0.539703
0.549836
0.583206
0.514671
0.487099
0.517662
0.48556
0.447744
0.384414
0.60171
0.52514
0.370809
0.298065
0.300129
0.346178
0.41547
0.483623
0.534162
0.510346
0.422586
0.405692
0.428807
0.443751
0.456588
0.45051
0.451673
0.503589
0.512941
0.475389
0.499787
0.553522
0.495167
0.413364
0.427615
0.43313
0.483559
0.603999
0.596136
0.573046
0.544056
0.482745
0.583465
0.488772
0.522288
0.637425
0.533742
0.565507
0.495081
0.503543
0.48329
0.562833
0.501896
0.573813
0.515284
0.549954
0.578673
0.53463
0.561724
0.516051
0.529715
0.493925
0.489794
0.352843
0.361516
0.371171
0.423923
0.509284
0.551676
0.563392
0.493939
0.527178
0.601389
0.527647
0.358609
0.319218
0.467898
0.548051
0.606919
0.55448
0.466163
0.474469
0.578458
0.511757
0.385533
0.510425
0.544571
0.501884
0.529073
0.571008
0.589209
0.512466
0.395917
0.480199
0.5033
0.551332
0.535529
0.513127
0.483204
0.480766
0.506068
0.458104
0.54584
0.523788
0.506011
0.508908
0.638669
0.551031
0.513354
0.491689
0.479587
0.463491
0.602875
0.499387
0.548366
0.433521
0.328038
0.279681
0.310495
0.360058
0.4223
0.468914
0.491159
0.531818
0.523643
0.504152
0.548439
0.540654
0.459789
0.446122
0.423814
0.433263
0.545819
0.590411
0.553184
0.58527
0.569354
0.566378
0.451866
0.414451
0.417688
0.431903
0.441626
0.460045
0.487704
0.537288
0.496606
0.514816
0.525081
0.514557
0.523365
0.529233
0.49158
0.388329
0.472821
0.595732
0.554892
0.525681
0.556031
0.441864
0.527889
0.50701
0.444491
0.4473
0.458895
0.488587
0.552501
0.507029
0.532877
0.505897
0.514049
0.488593
0.494346
0.50468
0.552325
0.556719
0.550713
0.507379
0.539244
0.466907
0.460279
0.512821
0.380517
0.417427
0.505434
0.534187
0.498549
0.500438
0.395112
0.535965
0.442034
0.537665
0.533331
0.565972
0.546307
0.532362
0.53834
0.541932
0.492416
0.4743
0.46783
0.451502
0.462416
0.502336
0.523516
0.496168
0.525271
0.482157
0.511461
0.562898
0.437994
0.48612
0.6015
0.406718
0.459401
0.422407
0.570038
0.51291
0.548458
0.562884
0.533894
0.482787
0.514216
0.508289
0.49405
0.479206
0.529034
0.510729
0.492462
0.449493
0.543223
0.538782
0.415815
0.427785
0.472364
0.528239
0.509943
0.465608
0.468321
0.564105
0.510611
0.404454
0.424388
0.497041
0.452406
0.48192
0.524478
0.497955
0.524953
0.558544
0.465731
0.424558
0.643087
0.476558
0.421966
0.494823
0.539602
0.473133
0.559482
0.472244
0.423781
0.496337
0.560419
0.491451
0.439187
0.520093
0.487655
0.521364
0.397192
0.582301
0.4926
0.467173
0.542718
0.518393
0.511634
0.505291
0.481347
0.539537
0.549299
0.494103
0.509757
0.563377
0.447893
0.454673
0.412596
0.426526
0.473485
0.564945
0.510799
0.519257
0.472309
0.519423
0.516574
0.525855
0.448906
0.467002
0.497686
0.492956
0.495258
0.406718
0.407439
0.538372
0.517328
0.502009
0.465291
0.437532
0.474967
0.407803
0.447512
0.537831
0.479205
0.504111
0.481866
0.491251
0.550323
0.474947
0.503338
0.567254
0.416211
0.480078
0.540085
0.458948
0.429585
0.476201
0.465084
0.48337
0.562675
0.533517
0.543696
0.519706
0.508485
0.507686
0.481366
0.46744
0.413864
0.420186
0.494561
0.497616
0.496788
0.507742
0.493236
0.500587
0.538114
0.492675
0.526142
0.537416
0.614225
0.427281
0.398182
0.456794
0.56586
0.408054
0.522724
0.575043
0.540108
0.493281
0.464028
0.480755
0.457577
0.451276
0.543339
0.487798
0.518952
0.534233
0.581085
0.431771
0.569927
0.561365
0.514355
0.506119
0.456729
0.521247
0.466933
0.544466
0.481321
0.497018
0.466671
0.497217
0.517567
0.536371
0.489851
0.444126
0.520478
0.490057
0.496602
0.489734
0.502646
0.578012
0.425662
0.505477
0.495097
0.484075
0.51837
0.492423
0.524927
0.539056
0.505344
0.559855
0.619849
0.501822
0.52289
0.515674
0.58073
0.518399
0.407864
0.367337
0.401878
0.452897
0.400381
0.490372
0.454933
0.315043
0.272515
0.318373
0.386136
0.43389
0.480601
0.518549
0.50163
0.419892
0.366875
0.412247
0.478472
0.512193
0.499203
0.498702
0.544643
0.552084
0.510811
0.521676
0.548475
0.527546
0.487979
0.483492
0.548562
0.594192
0.653126
0.612732
0.581999
0.52188
0.493877
0.460707
0.541939
0.475714
0.509907
0.504144
0.509087
0.40833
0.407164
0.548892
0.543572
0.512419
0.499702
0.569725
0.541611
0.578502
0.587327
0.494623
0.488028
0.589843
0.465176
0.424977
0.315419
0.272218
0.324284
0.412248
0.47061
0.462894
0.498934
0.525432
0.491693
0.552666
0.52519
0.415888
0.366118
0.495395
0.587186
0.58052
0.555895
0.487505
0.459046
0.586961
0.553076
0.399218
0.391286
0.517508
0.503501
0.481462
0.566391
0.574523
0.548628
0.449507
0.418233
0.496845
0.538003
0.515663
0.495962
0.463674
0.423368
0.442359
0.497303
0.54414
0.578132
0.576867
0.560969
0.623232
0.564915
0.507332
0.490574
0.609186
0.509188
0.458534
0.498479
0.497874
0.329753
0.26897
0.292273
0.377592
0.455528
0.512461
0.5526
0.567043
0.54536
0.551623
0.540381
0.536242
0.539698
0.497808
0.450038
0.439424
0.480578
0.576789
0.618352
0.573815
0.558466
0.558605
0.555596
0.464604
0.338928
0.339979
0.425736
0.458569
0.426793
0.461298
0.527774
0.514808
0.49844
0.536072
0.51405
0.49418
0.531036
0.530662
0.484928
0.502498
0.55293
0.540541
0.485702
0.51757
0.506057
0.488668
0.469751
0.47878
0.483231
0.50457
0.508314
0.55842
0.556665
0.548874
0.493646
0.5215
0.554132
0.543963
0.531958
0.542063
0.541691
0.542562
0.517638
0.521136
0.510962
0.431382
0.459476
0.453655
0.434561
0.525886
0.562891
0.548416
0.579463
0.54109
0.563111
0.510702
0.564787
0.523599
0.490304
0.553612
0.515188
0.452424
0.608778
0.429388
0.514711
0.588734
0.474134
0.521752
0.549592
0.512181
0.459095
0.542258
0.493622
0.458328
0.524894
0.550044
0.442679
0.589718
0.505735
0.573647
0.472208
0.59209
0.609566
0.48059
0.578226
0.452246
0.586677
0.512657
0.459114
0.553209
0.461202
0.410203
0.471075
0.521427
0.452937
0.399292
0.477848
0.405421
0.448531
0.526177
0.459065
0.50757
0.492126
0.535033
0.563719
0.554324
0.51943
0.500531
0.494525
0.402208
0.491531
0.514783
0.478216
0.482456
0.47011
0.566508
0.525167
0.496168
0.53292
0.535808
0.519048
0.493915
0.496681
0.495452
0.513958
0.401987
0.532061
0.558479
0.553445
0.481633
0.408682
0.495733
0.547959
0.54103
0.511189
0.484038
0.478389
0.415126
0.445413
0.398733
0.526465
0.527727
0.514397
0.453171
0.556554
0.544099
0.455936
0.551169
0.559453
0.605833
0.510372
0.595804
0.472564
0.489167
0.591444
0.553638
0.497827
0.49633
0.466742
0.416114
0.492055
0.463815
0.451736
0.449642
0.543065
0.480087
0.527044
0.463668
0.455399
0.530513
0.561404
0.470171
0.527179
0.58151
0.513784
0.586594
0.605681
0.537199
0.517798
0.50824
0.53663
0.546053
0.472932
0.530417
0.496893
0.45388
0.490387
0.493283
0.54629
0.506403
0.456584
0.515241
0.502965
0.525348
0.570267
0.500769
0.524417
0.510762
0.486253
0.493165
0.510055
0.549498
0.54739
0.519643
0.531959
0.547469
0.541106
0.562746
0.523208
0.510466
0.556719
0.532484
0.453246
0.440302
0.500134
0.503593
0.521563
0.504001
0.489198
0.527913
0.529263
0.470827
0.390891
0.483402
0.492507
0.450424
0.506421
0.511266
0.504601
0.516067
0.543896
0.486464
0.533456
0.516377
0.423154
0.425293
0.552979
0.494518
0.507165
0.530736
0.535486
0.57339
0.496276
0.49998
0.500665
0.508886
0.509827
0.514085
0.531616
0.484537
0.438
0.456515
0.462442
0.488234
0.541834
0.614307
0.534114
0.464207
0.4707
0.538737
0.530221
0.554406
0.594386
0.569645
0.520292
0.545624
0.527398
0.51931
0.467427
0.364863
0.271766
0.316316
0.437181
0.460943
0.433666
0.438985
0.400227
0.379926
0.419206
0.445827
0.470214
0.501559
0.510776
0.495331
0.466757
0.47142
0.490564
0.532235
0.551062
0.521924
0.517423
0.560207
0.572526
0.535274
0.53668
0.559796
0.551209
0.519163
0.514848
0.553334
0.591918
0.585512
0.552679
0.537562
0.507565
0.498703
0.488888
0.529792
0.523848
0.459978
0.510829
0.551304
0.502574
0.464022
0.563319
0.534292
0.491318
0.555909
0.582725
0.561937
0.494204
0.468026
0.508678
0.48918
0.541792
0.483011
0.463975
0.305338
0.249883
0.336136
0.452506
0.502401
0.505826
0.500677
0.533531
0.548913
0.539452
0.550117
0.51984
0.473846
0.506266
0.565413
0.549696
0.539181
0.519774
0.503435
0.527452
0.52946
0.468991
0.457664
0.533
0.568757
0.507475
0.482899
0.508101
0.499341
0.501754
0.447136
0.43295
0.499927
0.486291
0.475833
0.452409
0.468329
0.508779
0.56986
0.557588
0.541554
0.547102
0.537508
0.538298
0.525518
0.549175
0.581882
0.568976
0.462876
0.332673
0.358912
0.46018
0.343078
0.283925
0.339643
0.44004
0.517385
0.54211
0.521181
0.50008
0.497856
0.528201
0.557108
0.53231
0.513516
0.51892
0.512148
0.495573
0.526664
0.580313
0.571623
0.523785
0.513952
0.531026
0.517608
0.448708
0.380239
0.379344
0.463843
0.518898
0.521282
0.525014
0.542485
0.548627
0.521177
0.496871
0.548433
0.555484
0.557078
0.571747
0.539625
0.503871
0.509364
0.510791
0.513401
0.535045
0.500083
0.464725
0.491868
0.491941
0.464303
0.485015
0.564037
0.596225
0.536318
0.515268
0.473302
0.474291
0.545162
0.549946
0.509404
0.4905
0.540432
0.60334
0.568028
0.5146
0.469015
0.466837
0.47053
0.565418
0.538828
0.504682
0.550226
0.528353
0.483646
0.464314
0.479824
0.481538
0.488827
0.51077
0.527909
0.569667
0.564292
0.504318
0.565116
0.533747
0.499467
0.477433
0.531905
0.564885
0.490218
0.485498
0.478396
0.512772
0.560841
0.472423
0.475471
0.508237
0.476094
0.508635
0.57972
0.49549
0.504037
0.543838
0.438949
0.447407
0.436534
0.426569
0.420059
0.426921
0.467848
0.422917
0.473386
0.439944
0.523467
0.510977
0.502613
0.530251
0.413176
0.472422
0.441958
0.460508
0.484341
0.4755
0.545223
0.409946
0.545967
0.489001
0.408677
0.553441
0.524341
0.471818
0.529266
0.634401
0.562908
0.53339
0.488873
0.465725
0.447154
0.477116
0.455827
0.599321
0.51796
0.416447
0.413416
0.469275
0.490145
0.484497
0.456938
0.497495
0.489856
0.529466
0.503335
0.535699
0.430796
0.461366
0.592765
0.474123
0.50175
0.535244
0.549113
0.505783
0.52257
0.459052
0.50092
0.431889
0.5135
0.538129
0.518181
0.497369
0.499832
0.515134
0.475953
0.460616
0.586183
0.568821
0.536281
0.469352
0.415456
0.452208
0.548401
0.465385
0.508464
0.610878
0.443061
0.474865
0.501981
0.528803
0.434334
0.432295
0.443985
0.422325
0.508536
0.418554
0.54412
0.463911
0.505043
0.512281
0.549782
0.459013
0.561106
0.556153
0.508213
0.426968
0.510338
0.487599
0.457457
0.489456
0.450901
0.437526
0.473874
0.501506
0.49319
0.481856
0.538957
0.465588
0.501446
0.544172
0.528021
0.487893
0.484799
0.451581
0.455382
0.523219
0.528285
0.533211
0.491424
0.5852
0.49419
0.471536
0.463468
0.51813
0.54068
0.509884
0.527922
0.477931
0.510055
0.49598
0.482163
0.543419
0.494654
0.503547
0.528676
0.521922
0.469342
0.58432
0.527618
0.472819
0.475545
0.446929
0.492583
0.530189
0.564138
0.460923
0.525169
0.51527
0.553976
0.553416
0.518825
0.519903
0.455313
0.46392
0.538849
0.499254
0.491404
0.480162
0.471263
0.484874
0.543519
0.524626
0.489495
0.445269
0.408423
0.389615
0.440548
0.524159
0.510117
0.466015
0.495578
0.494883
0.493864
0.55205
0.567353
0.522749
0.516582
0.607022
0.610503
0.527927
0.507813
0.500002
0.483764
0.334757
0.270454
0.321001
0.441324
0.478847
0.436273
0.423868
0.44603
0.475838
0.494746
0.480534
0.475941
0.486662
0.516985
0.546076
0.534138
0.490153
0.484466
0.498281
0.525232
0.528794
0.513549
0.541812
0.573393
0.533703
0.488378
0.50224
0.523812
0.529495
0.548987
0.554309
0.562875
0.551835
0.514154
0.495567
0.491816
0.483277
0.49628
0.510671
0.539561
0.548706
0.544828
0.553898
0.533263
0.537014
0.606422
0.592615
0.561559
0.554871
0.533025
0.510088
0.549839
0.56083
0.567423
0.591377
0.529567
0.503657
0.465712
0.339775
0.274911
0.327148
0.44335
0.515532
0.538384
0.504401
0.528318
0.566305
0.540048
0.52195
0.506845
0.478564
0.479153
0.520893
0.550677
0.535918
0.505312
0.4844
0.500907
0.527508
0.546421
0.494602
0.470694
0.47188
0.425155
0.420888
0.514452
0.596944
0.584892
0.519935
0.458505
0.461885
0.477037
0.488389
0.508909
0.528053
0.53541
0.527341
0.51012
0.540564
0.566966
0.560767
0.507724
0.486964
0.551733
0.573729
0.537012
0.442957
0.337047
0.334192
0.422693
0.42867
0.382795
0.416395
0.49211
0.551464
0.552186
0.50229
0.483142
0.503017
0.502754
0.510155
0.523076
0.509727
0.519143
0.536683
0.514502
0.498674
0.518577
0.533057
0.539924
0.577475
0.558191
0.509192
0.474481
0.462515
0.476987
0.50967
0.55348
0.559332
0.550701
0.54712
0.514901
0.525561
0.540151
0.532287
0.516964
0.507897
0.459338
0.463682
0.466171
0.435898
0.444786
0.515834
0.53767
0.534916
0.53733
0.492005
0.455387
0.467427
0.540732
0.562781
0.571614
0.580808
0.567805
0.566459
0.556588
0.517948
0.534493
0.515936
0.528939
0.513643
0.494657
0.478717
0.51902
0.517394
0.51464
0.524731
0.477882
0.57079
0.560339
0.525561
0.539129
0.4919
0.487584
0.528492
0.506538
0.524589
0.517536
0.50637
0.569788
0.608521
0.533734
0.484951
0.501743
0.616152
0.452443
0.440225
0.499436
0.550627
0.526595
0.482728
0.557264
0.477826
0.525558
0.568721
0.587999
0.513074
0.539848
0.550974
0.561366
0.527495
0.494128
0.474217
0.465233
0.450802
0.427289
0.491111
0.504463
0.509856
0.558291
0.474874
0.49265
0.555836
0.539807
0.647888
0.444677
0.394651
0.524878
0.572197
0.45609
0.46417
0.424105
0.401464
0.514851
0.536767
0.581785
0.531284
0.526449
0.593917
0.476407
0.431627
0.505457
0.467537
0.481388
0.558355
0.505141
0.446815
0.490103
0.57945
0.529039
0.490945
0.422912
0.459375
0.519113
0.445292
0.514244
0.545716
0.536585
0.489118
0.528287
0.463605
0.39317
0.491362
0.481575
0.480898
0.503275
0.54332
0.501129
0.479088
0.545477
0.49098
0.487211
0.554631
0.519306
0.52452
0.51255
0.559985
0.547059
0.463414
0.486049
0.467814
0.522304
0.485533
0.541943
0.547006
0.468726
0.494334
0.453041
0.438581
0.512874
0.490448
0.500598
0.404103
0.552946
0.525528
0.496375
0.514498
0.485876
0.449859
0.503771
0.502376
0.505254
0.500271
0.517073
0.5374
0.505507
0.50551
0.535685
0.48279
0.48761
0.524225
0.547725
0.464312
0.438471
0.479194
0.569842
0.453607
0.469071
0.43762
0.447329
0.506836
0.498837
0.496224
0.525619
0.521086
0.451101
0.41483
0.44489
0.565745
0.54575
0.431599
0.485611
0.525335
0.485645
0.518527
0.507437
0.510085
0.44381
0.479421
0.548869
0.547002
0.524004
0.5036
0.53989
0.476659
0.472953
0.481025
0.525075
0.504511
0.543199
0.52696
0.460609
0.463309
0.467123
0.493162
0.45154
0.52266
0.49997
0.475313
0.533638
0.551323
0.502169
0.517964
0.531965
0.518116
0.490623
0.461443
0.469664
0.461035
0.471789
0.549961
0.577281
0.508607
0.466253
0.457153
0.459168
0.514756
0.569511
0.531438
0.434563
0.429889
0.467046
0.461447
0.522308
0.511622
0.515396
0.546922
0.500795
0.504788
0.522845
0.525981
0.533155
0.533093
0.507152
0.495993
0.540457
0.576625
0.591248
0.459619
0.287835
0.241031
0.325927
0.442836
0.504185
0.518284
0.50258
0.50096
0.542847
0.570202
0.537727
0.493753
0.46311
0.468856
0.500507
0.509738
0.497761
0.48143
0.479067
0.50091
0.53593
0.54399
0.522185
0.504797
0.469187
0.433502
0.454527
0.489322
0.526646
0.549385
0.525808
0.50837
0.503653
0.486694
0.491866
0.51183
0.514904
0.512967
0.535036
0.55393
0.54138
0.532698
0.519489
0.540492
0.520215
0.528833
0.580689
0.554422
0.506481
0.517652
0.542721
0.560482
0.564691
0.500027
0.454123
0.459573
0.463314
0.441644
0.355599
0.313027
0.355628
0.444864
0.528803
0.560058
0.548779
0.54914
0.547524
0.538517
0.526401
0.507848
0.504021
0.500428
0.502405
0.525088
0.550599
0.559278
0.542308
0.517428
0.52506
0.547673
0.502819
0.401906
0.395187
0.455238
0.488975
0.53524
0.584541
0.54154
0.483194
0.451333
0.439399
0.465182
0.500918
0.536481
0.561694
0.546246
0.531405
0.548445
0.560495
0.532543
0.475817
0.482245
0.529477
0.571436
0.574428
0.546754
0.471175
0.359188
0.342585
0.407524
0.441146
0.451785
0.48085
0.507843
0.511525
0.497055
0.477239
0.482899
0.497588
0.515252
0.555375
0.572766
0.548122
0.5074
0.490613
0.460415
0.42286
0.423385
0.462624
0.491725
0.488144
0.48126
0.477562
0.451982
0.434231
0.445998
0.47315
0.516433
0.564664
0.555877
0.52338
0.502542
0.476815
0.506973
0.546578
0.555727
0.508492
0.485219
0.51491
0.530871
0.497884
0.470423
0.506233
0.540489
0.516875
0.474246
0.469479
0.47666
0.524174
0.578395
0.562195
0.558646
0.563741
0.579774
0.531688
0.502386
0.517513
0.520729
0.544242
0.527835
0.506892
0.502607
0.521232
0.509618
0.521356
0.525302
0.508253
0.494997
0.470805
0.469296
0.485536
0.520573
0.491854
0.532849
0.518901
0.503751
0.506852
0.558454
0.629931
0.58431
0.48864
0.557912
0.522121
0.47753
0.475403
0.502018
0.458079
0.470908
0.571053
0.552773
0.501006
0.433236
0.480399
0.52184
0.498087
0.511774
0.481345
0.565074
0.610576
0.515784
0.521078
0.504131
0.650079
0.489774
0.565716
0.567416
0.436038
0.47703
0.528903
0.48274
0.565255
0.54664
0.611666
0.531046
0.46693
0.541483
0.435751
0.451637
0.440023
0.402418
0.526867
0.517071
0.492676
0.444217
0.459468
0.436155
0.507569
0.584231
0.533597
0.522827
0.612447
0.519652
0.569697
0.407432
0.508644
0.505408
0.486304
0.490125
0.450583
0.531332
0.52837
0.491384
0.447306
0.444927
0.499941
0.483554
0.538182
0.532997
0.493814
0.490641
0.507026
0.502124
0.483441
0.403812
0.4572
0.538527
0.487958
0.472461
0.526711
0.488549
0.472818
0.499748
0.536411
0.500147
0.516411
0.560282
0.469702
0.533769
0.49141
0.407338
0.455026
0.505809
0.470433
0.418608
0.475701
0.441159
0.436281
0.510729
0.506206
0.421362
0.473037
0.508213
0.532078
0.536874
0.485296
0.473881
0.509942
0.514129
0.468132
0.450296
0.469142
0.41192
0.437211
0.479582
0.543144
0.492262
0.435317
0.504045
0.534605
0.501044
0.587316
0.577675
0.505059
0.574003
0.539599
0.523434
0.468483
0.437641
0.499559
0.515056
0.552114
0.500524
0.455515
0.451426
0.502867
0.552601
0.555712
0.49606
0.517214
0.551683
0.550724
0.55627
0.455476
0.455367
0.494165
0.422197
0.493946
0.434284
0.448767
0.486356
0.469473
0.485954
0.496851
0.50031
0.481984
0.449229
0.504687
0.549582
0.534104
0.453004
0.509745
0.499388
0.510609
0.49776
0.508325
0.521493
0.480317
0.453223
0.509506
0.532901
0.483097
0.465378
0.482106
0.541126
0.534246
0.528263
0.479227
0.51146
0.490162
0.527569
0.546769
0.504339
0.49687
0.449588
0.43389
0.441706
0.498094
0.489795
0.493232
0.50651
0.504725
0.525952
0.562566
0.547385
0.556096
0.573665
0.502268
0.465585
0.490923
0.538575
0.505789
0.514219
0.509132
0.461406
0.483021
0.548313
0.558206
0.540414
0.419274
0.240706
0.214134
0.320981
0.449706
0.515625
0.499438
0.482807
0.496032
0.511641
0.526818
0.543316
0.523474
0.47907
0.458616
0.46072
0.47357
0.491477
0.498803
0.488449
0.500354
0.533835
0.540912
0.517155
0.4958
0.497423
0.490515
0.476861
0.489439
0.507549
0.516629
0.515343
0.504228
0.484307
0.491034
0.532252
0.572954
0.583833
0.564788
0.530987
0.528536
0.540663
0.5481
0.529469
0.511015
0.501562
0.548818
0.602103
0.556218
0.486012
0.492479
0.540021
0.556116
0.544841
0.513411
0.46909
0.483818
0.504735
0.457733
0.392319
0.366164
0.408497
0.45208
0.472402
0.50429
0.543998
0.551802
0.528992
0.507124
0.499866
0.509214
0.522222
0.536306
0.5378
0.55044
0.550963
0.503391
0.471246
0.47709
0.504401
0.51397
0.467738
0.389501
0.375063
0.449433
0.512931
0.535503
0.538329
0.537667
0.504228
0.454
0.432997
0.454079
0.506659
0.53264
0.527004
0.503073
0.486079
0.484435
0.491562
0.495973
0.506211
0.524743
0.519064
0.496756
0.490532
0.496545
0.474085
0.385676
0.356725
0.42698
0.488116
0.507486
0.510114
0.536066
0.557668
0.539718
0.507549
0.48915
0.496611
0.525068
0.53276
0.541826
0.541288
0.499608
0.453244
0.438843
0.430766
0.424841
0.459235
0.523534
0.567978
0.563988
0.528505
0.509059
0.500739
0.513776
0.536556
0.556798
0.56454
0.548629
0.503003
0.49273
0.522269
0.529996
0.518177
0.556563
0.577353
0.541063
0.503335
0.509051
0.509042
0.498117
0.509389
0.538255
0.539793
0.497426
0.509631
0.538833
0.510444
0.478231
0.507076
0.544794
0.53987
0.504355
0.480615
0.504302
0.502913
0.459053
0.485001
0.513301
0.516292
0.516457
0.502273
0.514003
0.534505
0.543659
0.497832
0.506644
0.491582
0.462326
0.500605
0.544373
0.585028
0.531983
0.467514
0.452234
0.518749
0.487104
0.494746
0.514128
0.514288
0.45507
0.541786
0.544177
0.512078
0.494632
0.513926
0.61365
0.54761
0.571838
0.643262
0.553364
0.501563
0.524967
0.485337
0.474294
0.544316
0.496653
0.576465
0.537846
0.413831
0.424227
0.491705
0.549955
0.525164
0.528199
0.527536
0.501592
0.469702
0.455538
0.371646
0.452841
0.473167
0.519543
0.500098
0.541795
0.467498
0.440631
0.464717
0.513116
0.500132
0.549219
0.498328
0.534595
0.426131
0.372926
0.495848
0.535405
0.528075
0.452124
0.43784
0.53257
0.459828
0.523741
0.442757
0.475296
0.463215
0.563609
0.499082
0.534939
0.431161
0.444585
0.435542
0.520331
0.501332
0.440406
0.44412
0.522768
0.528443
0.481694
0.528524
0.559112
0.506263
0.525988
0.467875
0.42921
0.524588
0.484037
0.450058
0.505517
0.515857
0.469712
0.521114
0.524804
0.538898
0.563218
0.521256
0.455437
0.439376
0.556879
0.535752
0.448033
0.471019
0.508544
0.553236
0.505192
0.440115
0.43607
0.476083
0.449233
0.486916
0.503204
0.46922
0.509474
0.524341
0.511362
0.537569
0.577576
0.444288
0.476469
0.489414
0.494206
0.500737
0.502405
0.468388
0.53879
0.488666
0.449187
0.483495
0.530424
0.59224
0.484609
0.417066
0.516356
0.561636
0.470538
0.465082
0.425701
0.454077
0.484936
0.460112
0.505869
0.55809
0.456569
0.478403
0.569896
0.550748
0.486872
0.463066
0.48007
0.552023
0.553495
0.445152
0.438206
0.418634
0.456439
0.480981
0.529613
0.480957
0.444237
0.50173
0.478488
0.456106
0.493039
0.519201
0.538888
0.54045
0.525376
0.542264
0.457747
0.456199
0.438296
0.464579
0.525396
0.523938
0.551286
0.513347
0.489996
0.471568
0.470785
0.458828
0.48494
0.535313
0.55135
0.538805
0.436279
0.491427
0.511873
0.488107
0.516559
0.556481
0.575014
0.511042
0.477886
0.440545
0.398755
0.440814
0.543027
0.53411
0.506405
0.494506
0.506979
0.500207
0.519347
0.517832
0.470481
0.508873
0.538476
0.481269
0.469272
0.49176
0.496235
0.491296
0.500189
0.493287
0.540029
0.561099
0.556026
0.419975
0.236699
0.222053
0.361519
0.469111
0.519017
0.531568
0.525765
0.519688
0.503439
0.466318
0.456768
0.481891
0.489563
0.474768
0.46255
0.473639
0.509782
0.537684
0.534509
0.508012
0.498501
0.484555
0.480558
0.514432
0.534216
0.492788
0.462711
0.493117
0.526117
0.505248
0.498877
0.526078
0.534775
0.502465
0.487006
0.520102
0.531073
0.519961
0.522581
0.542032
0.535124
0.496495
0.500299
0.532871
0.558535
0.556676
0.564967
0.55129
0.513414
0.487891
0.488796
0.49479
0.479062
0.442526
0.399074
0.402339
0.442303
0.445312
0.411555
0.396022
0.419293
0.451274
0.499137
0.547761
0.588496
0.592246
0.565749
0.546844
0.540239
0.544466
0.538713
0.515331
0.492799
0.492804
0.497888
0.48894
0.478632
0.493971
0.51799
0.499958
0.460808
0.433801
0.442094
0.490503
0.532886
0.545754
0.541573
0.537818
0.539581
0.518655
0.468784
0.447462
0.467
0.487653
0.482645
0.492757
0.520592
0.534626
0.529973
0.517194
0.519608
0.535833
0.548171
0.554451
0.532804
0.514152
0.50509
0.431527
0.359474
0.400551
0.487102
0.526794
0.520948
0.508313
0.519558
0.513962
0.490755
0.501361
0.524357
0.52666
0.519137
0.51633
0.527568
0.51801
0.474313
0.45704
0.491366
0.528433
0.540432
0.543285
0.545309
0.511219
0.490855
0.510101
0.512017
0.505703
0.49812
0.485387
0.493742
0.508274
0.514311
0.504944
0.488183
0.461661
0.456156
0.462384
0.488328
0.514724
0.515408
0.518296
0.526756
0.509384
0.479812
0.500707
0.551239
0.534816
0.494855
0.509458
0.538439
0.545254
0.53931
0.5423
0.559516
0.569231
0.538276
0.484158
0.475187
0.52679
0.541824
0.534249
0.540143
0.511351
0.502631
0.526211
0.531796
0.499157
0.505571
0.494615
0.515967
0.500375
0.461965
0.463287
0.500294
0.497147
0.51478
0.551308
0.537802
0.514933
0.517722
0.509211
0.540447
0.597156
0.565511
0.496668
0.479603
0.49019
0.544555
0.55835
0.547063
0.47057
0.553679
0.562726
0.48387
0.432916
0.466116
0.491737
0.538116
0.487943
0.557623
0.550903
0.601186
0.497157
0.521543
0.471009
0.570882
0.447745
0.550672
0.493689
0.577405
0.467554
0.469184
0.509972
0.4901
0.44767
0.461242
0.529723
0.533461
0.627195
0.475048
0.524491
0.492273
0.569537
0.446322
0.456709
0.518592
0.587073
0.492037
0.524993
0.482653
0.509278
0.4961
0.483673
0.3661
0.491322
0.488631
0.45849
0.494882
0.532497
0.509406
0.459247
0.48594
0.511926
0.522913
0.563765
0.50222
0.523478
0.5052
0.457652
0.454258
0.482556
0.416828
0.468172
0.448367
0.458311
0.42494
0.481471
0.49042
0.471015
0.485259
0.54473
0.49262
0.546866
0.491781
0.50388
0.503873
0.449456
0.484272
0.488131
0.452666
0.479372
0.510355
0.490269
0.446226
0.435255
0.482978
0.501866
0.470235
0.422979
0.498359
0.55003
0.552464
0.51504
0.474763
0.538775
0.520658
0.499771
0.496982
0.507115
0.448883
0.509592
0.488693
0.527996
0.507531
0.450179
0.496797
0.560902
0.547046
0.515226
0.486333
0.490711
0.479307
0.465528
0.50451
0.489039
0.451917
0.450489
0.499784
0.536322
0.497542
0.534497
0.557988
0.501008
0.517747
0.490687
0.435923
0.493941
0.507821
0.559892
0.588038
0.570717
0.542495
0.516788
0.477326
0.434791
0.503821
0.516793
0.487302
0.522098
0.521938
0.427534
0.450094
0.56145
0.579204
0.506375
0.426183
0.454839
0.559601
0.58803
0.508201
0.432125
0.428802
0.492983
0.463554
0.492914
0.548864
0.542809
0.48452
0.489848
0.520469
0.473999
0.451704
0.510281
0.589718
0.533961
0.495571
0.510553
0.51475
0.54436
0.492026
0.45258
0.527517
0.569028
0.554547
0.52229
0.511557
0.464226
0.44855
0.510379
0.567563
0.496223
0.461798
0.489968
0.528266
0.48153
0.433072
0.477918
0.568234
0.524006
0.457666
0.467252
0.555826
0.577763
0.545078
0.505324
0.541265
0.580341
0.570439
0.511401
0.388504
0.239887
0.218541
0.346395
0.482087
0.542274
0.536803
0.51307
0.520056
0.559735
0.571715
0.519156
0.470745
0.466896
0.486337
0.498216
0.485846
0.484793
0.502018
0.515626
0.513684
0.495096
0.48065
0.465575
0.455441
0.467028
0.500138
0.52471
0.552116
0.56603
0.55172
0.525183
0.504892
0.495778
0.481044
0.474358
0.482757
0.49117
0.50514
0.519029
0.51331
0.468077
0.443677
0.495346
0.535881
0.524362
0.512021
0.503939
0.520738
0.534039
0.49339
0.464471
0.488978
0.517451
0.508171
0.47873
0.472068
0.491349
0.486528
0.457035
0.453533
0.478846
0.51063
0.532253
0.554277
0.574999
0.565584
0.554066
0.569774
0.57951
0.562818
0.534711
0.494678
0.47784
0.498497
0.506583
0.498987
0.500271
0.508489
0.520888
0.528961
0.50297
0.448882
0.434173
0.495783
0.558462
0.557209
0.520456
0.511416
0.549547
0.584671
0.569899
0.526344
0.511236
0.511614
0.523389
0.531711
0.529096
0.523772
0.524584
0.518347
0.514387
0.531518
0.519879
0.474945
0.441488
0.451645
0.493934
0.492219
0.418332
0.380406
0.420322
0.499902
0.58305
0.61106
0.581994
0.530525
0.488642
0.482764
0.519344
0.566269
0.580225
0.549884
0.50212
0.483242
0.491583
0.507819
0.518947
0.538681
0.555036
0.547252
0.516981
0.502658
0.535444
0.572776
0.564695
0.520676
0.481441
0.477134
0.479771
0.490164
0.514838
0.506092
0.485277
0.475773
0.480397
0.517311
0.572067
0.560414
0.504992
0.497647
0.504511
0.501862
0.485662
0.459106
0.474026
0.494738
0.500532
0.507338
0.533295
0.576047
0.571405
0.570322
0.58587
0.596621
0.55977
0.520932
0.541057
0.559764
0.542333
0.542355
0.528578
0.480748
0.457866
0.47586
0.510714
0.530634
0.557624
0.542876
0.524054
0.528025
0.539735
0.55576
0.567407
0.567787
0.51419
0.502303
0.532505
0.545055
0.524071
0.484117
0.48668
0.519255
0.564508
0.577919
0.526988
0.509704
0.566533
0.574418
0.503635
0.440645
0.518562
0.475202
0.435439
0.48179
0.450878
0.548428
0.493103
0.488141
0.496246
0.523774
0.543552
0.428015
0.472225
0.538812
0.582191
0.489478
0.414829
0.488251
0.492844
0.436681
0.421646
0.487785
0.353721
0.474515
0.445661
0.487627
0.468389
0.42328
0.464969
0.451481
0.475593
0.572015
0.521728
0.440962
0.545195
0.52341
0.516579
0.491839
0.53731
0.483725
0.466578
0.536539
0.470126
0.458837
0.531254
0.507482
0.485627
0.509485
0.521872
0.507615
0.43571
0.488443
0.543182
0.512892
0.543096
0.402391
0.427509
0.46568
0.542197
0.526973
0.502363
0.493334
0.515633
0.497131
0.552163
0.491031
0.469509
0.524298
0.538521
0.449341
0.46972
0.530747
0.492315
0.478572
0.490102
0.459866
0.433004
0.476235
0.489142
0.466021
0.466454
0.456333
0.463311
0.48014
0.430167
0.450825
0.494399
0.48617
0.475739
0.510555
0.539212
0.482276
0.490274
0.542356
0.566777
0.550992
0.460562
0.445894
0.487592
0.513298
0.518218
0.50271
0.529737
0.471504
0.48042
0.480163
0.499889
0.540355
0.562441
0.505356
0.534634
0.489268
0.493566
0.570051
0.538992