/*--------------------------------*- C++ -*----------------------------------*\
  =========                 |
  \\      /  F ield         | OpenFOAM: The Open Source CFD Toolbox
   \\    /   O peration     | Website:  https://openfoam.org
    \\  /    A nd           | Version:  7
     \\/     M anipulation  |
\*---------------------------------------------------------------------------*/
FoamFile
{
    version     2.0;
    format      ascii;
    class       volScalarField;
    location    "2000";
    object      k1Write;
}
// * * * * * * * * * * * * * * * * * * * * * * * * * * * * * * * * * * * * * //

dimensions      [0 2 0 0 0 0 0];

internalField   nonuniform List<scalar> 
160000
(
6.55931e-19
9.32414e-19
5.79789e-19
9.26008e-19
1.18961e-18
5.61002e-19
1.29138e-18
7.4053e-19
8.43287e-19
1.71609e-18
1.24457e-18
8.03949e-19
1.46176e-18
1.59141e-18
5.30655e-19
7.52753e-19
5.42531e-19
6.23944e-19
1.55786e-18
1.42287e-18
9.442e-19
7.92681e-19
1.16427e-18
1.65076e-18
1.07385e-18
1.47928e-18
2.04904e-18
1.27901e-18
1.57043e-18
8.83747e-19
8.64713e-19
1.09992e-18
2.43215e-18
1.197e-18
1.0119e-18
1.3462e-18
1.99549e-18
3.00667e-18
8.32723e-19
1.38464e-18
9.66197e-19
9.58275e-19
1.44011e-18
1.02054e-18
1.93354e-18
1.8795e-18
1.59858e-18
7.01159e-19
1.3398e-18
7.85662e-19
1.17943e-18
3.39399e-18
2.19877e-18
1.60694e-18
3.09409e-18
1.03732e-18
2.43964e-18
7.12873e-19
6.08061e-19
1.00006e-18
4.46436e-18
1.25899e-18
1.20399e-18
9.48261e-19
6.99737e-19
2.50592e-18
1.57174e-18
1.99226e-18
5.19549e-19
2.84345e-19
2.72517e-18
8.57185e-19
2.36134e-18
1.13187e-18
1.91347e-18
1.51236e-18
2.12304e-18
1.36008e-18
2.73972e-18
1.58548e-18
2.98796e-18
3.97463e-18
1.9206e-18
1.44584e-18
1.4065e-18
1.2657e-18
1.25714e-18
7.94498e-19
1.21584e-18
1.97349e-18
7.52655e-19
2.80844e-18
3.44344e-18
2.91004e-18
1.94063e-18
8.91937e-19
1.70013e-18
1.26338e-18
1.35942e-18
8.5763e-19
1.60995e-18
5.95627e-19
2.34635e-18
1.27591e-18
8.01633e-19
1.85804e-18
7.03984e-19
1.94993e-18
2.45151e-18
2.41069e-18
3.39068e-18
1.03315e-18
3.22693e-18
1.44136e-18
1.16825e-18
1.62643e-18
9.61297e-19
1.55819e-18
3.13417e-18
2.31849e-18
1.89157e-18
1.26985e-18
2.31351e-18
2.80886e-18
3.34246e-18
5.47915e-18
3.68693e-18
1.37068e-18
1.82814e-18
1.8695e-18
1.28158e-18
9.13794e-19
1.97523e-18
4.88157e-18
2.54522e-18
1.94724e-18
1.12801e-18
1.65276e-18
1.02529e-18
6.27434e-19
1.93328e-18
2.68368e-18
5.16925e-19
2.20212e-18
4.75122e-18
2.32056e-18
2.43483e-18
2.25473e-18
1.80541e-18
1.05915e-18
8.46599e-19
1.51349e-18
8.91567e-19
2.2058e-18
7.46279e-19
2.05136e-18
2.0687e-18
3.97752e-18
2.34763e-18
2.52877e-18
1.34968e-18
1.74963e-18
1.27391e-18
2.87985e-18
7.49837e-19
2.309e-18
2.29929e-18
1.26934e-18
1.82016e-18
1.25345e-18
3.95451e-18
5.59007e-18
1.73609e-18
4.72932e-18
2.53418e-18
1.22517e-18
1.91629e-18
2.0227e-18
4.48066e-18
3.97988e-18
8.48827e-19
3.14798e-18
1.25304e-18
8.8237e-19
1.03966e-18
1.22671e-18
1.45264e-18
1.20518e-18
8.51839e-19
1.7305e-18
2.07611e-18
1.52225e-18
2.10766e-18
3.07229e-18
5.7837e-18
6.40504e-19
1.66464e-18
6.63823e-18
1.40921e-17
1.38002e-17
8.47499e-18
4.21124e-18
2.1465e-18
1.3981e-18
2.02553e-18
4.85202e-18
5.74968e-18
4.57555e-18
3.79025e-18
3.40609e-18
3.6229e-18
3.3496e-18
2.00241e-18
1.89661e-18
2.76321e-18
2.17036e-18
1.26003e-18
2.35066e-18
5.30021e-18
4.60777e-18
4.36834e-18
2.47371e-18
7.1578e-19
8.83596e-19
1.16888e-18
1.58152e-18
2.93654e-18
9.87071e-19
2.34433e-18
1.67748e-18
4.92969e-19
1.69101e-18
1.21312e-18
2.48708e-18
2.28815e-18
2.70072e-18
1.14719e-18
2.17083e-18
1.04144e-18
1.93103e-18
1.35847e-18
1.04088e-18
1.72625e-18
1.30761e-18
2.09286e-18
1.74279e-18
2.46955e-18
2.29984e-18
7.90147e-18
7.23508e-18
6.56713e-18
3.87504e-18
1.66148e-18
1.11838e-18
1.13368e-18
2.34648e-18
1.68158e-18
7.37384e-19
1.59519e-18
8.41323e-18
1.27083e-17
2.82764e-18
1.26399e-18
7.30201e-19
1.38541e-18
3.37551e-18
3.11127e-18
1.08131e-18
2.14829e-18
7.55339e-18
2.15401e-18
1.4369e-18
2.21172e-18
1.59103e-18
1.03564e-18
9.91591e-19
2.35083e-18
7.49824e-18
2.92818e-18
2.04915e-18
1.2596e-18
1.65734e-18
2.08075e-18
2.79854e-18
2.5744e-18
2.00198e-18
3.22765e-18
1.3397e-18
1.80565e-18
2.24946e-18
2.18669e-18
5.53352e-19
1.55488e-18
2.28299e-18
2.83798e-18
3.20338e-18
3.49592e-18
8.38532e-19
2.69764e-18
1.51397e-18
3.50066e-18
1.01497e-17
1.71961e-17
1.22564e-17
7.28663e-18
3.90232e-18
2.4605e-18
1.99015e-18
1.34534e-18
1.73764e-18
2.29887e-18
1.4679e-18
1.61398e-18
3.63189e-18
3.64149e-18
4.48902e-18
4.0888e-18
1.3269e-18
8.96234e-19
1.4771e-18
1.04104e-18
1.23216e-18
1.35026e-18
4.28683e-18
6.2171e-18
5.1689e-18
4.25703e-18
3.86946e-18
3.22459e-18
2.45248e-18
1.48919e-18
2.24595e-18
1.8715e-18
1.68828e-18
1.87799e-18
1.71914e-18
1.66e-18
2.72402e-18
5.51642e-18
2.13153e-18
6.05833e-19
9.32221e-19
1.25742e-18
9.21934e-19
5.12327e-18
2.29736e-18
2.83708e-18
5.28179e-18
5.13957e-18
4.25062e-18
2.78784e-18
1.40126e-18
2.40063e-18
1.84961e-18
2.42965e-18
2.23887e-18
2.88971e-18
2.72883e-18
2.30301e-18
1.41804e-18
1.35535e-18
1.54304e-18
2.39806e-18
1.7374e-18
3.59107e-18
3.67489e-18
2.16426e-18
8.08359e-18
5.58757e-18
2.33211e-18
1.72282e-18
2.44296e-18
2.36791e-18
6.64591e-18
1.63087e-18
4.23003e-18
1.62682e-18
1.81191e-18
1.29448e-18
1.59693e-18
1.84178e-18
1.7331e-18
1.67259e-18
2.75661e-18
3.30153e-18
3.52013e-18
3.92624e-18
3.4676e-18
2.33136e-18
1.9027e-18
2.50613e-18
1.80919e-18
2.78302e-18
1.73845e-18
9.64171e-19
2.77723e-18
1.20386e-18
3.66856e-19
2.64779e-18
1.57038e-18
2.05003e-18
4.58398e-19
1.06453e-18
5.29307e-19
4.58114e-19
6.42078e-19
1.18355e-18
8.68706e-19
9.4699e-19
1.09684e-18
1.27804e-18
8.06819e-19
1.01906e-18
1.22969e-18
1.89326e-18
7.16494e-19
6.92635e-19
2.57201e-18
2.23598e-18
1.30397e-18
7.49114e-19
1.05858e-18
1.65485e-18
1.61918e-18
5.33347e-19
1.12848e-18
3.25803e-18
2.68571e-18
1.31286e-18
2.05534e-18
1.33684e-18
8.04586e-19
1.06431e-18
7.98167e-19
5.68669e-19
1.9461e-18
2.94653e-18
2.68788e-19
1.7826e-18
2.51424e-18
1.03573e-18
6.62579e-19
1.3609e-18
7.67609e-19
1.8826e-18
3.05806e-18
1.48342e-18
6.66001e-19
1.23374e-18
2.06769e-18
9.28556e-19
1.63794e-18
1.14354e-18
3.8609e-18
6.00519e-19
1.61555e-18
2.03259e-18
8.82449e-19
1.15178e-18
1.23861e-18
1.32612e-18
1.69191e-18
9.13786e-19
8.60267e-19
1.5103e-18
1.17385e-18
7.46705e-19
2.4509e-18
2.30198e-18
3.50878e-18
2.77406e-18
1.73341e-18
6.89817e-19
1.29954e-18
1.1516e-18
1.84876e-18
1.15954e-18
1.19841e-18
1.17773e-18
2.56027e-18
2.12164e-18
1.5233e-18
1.64589e-18
1.61757e-18
3.9109e-18
3.80087e-18
1.01456e-18
1.31888e-18
1.54422e-18
2.23414e-18
2.95232e-18
2.04576e-18
3.99755e-18
2.70664e-18
1.10006e-18
1.99e-18
1.52124e-18
1.89807e-18
1.63451e-18
9.02682e-19
1.9362e-18
1.4645e-18
8.58168e-19
4.24454e-18
2.07812e-18
1.13564e-18
2.56931e-18
3.26582e-18
2.064e-18
2.31278e-18
1.93557e-18
8.69382e-19
1.27664e-18
1.15907e-18
1.50719e-18
1.69289e-18
1.71208e-18
2.23365e-18
2.57323e-18
4.39067e-18
4.06673e-18
1.81611e-18
1.76703e-18
1.78729e-18
1.60669e-18
1.91659e-18
1.71994e-18
1.2049e-18
1.93631e-18
1.27288e-18
1.13838e-18
5.25641e-19
4.10494e-18
5.5014e-18
3.08311e-18
1.02855e-18
5.11991e-18
1.4429e-18
8.10301e-19
1.2659e-18
2.09242e-18
2.80595e-18
2.38364e-18
3.00739e-18
3.21008e-18
1.23139e-18
2.11492e-18
1.51765e-18
1.30329e-18
8.1041e-19
3.54414e-18
8.84172e-19
1.04052e-18
1.74067e-18
1.89547e-18
3.10594e-18
1.63583e-18
2.82104e-18
1.1929e-18
2.27558e-18
1.9508e-18
2.64069e-18
1.84064e-18
1.50423e-18
1.25927e-18
2.2344e-18
3.52454e-18
1.64227e-18
2.17577e-18
1.87611e-18
2.01374e-18
1.77392e-18
8.39263e-19
4.40467e-18
1.99823e-18
2.33694e-18
2.54208e-18
1.73949e-18
2.32471e-18
1.60959e-18
1.40678e-18
1.98206e-18
1.13999e-18
6.24238e-19
2.21957e-18
1.79928e-18
1.91142e-18
8.9232e-19
1.89358e-18
5.69798e-18
8.58384e-18
4.80985e-18
2.90408e-18
5.04785e-18
2.07909e-18
3.34891e-18
1.38821e-17
1.96326e-17
1.13082e-17
5.62717e-18
3.50158e-18
2.20819e-18
1.55638e-18
2.12536e-18
4.97562e-18
8.48659e-18
5.0877e-18
2.48579e-18
1.77782e-18
2.02817e-18
2.04138e-18
1.28472e-18
1.30543e-18
2.02106e-18
1.81415e-18
1.38579e-18
1.73435e-18
2.28525e-18
2.39324e-18
1.24307e-18
7.70676e-19
3.99906e-19
7.16151e-19
1.062e-18
1.97935e-18
2.62493e-18
3.65491e-18
1.62032e-18
3.15786e-18
2.24756e-18
2.38461e-18
2.27168e-18
5.64033e-18
4.9896e-18
1.21138e-18
1.44403e-18
1.86708e-18
2.12353e-18
1.04041e-18
1.39354e-18
9.50744e-19
9.7273e-19
2.66258e-18
2.84673e-18
9.95577e-19
3.63656e-18
5.42083e-18
1.26646e-17
1.88721e-17
1.06612e-17
4.34556e-18
2.5343e-18
2.91737e-18
2.04082e-18
1.62714e-18
2.32158e-18
1.25366e-18
1.72756e-18
4.7202e-18
7.79034e-18
2.14907e-18
8.3831e-19
1.01071e-18
1.36401e-18
2.72826e-18
3.41166e-18
9.29801e-19
1.40948e-18
6.57814e-18
7.12805e-18
1.86252e-18
1.98355e-18
2.47327e-18
1.04586e-18
1.02703e-18
1.60629e-18
4.39902e-18
5.25602e-18
2.18407e-18
1.44295e-18
1.97058e-18
2.4694e-18
3.14106e-18
4.54313e-18
3.76771e-18
2.1849e-18
1.36229e-18
9.57117e-19
9.97858e-19
1.2291e-18
6.64562e-19
1.34538e-18
2.42357e-18
2.58502e-18
7.57398e-19
2.53849e-18
4.2057e-18
2.76873e-18
2.84845e-18
1.54561e-17
2.04255e-17
1.49239e-17
6.09088e-18
2.803e-18
1.59489e-18
1.10635e-18
1.05388e-18
1.42488e-18
1.34536e-18
1.58341e-18
1.6867e-18
1.62902e-18
2.48786e-18
3.88227e-18
3.84345e-18
2.55713e-18
9.60861e-19
6.42188e-19
1.19799e-18
1.4607e-18
1.45928e-18
1.50969e-18
3.77674e-18
1.33709e-17
1.32264e-17
4.93104e-18
3.43723e-18
4.48083e-18
3.18609e-18
1.64006e-18
2.11763e-18
2.5205e-18
1.56701e-18
1.93131e-18
2.3037e-18
1.59036e-18
1.74513e-18
3.0145e-18
2.31007e-18
1.26898e-18
1.53619e-18
2.51141e-18
1.38741e-18
2.05121e-18
3.40503e-18
4.11101e-18
3.51933e-18
2.66803e-18
2.15623e-18
2.07803e-18
1.24744e-18
1.28061e-18
1.55905e-18
2.74531e-18
2.07062e-18
1.48427e-18
1.65286e-18
1.86909e-18
1.68617e-18
1.69311e-18
1.67834e-18
2.16253e-18
2.08787e-18
2.31428e-18
5.10374e-18
3.86704e-18
4.09515e-18
4.41427e-18
1.77706e-18
1.21581e-18
1.41244e-18
1.02198e-18
1.5233e-18
1.23281e-18
2.19797e-18
1.26487e-18
2.01195e-18
2.8104e-18
1.48096e-18
2.19112e-18
4.09414e-18
8.2252e-19
5.14995e-18
2.13883e-18
9.951e-19
3.20854e-18
1.94873e-18
1.4706e-18
2.2961e-18
3.89601e-18
1.64294e-18
2.68551e-18
3.81301e-18
1.72576e-18
1.3231e-18
3.21673e-18
4.16307e-19
9.90154e-19
4.94038e-19
1.38324e-18
3.6749e-19
3.28863e-19
1.47028e-18
5.46444e-19
1.89456e-18
4.034e-19
9.65633e-19
1.65427e-18
6.11405e-19
1.60765e-18
2.6794e-18
1.47277e-18
8.96726e-19
1.82017e-18
3.1171e-18
1.43666e-18
2.9325e-18
1.62434e-18
7.81753e-19
1.66277e-18
1.03138e-18
1.20122e-18
7.8383e-19
5.96338e-19
7.19595e-19
1.03263e-18
1.25481e-18
1.33924e-18
3.36604e-18
1.34565e-18
1.0285e-18
1.48555e-18
1.33144e-18
1.38131e-18
5.23451e-19
9.99051e-19
1.3763e-18
8.77178e-19
8.55837e-19
1.02251e-18
1.3845e-18
1.3429e-18
1.30514e-18
1.12643e-18
3.0045e-18
8.22879e-19
6.69902e-19
7.43844e-19
1.54374e-18
3.19871e-18
1.30539e-18
7.73351e-19
8.86702e-19
1.30271e-18
1.73388e-18
1.85338e-18
3.4616e-18
2.3852e-18
3.47248e-18
9.7756e-19
1.00646e-18
1.21577e-18
2.1103e-18
6.67034e-19
8.13242e-19
1.9775e-18
7.63204e-19
7.0363e-19
4.41812e-19
1.32815e-18
5.50617e-19
1.91222e-18
1.48948e-18
5.23442e-19
8.75648e-19
1.54877e-18
1.57889e-18
2.12782e-18
3.52945e-18
1.6687e-18
2.25864e-18
2.25502e-18
2.30783e-18
9.09101e-19
1.88899e-18
1.17751e-18
2.30473e-18
2.32614e-18
1.03589e-18
8.03903e-19
2.0566e-18
1.15761e-18
6.68261e-19
1.32431e-18
6.26881e-19
5.31237e-19
1.09789e-18
1.34164e-18
1.48257e-18
1.11671e-18
1.09635e-18
2.29605e-18
1.25414e-18
1.90616e-18
2.93237e-18
1.73509e-18
1.68783e-18
9.91339e-19
1.63325e-18
2.69032e-18
1.5049e-18
1.70803e-18
1.36805e-18
8.52803e-19
1.75498e-18
1.38799e-18
1.64948e-18
2.00474e-18
1.71281e-18
1.45126e-18
9.752e-19
1.0888e-18
1.45171e-18
1.28544e-18
1.07596e-18
1.15214e-18
9.50887e-19
1.44318e-18
1.64594e-18
1.03052e-18
1.35599e-18
3.0027e-18
3.42332e-18
1.89592e-18
1.85992e-18
1.55674e-18
1.97438e-18
2.26929e-18
1.37839e-18
1.34581e-18
2.61573e-18
5.16206e-18
2.06468e-18
2.06148e-18
3.11298e-18
1.78879e-18
1.73736e-18
1.81915e-18
1.56642e-18
1.20203e-18
2.21252e-18
1.38307e-18
1.64817e-18
4.09731e-18
3.79193e-18
1.05812e-18
2.13925e-18
1.73803e-18
1.31586e-18
1.25675e-18
8.94313e-19
2.17021e-18
2.09652e-18
2.08692e-18
1.77728e-18
1.72182e-18
1.65345e-18
1.42419e-18
2.45366e-18
3.35938e-18
2.79959e-18
2.64639e-18
2.05245e-18
1.19859e-18
5.57402e-19
1.58549e-18
3.19922e-18
3.00614e-18
1.52174e-18
1.65584e-18
1.18469e-18
7.24328e-19
1.032e-18
1.82629e-18
1.41388e-18
1.71891e-18
1.86921e-18
3.14361e-18
8.77044e-18
2.38716e-17
9.84646e-18
2.8814e-18
2.76029e-18
3.81677e-18
3.71091e-18
5.76538e-18
7.08231e-18
4.75956e-18
3.19627e-18
2.43916e-18
1.83568e-18
1.82943e-18
2.29344e-18
2.77895e-18
2.63854e-18
2.18488e-18
1.43921e-18
1.22802e-18
1.66635e-18
1.74645e-18
1.11959e-18
1.06355e-18
1.60659e-18
1.54676e-18
1.22115e-18
1.37045e-18
1.90272e-18
1.9183e-18
1.18168e-18
7.88611e-19
9.51779e-19
1.4394e-18
1.68325e-18
2.28314e-18
2.49813e-18
2.7591e-18
1.83158e-18
1.94803e-18
3.69026e-18
2.22722e-18
1.47727e-18
2.42508e-18
2.83517e-18
1.04194e-18
1.62019e-18
2.30214e-18
1.19799e-18
9.14716e-19
1.28232e-18
2.59626e-18
3.37183e-18
2.25132e-18
2.73886e-18
1.65589e-18
3.04393e-18
3.68046e-18
1.67209e-17
2.44902e-17
9.39889e-18
2.91152e-18
1.79607e-18
1.86084e-18
1.98505e-18
1.42667e-18
1.29871e-18
1.50813e-18
1.37166e-18
1.91049e-18
3.02819e-18
1.99504e-18
1.05382e-18
1.37555e-18
1.61832e-18
1.97275e-18
2.32693e-18
1.82868e-18
1.7933e-18
3.1884e-18
3.30822e-18
1.55888e-18
1.13272e-18
2.37778e-18
3.04156e-18
2.36683e-18
2.58885e-18
2.58739e-18
4.50386e-18
4.11374e-18
2.11736e-18
2.42823e-18
2.69555e-18
3.40331e-18
2.90848e-18
1.94546e-18
1.04193e-18
1.32139e-18
1.64113e-18
1.55145e-18
1.71284e-18
1.7063e-18
1.9542e-18
1.53593e-18
1.10925e-18
1.37492e-18
4.02427e-18
1.49473e-17
1.1399e-17
4.14045e-18
1.34387e-17
2.542e-17
9.93466e-18
3.26446e-18
1.51241e-18
1.41468e-18
2.09881e-18
2.61328e-18
2.25232e-18
1.65369e-18
1.23035e-18
1.7418e-18
2.12307e-18
1.9206e-18
1.96713e-18
2.20069e-18
1.61049e-18
9.25267e-19
1.15819e-18
2.04695e-18
2.26154e-18
1.90384e-18
2.22353e-18
4.4183e-18
8.74905e-18
7.51274e-18
3.08189e-18
1.7799e-18
1.74782e-18
1.68544e-18
1.41126e-18
1.37272e-18
2.00508e-18
2.56041e-18
1.48324e-18
1.36694e-18
1.34406e-18
1.15436e-18
1.81595e-18
2.87074e-18
2.71792e-18
2.64577e-18
2.31265e-18
1.67093e-18
2.53704e-18
3.67317e-18
2.57301e-18
2.44444e-18
3.21837e-18
2.62008e-18
1.17616e-18
8.45663e-19
1.76149e-18
2.18922e-18
3.32969e-18
3.2844e-18
1.61064e-18
1.55209e-18
2.34654e-18
2.66045e-18
1.53567e-18
7.92483e-19
1.24847e-18
2.22963e-18
3.51512e-18
3.59178e-18
3.46396e-18
1.21896e-18
1.8737e-18
2.76057e-18
1.65488e-18
2.2769e-18
3.71402e-18
4.49983e-18
2.98098e-18
2.61955e-18
2.43762e-18
1.95686e-18
1.64681e-18
1.07117e-18
1.25469e-18
2.36669e-18
1.22174e-18
1.81137e-18
2.57928e-18
3.21215e-18
1.8387e-18
1.32151e-18
2.86027e-18
2.99802e-18
3.2175e-18
2.09178e-18
1.31561e-18
3.31579e-18
3.21715e-18
2.32038e-18
3.11478e-18
1.59488e-18
4.63058e-19
1.09714e-18
1.00736e-18
6.73304e-19
1.8168e-18
1.72487e-18
2.04747e-18
2.28556e-18
2.40652e-18
2.25342e-18
1.50972e-18
2.35623e-18
1.33133e-18
1.80461e-18
7.89166e-19
9.08806e-19
9.99844e-19
8.19379e-19
2.71371e-18
1.35046e-18
1.78409e-18
1.4427e-18
1.22958e-18
1.38864e-18
7.04069e-19
2.73412e-18
7.03644e-19
1.27328e-18
2.80646e-18
6.62409e-19
9.80046e-19
1.60396e-18
7.43553e-19
2.44738e-19
6.39436e-19
8.95626e-19
1.42075e-18
1.80296e-18
2.17816e-18
1.62673e-18
1.87865e-18
4.35912e-19
1.10783e-18
3.05558e-18
3.12534e-18
1.71954e-18
1.37263e-18
1.43784e-18
1.77395e-18
1.16541e-18
1.26381e-18
8.52928e-19
1.1569e-18
9.0123e-19
2.58035e-18
1.91598e-18
4.83572e-19
1.63961e-18
1.17679e-18
8.43197e-19
7.45263e-19
1.21433e-18
1.0839e-18
2.07771e-18
1.37657e-18
2.74399e-18
9.89202e-19
8.06157e-19
1.10076e-18
1.45083e-18
1.46549e-18
1.41032e-18
2.09492e-18
2.05704e-18
5.76074e-19
6.95924e-19
1.03391e-18
2.1287e-18
3.26527e-18
2.04621e-18
7.82823e-19
1.81111e-18
1.18426e-18
4.48251e-19
2.78318e-18
2.0396e-18
1.54414e-18
1.18681e-18
3.05639e-18
3.13169e-18
2.80062e-18
3.48534e-18
1.29312e-18
3.14923e-18
9.01674e-19
2.17886e-18
1.45247e-18
1.34448e-18
9.59976e-19
2.39549e-18
6.72494e-19
7.87833e-19
1.48286e-18
3.33611e-18
1.39619e-18
2.14339e-18
2.90087e-18
2.05299e-18
3.10855e-18
3.3518e-18
2.09415e-18
1.56013e-18
1.7866e-18
1.97044e-18
1.11919e-18
2.47747e-18
1.62171e-18
1.01161e-18
1.33211e-18
2.05807e-18
2.12929e-18
2.8219e-18
2.49255e-18
1.27094e-18
1.21566e-18
1.10881e-18
1.6884e-18
6.48033e-19
1.84635e-18
2.32014e-18
2.52152e-18
1.46593e-18
1.17021e-18
1.62289e-18
1.31637e-18
2.24668e-18
1.6328e-18
2.1677e-18
2.64468e-18
1.43109e-18
2.28858e-18
1.65834e-18
1.26561e-18
1.35873e-18
2.30439e-18
7.16505e-19
1.472e-18
2.55462e-18
2.49355e-18
3.31939e-18
2.11612e-18
1.45335e-18
1.02763e-18
2.91968e-18
1.37135e-18
1.5022e-18
1.01499e-18
1.07323e-18
1.6604e-18
1.68766e-18
3.22118e-18
2.9654e-18
1.40244e-18
2.0967e-18
2.27286e-18
2.54823e-18
2.78998e-18
2.37186e-18
1.09718e-18
1.48324e-18
2.51668e-18
4.11354e-18
5.94355e-18
7.18877e-18
4.3396e-18
1.67303e-18
1.93143e-18
2.972e-18
2.02498e-18
2.04331e-18
2.06853e-18
1.14999e-18
1.06135e-18
1.78282e-18
1.56743e-18
5.92127e-19
6.27273e-19
1.69951e-18
2.09013e-18
2.26471e-18
2.66778e-18
1.19486e-17
2.15482e-17
8.91221e-18
2.63164e-18
2.24495e-18
3.60843e-18
4.08837e-18
3.21755e-18
2.39916e-18
2.20219e-18
2.59153e-18
2.69603e-18
2.31224e-18
1.53995e-18
1.27796e-18
1.65731e-18
2.62306e-18
2.78037e-18
2.30355e-18
1.54839e-18
1.49082e-18
1.74177e-18
1.30964e-18
9.85911e-19
1.62999e-18
2.57502e-18
2.24573e-18
1.81021e-18
1.71141e-18
1.40424e-18
1.30764e-18
1.15251e-18
1.37646e-18
2.128e-18
2.56716e-18
2.66882e-18
2.88959e-18
2.21785e-18
1.88397e-18
1.41694e-18
1.36398e-18
1.50682e-18
1.42249e-18
1.7722e-18
1.48672e-18
5.93913e-19
7.69178e-19
1.39623e-18
1.53257e-18
1.91977e-18
2.42346e-18
1.37637e-18
1.12096e-18
1.04769e-18
8.25769e-19
1.83821e-18
2.47508e-18
3.61439e-18
1.28261e-17
2.04766e-17
1.03188e-17
3.18392e-18
1.55476e-18
1.31319e-18
1.86186e-18
1.46458e-18
1.03772e-18
1.54561e-18
1.86644e-18
2.1753e-18
2.88683e-18
2.87331e-18
1.8939e-18
1.3854e-18
1.67151e-18
2.27942e-18
2.81099e-18
2.26477e-18
1.55987e-18
1.39769e-18
2.80678e-18
3.56337e-18
3.52477e-18
5.41414e-18
4.95778e-18
1.95756e-18
8.32279e-19
1.04175e-18
2.19891e-18
4.06193e-18
3.93065e-18
2.96242e-18
2.37762e-18
1.93854e-18
1.59921e-18
1.5279e-18
1.68683e-18
2.00856e-18
1.47653e-18
1.1307e-18
1.29178e-18
2.31493e-18
2.72118e-18
1.38838e-18
1.16385e-18
1.91165e-18
4.89797e-18
1.42667e-17
1.47166e-17
5.12176e-18
4.72717e-18
7.72879e-18
5.17146e-18
2.1668e-18
1.36711e-18
1.57167e-18
2.75161e-18
3.33243e-18
2.73478e-18
2.74335e-18
2.32155e-18
1.7895e-18
1.97484e-18
1.79725e-18
1.55037e-18
2.20023e-18
2.49737e-18
1.75984e-18
1.51019e-18
1.40884e-18
9.54366e-19
1.31102e-18
2.41857e-18
3.42082e-18
3.63816e-18
2.75723e-18
1.95147e-18
1.25012e-18
1.2181e-18
1.40507e-18
1.55435e-18
2.15947e-18
1.85507e-18
1.52804e-18
1.78261e-18
2.27048e-18
2.71147e-18
4.4657e-18
4.27988e-18
4.17655e-18
5.64054e-18
5.16512e-18
2.35652e-18
1.64151e-18
1.67318e-18
1.6718e-18
2.80158e-18
4.03051e-18
3.57889e-18
1.53283e-18
1.19131e-18
1.08637e-18
9.86335e-19
1.14365e-18
1.16488e-18
1.38284e-18
2.13449e-18
1.80545e-18
2.17931e-18
1.91127e-18
2.24622e-18
2.71793e-18
3.18541e-18
2.12956e-18
2.00996e-18
1.85685e-18
1.80925e-18
2.9277e-18
9.91646e-19
1.26931e-18
2.37319e-18
2.12441e-18
3.42041e-18
3.57104e-18
2.36869e-18
2.80551e-18
1.83778e-18
1.82786e-18
2.04597e-18
1.06953e-18
7.06821e-19
1.79775e-18
2.76865e-18
2.33068e-18
7.0677e-19
4.11452e-18
4.64482e-18
2.58022e-18
1.53626e-18
1.98511e-18
2.79675e-18
1.22993e-18
2.74502e-18
1.70196e-18
1.09184e-18
9.67016e-19
2.2103e-18
1.67311e-18
1.33417e-18
1.01006e-18
9.15999e-19
1.11234e-18
1.35602e-18
1.42886e-18
1.88626e-18
2.29905e-18
1.1373e-18
9.98352e-19
9.36398e-19
5.63724e-19
1.31978e-18
1.03833e-18
5.50018e-19
6.75392e-19
2.10999e-19
1.92314e-18
2.81495e-18
7.735e-19
5.23882e-19
1.7032e-18
1.58036e-18
2.36235e-18
2.83776e-18
9.23684e-19
7.45155e-19
4.74369e-19
8.09786e-19
8.54837e-19
4.40879e-19
1.58334e-18
2.28942e-18
9.13763e-19
1.31566e-18
1.15265e-18
5.31806e-19
1.101e-18
1.64871e-18
1.35853e-18
5.97275e-19
1.01111e-18
1.48986e-18
2.85155e-18
1.92834e-18
1.06804e-18
2.19356e-18
1.02873e-18
7.50822e-19
8.91121e-19
1.4458e-18
9.30928e-19
1.78591e-18
3.57313e-18
1.35392e-18
1.56015e-18
1.50508e-18
1.18959e-18
7.96928e-19
1.33778e-18
1.67426e-18
8.23151e-19
1.44136e-18
1.48376e-18
7.53583e-19
1.12961e-18
9.51929e-19
9.92224e-19
6.14232e-19
7.0516e-19
1.64142e-18
1.31731e-18
2.18745e-18
1.31775e-18
1.91317e-18
1.08841e-18
1.03766e-18
2.28929e-18
1.66166e-18
2.40945e-18
2.42074e-18
1.12344e-18
1.41201e-18
1.28132e-18
3.35464e-18
7.5974e-19
1.22834e-18
1.65329e-18
1.38423e-18
1.82106e-18
2.52393e-18
1.48307e-18
1.54388e-18
1.50601e-18
1.58933e-18
1.23517e-18
1.01531e-18
1.50493e-18
1.51064e-18
1.11197e-18
1.77095e-18
1.29462e-18
9.00082e-19
7.10858e-19
1.64985e-18
2.13916e-18
1.93586e-18
9.5983e-19
3.11499e-18
2.68225e-18
3.67484e-18
3.34998e-18
1.68278e-18
1.7628e-18
1.70759e-18
1.19415e-18
1.31735e-18
2.55543e-18
3.63157e-18
2.70425e-18
8.03267e-19
1.13536e-18
3.56812e-18
1.95505e-18
1.30412e-18
1.95716e-18
1.32153e-18
1.51781e-18
1.563e-18
2.89502e-18
2.04076e-18
1.01637e-18
1.09334e-18
1.3865e-18
1.69452e-18
9.73266e-19
1.61825e-18
1.68394e-18
1.55903e-18
1.56139e-18
2.13321e-18
1.44576e-18
1.71057e-18
3.32825e-18
3.05922e-18
2.46547e-18
1.82347e-18
2.76371e-18
1.36365e-18
1.92163e-18
2.42793e-18
1.35613e-18
1.17068e-18
1.93238e-18
1.6531e-18
1.41185e-18
1.62659e-18
2.14781e-18
2.79127e-18
2.38002e-18
2.59864e-18
2.34192e-18
1.06844e-18
8.72363e-19
1.90899e-18
2.91836e-18
2.726e-18
1.97732e-18
1.13912e-18
6.51264e-19
9.66705e-19
2.54656e-18
4.46977e-18
3.32316e-18
3.52084e-18
1.92151e-18
2.05858e-18
1.80866e-18
1.2891e-18
2.06082e-18
1.98395e-18
1.61571e-18
1.57999e-18
1.48145e-18
1.56202e-18
2.03363e-18
1.87081e-18
1.19646e-18
8.23458e-19
8.15804e-19
3.38309e-18
1.97902e-17
3.02569e-17
8.44001e-18
2.58695e-18
1.52386e-18
1.48396e-18
1.84561e-18
1.86132e-18
1.22082e-18
9.21085e-19
1.41877e-18
2.27175e-18
2.82912e-18
2.25354e-18
1.58562e-18
1.72833e-18
2.41005e-18
2.86097e-18
2.93361e-18
2.30703e-18
1.46742e-18
1.34497e-18
1.75642e-18
2.16513e-18
3.10626e-18
4.42967e-18
3.54134e-18
2.28017e-18
1.56994e-18
1.29725e-18
1.81441e-18
2.16969e-18
2.27797e-18
2.70213e-18
2.56994e-18
1.94651e-18
1.87981e-18
1.83647e-18
1.47052e-18
1.21299e-18
1.4713e-18
1.704e-18
1.95053e-18
1.54553e-18
1.69174e-18
1.22697e-18
7.18168e-19
9.46554e-19
2.19265e-18
2.24065e-18
1.73887e-18
1.44939e-18
1.39321e-18
2.69516e-18
4.25826e-18
4.03825e-18
3.89627e-18
4.65014e-18
8.65317e-18
1.19626e-17
7.6612e-18
3.13279e-18
1.35805e-18
1.04065e-18
1.28424e-18
1.31487e-18
1.3633e-18
1.5588e-18
1.78244e-18
2.15134e-18
2.23751e-18
2.32187e-18
2.18974e-18
1.6225e-18
1.25164e-18
1.16168e-18
1.46273e-18
1.62544e-18
1.22449e-18
9.7319e-19
1.53468e-18
6.94556e-18
7.54211e-18
4.15681e-18
2.94126e-18
1.63086e-18
9.6722e-19
1.76111e-18
3.17394e-18
4.35748e-18
4.90687e-18
3.41269e-18
2.09674e-18
1.46569e-18
1.13135e-18
1.42111e-18
1.61136e-18
1.35471e-18
1.21128e-18
1.64409e-18
2.90601e-18
2.72826e-18
1.64751e-18
1.06953e-18
1.09598e-18
1.69616e-18
3.70109e-18
1.13372e-17
1.34705e-17
5.72115e-18
3.06199e-18
2.56113e-18
1.9215e-18
1.46856e-18
1.41625e-18
2.3813e-18
3.52971e-18
3.33862e-18
2.74252e-18
2.19573e-18
1.4592e-18
1.21782e-18
1.66532e-18
2.51874e-18
2.91159e-18
3.93146e-18
5.7061e-18
5.67907e-18
3.81436e-18
2.82163e-18
2.92565e-18
3.03231e-18
2.8041e-18
3.45714e-18
4.12442e-18
3.67092e-18
2.80765e-18
1.82258e-18
1.11318e-18
1.35174e-18
1.98066e-18
2.44366e-18
3.15914e-18
1.64819e-18
1.02837e-18
9.36153e-19
1.51467e-18
1.91188e-18
1.9069e-18
2.13409e-18
3.04716e-18
4.00559e-18
2.77831e-18
1.89874e-18
2.47797e-18
3.79436e-18
3.34687e-18
2.8314e-18
1.76049e-18
1.00601e-18
1.269e-18
1.36935e-18
1.29906e-18
1.08009e-18
1.85877e-18
2.49819e-18
2.13109e-18
1.91285e-18
1.49689e-18
1.86633e-18
2.40327e-18
2.50935e-18
2.08124e-18
2.34042e-18
2.07952e-18
1.82136e-18
1.83605e-18
1.59769e-18
1.83997e-18
1.86821e-18
1.59023e-18
2.01185e-18
3.36205e-18
2.22579e-18
2.60968e-18
3.0392e-18
2.78907e-18
1.20446e-18
5.57009e-19
1.09895e-18
2.92521e-18
1.41723e-18
2.05282e-18
3.20742e-18
3.27684e-18
2.51351e-18
3.89225e-18
3.41494e-18
1.15742e-18
1.51438e-18
2.58425e-18
5.06327e-18
3.17368e-18
2.08148e-18
2.43799e-18
1.95599e-18
2.65132e-18
1.13441e-18
7.00444e-19
2.04455e-18
1.69393e-18
1.23194e-18
2.12728e-19
1.1619e-18
4.80234e-19
5.83713e-19
1.95884e-18
1.22948e-18
7.39182e-19
1.26497e-18
5.23122e-19
6.37468e-19
3.34225e-19
8.00885e-19
1.52918e-18
7.26515e-19
2.1011e-18
1.78632e-18
2.01434e-18
2.80435e-18
8.16116e-19
9.2292e-19
1.19666e-18
1.94948e-18
1.75683e-18
1.99728e-18
9.1478e-19
4.17637e-19
8.13237e-19
8.62872e-19
3.38568e-19
9.05044e-19
5.56557e-19
2.74251e-18
8.78049e-19
9.11635e-19
1.10887e-18
1.07298e-18
2.15353e-18
9.83126e-19
1.01805e-18
1.48339e-18
2.30852e-18
2.37533e-18
1.38241e-18
1.62428e-18
8.49889e-19
9.20936e-19
1.3729e-18
1.42401e-18
1.14489e-18
1.20834e-18
1.50013e-18
3.29962e-18
1.84042e-18
8.19059e-19
1.46135e-18
1.71281e-18
9.99877e-19
1.52384e-18
1.79006e-18
1.36287e-18
9.26695e-19
1.34232e-18
1.09628e-18
6.92248e-19
1.61429e-18
8.04229e-19
1.23723e-18
2.86269e-18
1.79217e-18
1.25435e-18
2.21324e-18
3.71437e-18
2.11844e-18
2.83566e-18
2.68142e-18
1.28472e-18
1.42012e-18
3.31222e-18
1.87312e-18
1.27512e-18
9.56966e-19
9.73974e-19
1.71344e-18
1.92714e-18
1.35049e-18
1.35005e-18
2.22456e-18
2.66524e-18
2.22037e-18
3.9312e-18
2.6688e-18
1.69856e-18
8.99357e-19
1.71123e-18
3.0218e-18
1.42332e-18
9.50285e-19
1.12865e-18
4.66229e-19
5.18388e-19
1.09574e-18
5.42949e-19
7.78507e-19
1.47906e-18
2.67905e-18
3.64908e-18
1.98038e-18
1.66345e-18
1.02951e-18
1.79243e-18
2.81314e-18
2.63662e-18
1.46523e-18
8.87385e-19
9.08257e-19
1.84595e-18
1.44648e-18
9.29398e-19
9.41711e-19
9.73964e-19
2.98972e-18
3.0029e-18
2.04943e-18
4.19807e-18
1.94068e-18
3.51827e-18
2.98095e-18
1.94412e-18
2.37132e-18
1.99172e-18
1.67756e-18
1.27508e-18
1.53027e-18
2.12352e-18
1.22756e-18
7.80752e-19
1.51906e-18
3.5597e-18
2.02995e-18
2.25766e-18
2.02304e-18
2.19015e-18
1.72964e-18
1.44491e-18
2.34603e-18
2.78846e-18
1.59716e-18
1.332e-18
2.32523e-18
2.77947e-18
2.13098e-18
1.17956e-18
1.30575e-18
1.4679e-18
2.40569e-18
1.74615e-18
2.1551e-18
1.39324e-18
1.16596e-18
1.95683e-18
2.14194e-18
3.4338e-18
4.02039e-18
3.43512e-18
1.34304e-18
1.46235e-18
1.41651e-18
1.24325e-18
1.26874e-18
1.47505e-18
1.2665e-18
1.48501e-18
1.34718e-18
1.10228e-18
2.29414e-18
3.31168e-18
2.27264e-18
1.409e-18
1.99185e-18
1.83334e-18
1.98584e-18
3.20032e-18
2.53092e-18
1.10746e-18
1.01998e-18
1.47843e-18
4.96439e-18
2.86716e-17
3.08379e-17
8.87726e-18
2.41153e-18
1.41058e-18
1.99643e-18
2.44877e-18
2.07127e-18
1.67243e-18
1.43732e-18
1.21707e-18
1.56442e-18
2.21545e-18
2.39587e-18
2.35079e-18
2.07337e-18
2.02327e-18
2.36673e-18
2.66792e-18
2.35178e-18
1.61502e-18
1.50377e-18
1.87465e-18
2.26169e-18
2.22877e-18
2.51286e-18
2.88288e-18
2.28114e-18
1.9004e-18
1.7371e-18
1.7703e-18
2.12344e-18
2.4015e-18
2.14118e-18
1.41648e-18
9.31554e-19
8.43355e-19
1.13747e-18
1.70913e-18
1.75458e-18
1.55273e-18
1.44056e-18
1.76083e-18
2.12426e-18
1.88088e-18
9.99044e-19
5.70059e-19
9.27928e-19
1.8907e-18
2.29477e-18
1.73555e-18
1.51031e-18
1.70889e-18
2.35396e-18
3.66767e-18
2.76429e-18
2.24635e-18
3.64596e-18
5.58174e-18
6.86127e-18
4.48702e-18
2.9202e-18
2.45626e-18
1.78976e-18
1.21256e-18
1.27099e-18
1.77337e-18
2.21892e-18
2.38861e-18
2.02814e-18
1.68431e-18
1.46122e-18
1.44065e-18
1.26666e-18
1.40012e-18
2.39224e-18
3.29817e-18
2.8458e-18
1.50619e-18
1.36952e-18
2.17387e-18
4.73522e-18
7.99482e-18
4.3553e-18
2.31129e-18
1.84067e-18
1.75944e-18
1.78478e-18
2.571e-18
4.24053e-18
5.22393e-18
3.57794e-18
2.08114e-18
1.60218e-18
1.82604e-18
2.47651e-18
2.93682e-18
2.9874e-18
2.7849e-18
2.44227e-18
2.00548e-18
1.66531e-18
1.98335e-18
2.60435e-18
2.77318e-18
2.61543e-18
3.48407e-18
5.7217e-18
6.62082e-18
3.26775e-18
1.78412e-18
1.47072e-18
1.43371e-18
1.10323e-18
8.84189e-19
1.06422e-18
1.98716e-18
3.13543e-18
2.9123e-18
2.1891e-18
1.99271e-18
1.711e-18
1.7788e-18
2.83456e-18
4.24115e-18
3.91602e-18
4.23676e-18
4.49416e-18
3.19935e-18
1.68422e-18
1.06757e-18
1.24748e-18
1.93996e-18
2.3617e-18
2.56822e-18
2.03196e-18
1.48544e-18
1.20688e-18
1.11701e-18
1.45525e-18
2.4072e-18
2.66847e-18
1.98492e-18
1.85382e-18
1.64923e-18
9.27632e-19
7.46739e-19
1.08907e-18
1.59567e-18
2.0464e-18
2.63487e-18
2.94001e-18
2.62721e-18
1.9622e-18
1.96312e-18
3.01167e-18
2.40622e-18
1.66883e-18
2.32444e-18
3.20672e-18
2.09257e-18
1.42838e-18
1.6407e-18
2.44741e-18
3.10252e-18
2.45005e-18
2.48568e-18
3.81983e-18
2.71889e-18
2.04935e-18
1.98899e-18
1.98621e-18
2.29065e-18
2.03684e-18
1.65548e-18
1.60644e-18
2.51248e-18
1.6071e-18
1.49596e-18
2.00137e-18
1.36798e-18
8.78767e-19
8.73695e-19
2.26733e-18
4.35845e-18
5.07097e-18
2.61414e-18
3.58928e-18
3.32732e-18
2.73967e-18
2.66336e-18
3.91418e-18
1.60403e-18
1.56536e-18
2.11898e-18
2.421e-18
1.99566e-18
7.02942e-19
1.47638e-18
1.14792e-18
5.24727e-19
1.51874e-18
2.57008e-18
2.0305e-18
3.02218e-18
3.37185e-18
1.66783e-18
2.69936e-18
1.12569e-18
1.67991e-18
5.79057e-18
4.89715e-18
1.41428e-18
6.32477e-19
8.14601e-19
7.8398e-19
7.62092e-19
9.5776e-19
1.32205e-18
1.66894e-18
3.82569e-18
1.625e-18
1.41365e-18
8.9554e-19
1.09404e-18
7.21316e-19
1.52201e-18
1.81523e-18
1.4376e-18
9.21159e-19
1.05461e-18
6.75414e-19
1.14739e-18
8.07817e-19
2.43108e-18
4.16358e-18
1.10464e-18
7.60178e-19
8.82621e-19
1.89341e-18
2.19233e-18
8.26241e-19
1.70324e-18
8.92916e-19
2.01429e-18
1.22451e-18
1.38757e-18
5.06159e-19
9.81244e-19
9.42983e-19
2.66937e-18
2.34846e-18
2.58129e-18
1.1098e-18
1.35643e-18
2.49618e-18
2.41368e-18
9.93972e-19
9.53711e-19
1.46541e-18
9.20743e-19
6.82215e-19
1.18873e-18
9.79229e-19
1.7595e-18
2.59334e-18
9.98879e-19
1.51944e-18
2.13837e-18
1.23459e-18
1.15932e-18
1.846e-18
1.02949e-18
9.89592e-19
8.61405e-19
6.73356e-19
1.0738e-18
1.86961e-18
2.06376e-18
6.37364e-19