/*--------------------------------*- C++ -*----------------------------------*\
  =========                 |
  \\      /  F ield         | OpenFOAM: The Open Source CFD Toolbox
   \\    /   O peration     | Website:  https://openfoam.org
    \\  /    A nd           | Version:  7
     \\/     M anipulation  |
\*---------------------------------------------------------------------------*/
FoamFile
{
    version     2.0;
    format      ascii;
    class       volScalarField;
    location    "2000";
    object      k2Write;
}
// * * * * * * * * * * * * * * * * * * * * * * * * * * * * * * * * * * * * * //

dimensions      [0 2 0 0 0 0 0];

internalField   nonuniform List<scalar> 
160000
(
1.53083e-18
2.16456e-18
2.10318e-18
2.9649e-18
4.26923e-18
2.08077e-18
3.45674e-18
1.29299e-18
2.204e-18
4.54452e-18
3.4719e-18
2.42709e-18
4.66461e-18
3.77395e-18
1.32807e-18
2.15856e-18
1.54698e-18
1.51688e-18
2.68625e-18
2.56767e-18
2.88132e-18
2.40526e-18
2.60494e-18
3.94851e-18
3.73943e-18
5.12193e-18
4.02585e-18
2.49871e-18
3.05106e-18
1.70741e-18
1.66178e-18
3.36172e-18
7.39012e-18
3.61588e-18
3.03988e-18
3.91019e-18
3.29691e-18
4.94063e-18
1.36115e-18
2.25143e-18
3.19965e-18
3.15562e-18
3.9947e-18
1.69165e-18
3.18818e-18
3.08221e-18
2.60752e-18
1.90045e-18
3.61199e-18
2.10651e-18
3.07923e-18
5.27136e-18
3.39708e-18
2.46965e-18
4.73107e-18
1.61644e-18
5.5398e-18
1.61026e-18
1.34308e-18
1.87895e-18
8.34347e-18
2.34075e-18
2.22715e-18
1.74567e-18
1.28193e-18
5.37389e-18
3.61444e-18
4.55834e-18
1.18295e-18
4.95962e-19
4.7251e-18
1.47918e-18
4.0553e-18
1.93492e-18
3.25557e-18
2.56132e-18
3.5785e-18
2.28202e-18
4.57541e-18
2.63576e-18
4.94444e-18
6.62303e-18
3.39357e-18
2.54335e-18
2.44807e-18
2.19319e-18
2.27294e-18
1.44817e-18
2.20674e-18
3.73666e-18
1.41892e-18
4.54477e-18
5.54671e-18
4.66795e-18
3.19426e-18
1.46232e-18
2.59408e-18
1.91985e-18
2.05733e-18
1.2928e-18
2.41706e-18
9.56123e-19
3.74873e-18
2.03039e-18
1.21518e-18
3.11991e-18
1.17757e-18
2.73098e-18
3.4197e-18
3.35016e-18
4.69335e-18
1.42496e-18
4.43446e-18
2.16954e-18
1.75223e-18
2.58739e-18
1.52382e-18
2.01015e-18
4.02865e-18
2.96911e-18
2.41379e-18
1.6148e-18
2.89585e-18
3.50378e-18
4.15509e-18
6.98019e-18
5.78252e-18
2.1426e-18
2.84845e-18
3.13529e-18
2.14228e-18
1.52267e-18
2.28535e-18
5.62938e-18
3.79991e-18
3.09268e-18
1.78583e-18
2.6089e-18
1.6134e-18
9.84522e-19
2.72599e-18
4.10317e-18
7.87986e-19
2.69829e-18
5.80513e-18
2.82622e-18
2.95743e-18
2.72986e-18
2.4655e-18
1.48468e-18
1.11101e-18
1.98072e-18
1.16365e-18
3.13307e-18
1.05709e-18
2.46606e-18
2.47973e-18
4.75586e-18
3.0279e-18
3.58835e-18
1.9102e-18
2.42682e-18
1.82696e-18
4.4499e-18
1.15569e-18
2.84461e-18
2.82526e-18
1.55602e-18
2.22552e-18
1.52924e-18
4.81169e-18
6.78688e-18
2.33951e-18
6.40579e-18
3.42438e-18
1.64093e-18
2.22381e-18
2.47555e-18
5.52198e-18
4.89351e-18
1.04145e-18
3.68707e-18
1.4647e-18
1.02908e-18
1.10723e-18
1.23265e-18
1.60698e-18
1.58083e-18
1.11497e-18
2.25975e-18
3.23567e-18
2.39392e-18
3.29491e-18
4.79283e-18
9.00336e-18
9.95107e-19
1.92339e-18
1.03668e-17
2.25174e-17
2.20133e-17
1.34852e-17
6.68915e-18
3.4024e-18
1.92142e-18
2.15009e-18
5.14135e-18
6.08148e-18
4.83292e-18
4.36081e-18
3.76444e-18
3.99717e-18
4.23327e-18
2.52639e-18
2.21549e-18
3.22259e-18
2.52707e-18
1.46482e-18
2.56144e-18
5.76702e-18
5.00439e-18
4.73793e-18
3.08497e-18
8.9133e-19
8.49893e-19
1.04268e-18
1.40831e-18
2.61179e-18
1.00789e-18
2.95607e-18
2.11197e-18
6.19891e-19
1.65584e-18
1.20201e-18
2.46095e-18
2.26108e-18
2.88557e-18
1.35743e-18
2.48537e-18
1.19093e-18
2.13936e-18
1.50301e-18
1.07609e-18
1.60615e-18
1.21523e-18
1.93295e-18
1.77629e-18
2.58082e-18
3.00194e-18
1.3107e-17
1.19917e-17
1.08636e-17
6.40236e-18
2.74123e-18
1.73913e-18
1.38042e-18
2.74289e-18
1.96386e-18
9.4613e-19
2.04521e-18
1.13539e-17
1.71349e-17
3.80718e-18
1.70028e-18
8.54866e-19
1.36837e-18
3.32991e-18
3.06659e-18
1.06457e-18
2.11336e-18
7.42094e-18
2.17145e-18
1.63231e-18
2.51802e-18
2.01595e-18
1.30571e-18
9.26227e-19
1.87336e-18
5.97035e-18
2.93834e-18
2.63834e-18
1.62037e-18
1.71381e-18
2.14992e-18
2.90992e-18
3.30266e-18
2.56508e-18
4.13437e-18
1.7137e-18
2.0071e-18
2.3044e-18
2.23806e-18
5.65999e-19
1.31993e-18
1.93647e-18
2.4053e-18
2.71284e-18
3.468e-18
8.31229e-19
2.15901e-18
1.45456e-18
5.97354e-18
1.74792e-17
2.96346e-17
2.10753e-17
1.25341e-17
6.69928e-18
4.22112e-18
3.36599e-18
2.21214e-18
2.10849e-18
2.36888e-18
1.51182e-18
1.61259e-18
3.62638e-18
4.70555e-18
5.92879e-18
5.399e-18
1.75052e-18
1.02889e-18
1.3605e-18
9.87468e-19
1.16821e-18
1.12155e-18
3.55895e-18
5.15473e-18
5.89804e-18
5.36982e-18
4.87477e-18
4.06332e-18
3.0867e-18
1.87424e-18
2.82425e-18
2.3533e-18
2.12112e-18
2.35903e-18
2.15808e-18
1.99165e-18
2.59125e-18
9.43456e-18
4.33961e-18
1.23256e-18
1.89623e-18
2.55653e-18
1.87383e-18
3.55451e-18
1.37635e-18
1.69825e-18
3.16232e-18
3.07431e-18
3.09088e-18
2.7001e-18
1.47747e-18
2.16068e-18
1.66423e-18
2.18479e-18
2.01331e-18
2.59681e-18
2.45251e-18
2.37799e-18
1.46777e-18
1.40252e-18
1.38682e-18
2.15221e-18
1.55906e-18
3.21962e-18
3.60634e-18
2.15065e-18
8.0308e-18
5.55021e-18
2.31611e-18
1.75531e-18
2.54011e-18
2.5236e-18
7.28973e-18
1.7885e-18
4.50699e-18
1.73307e-18
1.69486e-18
1.21081e-18
1.47396e-18
1.69972e-18
1.59922e-18
1.53962e-18
2.53732e-18
3.03778e-18
3.23958e-18
4.02966e-18
3.67602e-18
2.47124e-18
1.97759e-18
2.60104e-18
2.00557e-18
3.0937e-18
2.66168e-18
1.64051e-18
6.39393e-18
4.51061e-18
1.3737e-18
9.91464e-18
5.87896e-18
6.35903e-18
1.46124e-18
1.99034e-18
1.9576e-18
1.685e-18
2.21279e-18
3.4207e-18
2.49687e-18
2.59582e-18
2.99301e-18
3.46746e-18
2.03351e-18
2.33503e-18
2.80166e-18
4.28891e-18
1.74524e-18
1.97522e-18
6.25298e-18
5.69446e-18
4.00139e-18
2.28568e-18
2.3816e-18
3.70226e-18
3.60199e-18
1.56659e-18
2.23031e-18
6.40225e-18
5.24746e-18
2.55062e-18
3.97134e-18
3.42803e-18
2.4009e-18
3.11375e-18
2.41116e-18
1.70832e-18
3.27174e-18
4.90428e-18
5.95333e-19
2.91438e-18
6.22138e-18
3.42948e-18
2.18185e-18
4.11723e-18
1.30531e-18
3.10435e-18
5.01485e-18
2.46656e-18
1.51596e-18
3.28519e-18
5.54377e-18
2.47592e-18
2.72233e-18
2.00197e-18
7.07587e-18
1.09472e-18
2.53309e-18
3.37292e-18
1.72464e-18
2.1747e-18
2.3267e-18
2.47855e-18
3.14572e-18
1.81428e-18
1.5837e-18
2.76685e-18
2.59749e-18
1.3801e-18
4.31624e-18
4.03423e-18
6.1201e-18
5.86955e-18
3.71459e-18
1.4714e-18
2.38568e-18
2.27475e-18
3.6346e-18
2.26905e-18
2.33414e-18
1.9787e-18
4.24015e-18
3.59163e-18
2.7282e-18
2.78515e-18
2.71637e-18
6.53829e-18
6.65764e-18
1.83435e-18
2.17115e-18
2.5313e-18
3.64587e-18
4.7977e-18
3.3097e-18
6.44047e-18
4.34066e-18
1.76018e-18
3.17134e-18
2.53356e-18
3.17525e-18
3.05493e-18
1.68036e-18
3.59006e-18
2.70446e-18
1.25943e-18
5.23529e-18
3.07043e-18
1.68637e-18
3.80087e-18
5.36875e-18
3.38375e-18
3.7766e-18
3.1489e-18
1.40897e-18
1.74852e-18
1.56803e-18
1.96534e-18
2.1996e-18
2.21654e-18
2.88159e-18
3.30746e-18
5.62325e-18
5.38382e-18
2.77458e-18
2.6904e-18
2.71185e-18
2.42949e-18
2.72965e-18
2.63329e-18
1.76728e-18
2.75521e-18
2.13476e-18
1.90295e-18
8.17648e-19
4.74938e-18
6.34349e-18
3.54344e-18
1.17842e-18
5.61174e-18
2.07107e-18
1.25508e-18
1.66379e-18
2.58754e-18
3.45932e-18
2.92929e-18
3.68551e-18
3.92125e-18
1.62565e-18
2.90933e-18
2.17607e-18
1.86327e-18
1.13607e-18
5.30908e-18
1.32078e-18
1.34722e-18
2.10384e-18
2.28477e-18
3.73308e-18
1.96113e-18
3.37256e-18
1.68763e-18
3.16435e-18
2.7056e-18
3.66236e-18
2.8515e-18
2.32429e-18
1.90295e-18
2.75255e-18
4.33112e-18
2.03547e-18
2.83476e-18
2.87118e-18
3.07386e-18
2.70156e-18
1.2242e-18
5.0539e-18
2.28707e-18
2.38878e-18
2.75663e-18
2.04152e-18
2.56629e-18
1.9415e-18
1.66876e-18
2.34627e-18
1.34632e-18
6.77397e-19
2.23496e-18
1.80778e-18
1.97834e-18
1.1206e-18
1.89056e-18
5.67409e-18
8.53223e-18
7.58234e-18
4.56794e-18
7.51238e-18
3.06271e-18
3.8766e-18
1.60379e-17
2.88947e-17
1.80764e-17
8.97235e-18
5.57233e-18
3.50686e-18
2.34649e-18
2.44538e-18
5.28167e-18
8.99241e-18
6.05525e-18
3.32804e-18
2.37619e-18
2.7062e-18
2.71949e-18
1.70861e-18
1.4473e-18
2.16447e-18
1.9397e-18
1.47194e-18
1.80362e-18
3.03482e-18
3.17279e-18
1.64538e-18
1.01851e-18
5.25227e-19
7.33201e-19
9.48713e-19
1.76519e-18
2.33797e-18
3.24913e-18
1.43899e-18
2.79915e-18
1.99032e-18
2.10807e-18
2.0063e-18
6.09314e-18
6.99766e-18
1.69605e-18
1.60377e-18
2.33303e-18
2.64992e-18
1.29664e-18
1.73453e-18
1.1819e-18
9.54996e-19
2.31251e-18
2.46926e-18
8.77605e-19
3.03289e-18
4.51635e-18
1.83146e-17
3.133e-17
1.76628e-17
7.19266e-18
3.9255e-18
4.03595e-18
2.82019e-18
2.0904e-18
2.89248e-18
1.56028e-18
1.9922e-18
6.37664e-18
1.05167e-17
2.89691e-18
1.12891e-18
1.08938e-18
1.34865e-18
2.69435e-18
3.80655e-18
1.03617e-18
1.38793e-18
6.46934e-18
7.00486e-18
2.18014e-18
2.68822e-18
3.34878e-18
1.41479e-18
1.22648e-18
1.31942e-18
3.50489e-18
5.59696e-18
2.81451e-18
1.85816e-18
2.15588e-18
2.55361e-18
3.80918e-18
5.83399e-18
4.83135e-18
2.80095e-18
1.74405e-18
1.22442e-18
1.21125e-18
1.37678e-18
6.67195e-19
1.1431e-18
2.0576e-18
2.7385e-18
8.01787e-19
1.85173e-18
3.06578e-18
2.12687e-18
2.07356e-18
1.12375e-17
3.24021e-17
2.57411e-17
1.04842e-17
4.82226e-18
2.73137e-18
1.76602e-18
1.41134e-18
1.65412e-18
1.54145e-18
1.6523e-18
1.68708e-18
1.62853e-18
2.48547e-18
4.11969e-18
5.07912e-18
3.37861e-18
1.26838e-18
7.78605e-19
1.08955e-18
1.22185e-18
1.21999e-18
1.25481e-18
3.13765e-18
1.10928e-17
1.09766e-17
5.27603e-18
3.9453e-18
5.64795e-18
4.01187e-18
2.0646e-18
2.09159e-18
2.43911e-18
1.836e-18
2.32419e-18
2.89304e-18
1.99674e-18
1.84771e-18
2.65903e-18
2.46429e-18
1.59931e-18
1.71676e-18
3.14867e-18
2.75107e-18
2.56895e-18
2.04078e-18
2.46193e-18
2.50404e-18
3.13235e-18
2.53225e-18
2.43815e-18
1.46355e-18
1.47993e-18
1.42441e-18
2.46992e-18
1.87362e-18
1.34235e-18
1.48588e-18
1.67936e-18
1.51497e-18
1.52059e-18
1.50714e-18
1.94126e-18
1.87397e-18
2.07557e-18
4.5787e-18
3.46457e-18
3.67221e-18
4.99559e-18
2.01107e-18
1.37541e-18
1.59785e-18
1.15573e-18
1.7224e-18
1.35224e-18
2.21305e-18
1.27325e-18
1.85802e-18
2.59484e-18
1.36715e-18
2.0224e-18
3.77843e-18
7.63367e-19
4.7407e-18
2.09857e-18
9.76284e-19
3.14588e-18
2.00053e-18
1.50251e-18
2.04673e-18
3.47312e-18
1.56047e-18
2.54811e-18
3.61776e-18
2.1077e-18
1.64279e-18
5.51379e-18
1.55992e-18
3.70783e-18
1.84963e-18
5.17816e-18
1.14001e-18
8.79978e-19
2.74891e-18
1.01614e-18
3.82485e-18
1.19244e-18
2.3098e-18
3.93491e-18
1.61404e-18
3.9235e-18
6.50154e-18
3.5534e-18
2.14222e-18
4.1477e-18
7.06168e-18
3.2364e-18
6.70668e-18
5.09699e-18
2.27673e-18
4.14146e-18
2.55419e-18
2.99951e-18
1.94623e-18
1.42356e-18
1.43006e-18
2.04076e-18
2.46606e-18
2.61699e-18
6.54034e-18
2.80417e-18
2.31802e-18
3.34743e-18
3.43279e-18
4.17264e-18
1.57236e-18
1.97307e-18
2.56768e-18
1.94299e-18
1.88571e-18
2.22717e-18
2.73036e-18
2.67743e-18
2.83911e-18
2.2791e-18
7.86672e-18
2.15654e-18
1.56105e-18
1.57171e-18
3.24458e-18
6.68567e-18
2.91781e-18
1.71948e-18
1.73938e-18
2.15743e-18
2.79443e-18
2.93287e-18
5.53675e-18
4.4725e-18
7.77082e-18
2.17641e-18
2.07624e-18
2.26089e-18
4.42026e-18
1.71951e-18
1.85645e-18
4.49124e-18
1.72466e-18
1.58226e-18
9.47051e-19
2.31644e-18
9.55844e-19
3.44948e-18
3.1771e-18
1.11135e-18
1.48444e-18
2.61316e-18
2.6513e-18
3.55668e-18
5.87143e-18
2.76334e-18
3.58554e-18
4.56695e-18
4.66775e-18
1.83059e-18
3.15801e-18
1.98415e-18
3.60479e-18
4.22687e-18
2.10775e-18
1.45489e-18
3.60786e-18
2.05481e-18
1.16041e-18
2.36937e-18
1.11681e-18
8.77206e-19
1.79882e-18
2.18915e-18
2.40916e-18
1.80725e-18
1.51354e-18
3.15709e-18
1.84051e-18
2.35096e-18
3.60256e-18
3.00285e-18
2.92238e-18
1.70989e-18
2.33793e-18
3.8363e-18
2.13775e-18
2.41736e-18
1.929e-18
1.23234e-18
2.48134e-18
1.95543e-18
2.1651e-18
2.93113e-18
2.98373e-18
2.51883e-18
1.6866e-18
1.59007e-18
2.10425e-18
1.85686e-18
1.62011e-18
1.72881e-18
1.34344e-18
1.99595e-18
2.2688e-18
1.41583e-18
1.77072e-18
3.90754e-18
4.4408e-18
2.45083e-18
2.33358e-18
1.9472e-18
2.16399e-18
2.54496e-18
1.95646e-18
1.95388e-18
3.23485e-18
8.05361e-18
3.21196e-18
2.69525e-18
4.12677e-18
2.36424e-18
2.21137e-18
2.42309e-18
2.2397e-18
1.6625e-18
2.88047e-18
1.79565e-18
2.13411e-18
5.49669e-18
5.68937e-18
1.58327e-18
2.56447e-18
2.46194e-18
2.017e-18
1.92133e-18
1.24033e-18
2.45991e-18
2.36973e-18
2.35318e-18
2.36242e-18
2.39566e-18
2.29472e-18
1.87411e-18
2.79333e-18
5.13132e-18
4.27521e-18
4.02973e-18
3.11938e-18
1.81661e-18
8.4293e-19
1.60224e-18
3.22581e-18
3.02398e-18
1.52749e-18
1.67459e-18
1.44638e-18
1.01787e-18
1.21207e-18
1.87397e-18
1.44777e-18
1.72716e-18
1.87379e-18
3.14517e-18
8.75102e-18
2.37785e-17
2.04217e-17
5.9629e-18
4.12145e-18
5.15958e-18
4.79118e-18
6.67316e-18
8.18167e-18
5.55723e-18
4.83538e-18
3.88946e-18
2.78915e-18
2.35715e-18
2.56402e-18
3.73506e-18
3.58877e-18
2.96643e-18
1.95056e-18
1.56121e-18
2.08871e-18
2.18552e-18
1.42271e-18
1.15812e-18
1.65348e-18
1.67635e-18
1.32118e-18
1.40365e-18
1.94567e-18
2.11661e-18
1.56663e-18
1.04385e-18
9.93171e-19
1.28973e-18
1.50599e-18
2.03921e-18
2.22837e-18
2.45689e-18
1.62898e-18
1.72966e-18
3.27257e-18
1.9715e-18
1.30646e-18
2.14153e-18
3.98233e-18
1.46093e-18
1.72386e-18
2.8835e-18
1.4985e-18
1.12063e-18
1.23053e-18
2.40134e-18
3.11466e-18
2.07702e-18
2.52371e-18
1.43623e-18
2.54058e-18
3.06881e-18
1.74577e-17
4.07194e-17
1.55914e-17
4.82627e-18
2.91552e-18
2.67784e-18
2.79253e-18
2.00479e-18
1.6243e-18
1.70482e-18
1.50712e-18
2.00579e-18
3.17627e-18
2.52125e-18
1.42065e-18
1.52267e-18
1.60177e-18
1.95036e-18
2.29841e-18
1.80422e-18
1.76779e-18
3.3476e-18
4.03459e-18
1.89891e-18
1.2537e-18
2.06321e-18
2.63667e-18
2.04987e-18
2.2344e-18
2.1169e-18
3.58775e-18
5.30594e-18
2.72965e-18
3.12661e-18
3.46956e-18
4.37469e-18
3.73688e-18
2.49659e-18
1.33616e-18
1.36983e-18
1.52717e-18
1.44255e-18
1.5914e-18
1.57191e-18
1.77937e-18
1.39749e-18
9.74459e-19
1.0047e-18
2.9361e-18
1.0904e-17
8.29925e-18
3.01598e-18
9.77262e-18
1.84906e-17
1.44485e-17
5.62097e-18
2.60338e-18
1.76989e-18
1.81616e-18
2.22639e-18
2.72816e-18
2.01758e-18
1.5002e-18
1.76992e-18
2.1237e-18
2.10841e-18
2.35342e-18
2.9097e-18
2.1289e-18
1.22203e-18
1.18606e-18
1.77962e-18
1.96512e-18
1.65342e-18
1.84937e-18
3.6731e-18
7.26337e-18
8.73185e-18
3.93347e-18
2.27084e-18
2.20666e-18
2.12305e-18
1.77708e-18
1.61841e-18
1.94113e-18
2.47752e-18
1.5091e-18
1.41659e-18
1.39441e-18
1.1959e-18
1.45062e-18
1.80438e-18
1.70751e-18
1.71944e-18
1.95488e-18
1.76776e-18
2.34773e-18
3.26773e-18
2.74068e-18
2.87283e-18
3.77971e-18
3.07832e-18
1.38041e-18
9.71757e-19
1.63124e-18
2.0101e-18
3.05594e-18
3.04034e-18
1.49008e-18
1.39921e-18
2.10938e-18
2.73211e-18
1.72817e-18
8.9148e-19
1.20092e-18
2.00174e-18
3.15349e-18
3.22307e-18
3.10646e-18
1.30247e-18
1.43169e-18
1.9027e-18
1.28685e-18
1.39251e-18
2.02585e-18
2.45458e-18
3.02272e-18
3.29743e-18
3.06568e-18
2.46234e-18
2.07054e-18
1.34689e-18
1.29776e-18
2.33633e-18
1.3101e-18
1.68096e-18
2.35413e-18
2.93232e-18
1.72047e-18
1.21265e-18
2.54967e-18
2.67242e-18
2.86795e-18
2.23386e-18
1.33073e-18
3.14614e-18
3.05241e-18
2.20149e-18
3.11994e-18
2.94054e-18
1.73509e-18
4.10781e-18
3.77125e-18
2.52039e-18
5.19004e-18
4.64676e-18
4.85932e-18
5.32187e-18
5.78845e-18
5.41906e-18
3.61087e-18
5.66194e-18
3.70202e-18
5.30324e-18
2.30611e-18
2.59037e-18
2.7988e-18
1.96976e-18
6.14845e-18
3.82563e-18
5.29629e-18
4.52705e-18
3.36537e-18
3.5774e-18
1.74366e-18
6.73262e-18
1.73375e-18
3.03982e-18
6.81776e-18
1.60023e-18
1.95835e-18
3.45257e-18
2.31731e-18
7.5276e-19
1.39285e-18
1.83007e-18
2.83429e-18
3.55218e-18
4.26694e-18
3.16924e-18
4.22013e-18
9.74005e-19
2.08059e-18
5.70746e-18
5.96479e-18
3.61105e-18
3.00081e-18
3.21766e-18
4.49089e-18
3.05466e-18
3.2949e-18
2.21198e-18
2.79138e-18
1.88368e-18
5.36405e-18
3.96077e-18
1.07759e-18
3.61643e-18
2.89363e-18
2.06272e-18
1.76832e-18
2.64093e-18
2.12452e-18
3.95393e-18
2.60648e-18
5.1693e-18
2.74661e-18
2.07822e-18
2.33584e-18
2.71058e-18
2.56188e-18
1.91999e-18
2.83819e-18
4.02986e-18
1.12309e-18
1.34683e-18
1.78201e-18
3.30757e-18
6.33113e-18
4.81371e-18
1.83318e-18
4.22123e-18
2.74736e-18
8.74099e-19
4.38719e-18
3.20024e-18
2.47495e-18
1.88202e-18
4.82373e-18
4.92011e-18
4.38037e-18
5.42708e-18
2.6314e-18
6.47121e-18
1.84481e-18
3.86745e-18
2.56726e-18
2.40537e-18
1.57875e-18
3.93263e-18
1.71118e-18
1.67452e-18
2.40986e-18
5.39923e-18
2.46424e-18
2.47394e-18
3.33526e-18
2.53203e-18
3.56993e-18
4.40552e-18
3.47073e-18
2.69095e-18
2.78926e-18
3.17837e-18
1.78017e-18
3.50651e-18
2.63587e-18
1.77826e-18
1.88863e-18
2.73529e-18
2.81986e-18
4.14255e-18
4.34171e-18
2.20591e-18
2.08826e-18
2.062e-18
3.1465e-18
1.20348e-18
2.77282e-18
3.4724e-18
3.75983e-18
2.17886e-18
1.73122e-18
2.336e-18
2.00523e-18
3.21024e-18
2.33267e-18
2.2803e-18
2.40176e-18
1.29571e-18
2.2043e-18
2.64137e-18
2.08559e-18
2.23281e-18
3.7746e-18
1.17031e-18
1.85639e-18
3.21218e-18
3.12511e-18
4.14895e-18
2.63646e-18
1.80613e-18
1.27348e-18
3.60836e-18
2.13012e-18
2.3767e-18
1.6015e-18
1.543e-18
2.02119e-18
1.94338e-18
3.69953e-18
3.39622e-18
1.60215e-18
2.38881e-18
2.58306e-18
2.8878e-18
3.15408e-18
2.84823e-18
1.8652e-18
2.06358e-18
2.40991e-18
3.47202e-18
5.00253e-18
6.03864e-18
3.63468e-18
1.86008e-18
2.14252e-18
3.3647e-18
2.75737e-18
2.7759e-18
2.80359e-18
1.55513e-18
1.2266e-18
1.81035e-18
2.34848e-18
9.37332e-19
8.31239e-19
1.72318e-18
2.10475e-18
2.27541e-18
2.67495e-18
1.19483e-17
2.74292e-17
1.99707e-17
5.88403e-18
3.52854e-18
5.1577e-18
5.83128e-18
4.76744e-18
3.54759e-18
2.68038e-18
3.02618e-18
3.19283e-18
3.01028e-18
2.42808e-18
1.64791e-18
1.6063e-18
2.4529e-18
2.59529e-18
2.40893e-18
2.09037e-18
2.02187e-18
2.3582e-18
1.77005e-18
1.22695e-18
1.68042e-18
2.65037e-18
2.30735e-18
1.85699e-18
1.75271e-18
1.43591e-18
1.38665e-18
1.32223e-18
1.38548e-18
1.90969e-18
2.30039e-18
2.3876e-18
2.62236e-18
2.6814e-18
2.36632e-18
1.75519e-18
1.51392e-18
1.476e-18
1.28825e-18
1.57736e-18
1.77351e-18
9.96369e-19
1.06632e-18
1.10386e-18
1.14368e-18
1.43073e-18
1.80377e-18
1.48294e-18
1.44773e-18
1.35135e-18
1.03503e-18
1.66737e-18
2.06736e-18
3.01604e-18
1.06915e-17
2.78726e-17
1.71399e-17
5.28507e-18
2.57576e-18
1.95415e-18
2.74527e-18
2.157e-18
1.40762e-18
1.64063e-18
1.96405e-18
2.28611e-18
3.03127e-18
3.01272e-18
1.9843e-18
1.47963e-18
1.65621e-18
2.25593e-18
2.77949e-18
2.49251e-18
2.10014e-18
1.60901e-18
2.22419e-18
2.82082e-18
2.78762e-18
4.63797e-18
5.60495e-18
2.21095e-18
9.39223e-19
9.65334e-19
1.71552e-18
3.16469e-18
3.06108e-18
3.09687e-18
3.06243e-18
2.49392e-18
2.05581e-18
1.8607e-18
1.99007e-18
2.36739e-18
1.73904e-18
1.31699e-18
1.31264e-18
2.15083e-18
2.78681e-18
1.4769e-18
1.11035e-18
1.39797e-18
3.57676e-18
1.04173e-17
1.07257e-17
5.31986e-18
5.12422e-18
7.8311e-18
5.9767e-18
3.1165e-18
1.51784e-18
1.27642e-18
1.96468e-18
2.37817e-18
1.95019e-18
1.9554e-18
2.05874e-18
2.07482e-18
2.45201e-18
2.23013e-18
1.81808e-18
1.99996e-18
2.43225e-18
2.29733e-18
1.99475e-18
1.85959e-18
1.25913e-18
1.38859e-18
2.01329e-18
2.84585e-18
3.43316e-18
3.3952e-18
2.49207e-18
1.59587e-18
1.45844e-18
1.51751e-18
1.47268e-18
2.0415e-18
1.92296e-18
1.73354e-18
1.74449e-18
1.83825e-18
1.77744e-18
2.81037e-18
2.69116e-18
2.62613e-18
3.54171e-18
3.24521e-18
1.8015e-18
1.70503e-18
1.77001e-18
1.68605e-18
2.49157e-18
3.58409e-18
3.18062e-18
1.71649e-18
1.39864e-18
1.27532e-18
1.15727e-18
1.31417e-18
1.3278e-18
1.37508e-18
1.9538e-18
1.6522e-18
1.9937e-18
1.74808e-18
2.02449e-18
2.44805e-18
2.86953e-18
1.91717e-18
2.11159e-18
2.39118e-18
2.02131e-18
3.19442e-18
1.39956e-18
1.39009e-18
1.39935e-18
1.15944e-18
1.8661e-18
1.94824e-18
1.29185e-18
1.76948e-18
1.99996e-18
2.30022e-18
2.57275e-18
1.34535e-18
8.88571e-19
1.69514e-18
2.94192e-18
2.49978e-18
7.57799e-19
3.75638e-18
4.23839e-18
2.35513e-18
1.40151e-18
1.76948e-18
3.04473e-18
1.52238e-18
3.39683e-18
2.10614e-18
1.35096e-18
1.02193e-18
2.09705e-18
1.61102e-18
1.60244e-18
1.63519e-18
2.85144e-18
4.16384e-18
5.07591e-18
3.92434e-18
3.90842e-18
5.1789e-18
2.98593e-18
2.61607e-18
2.51357e-18
1.56106e-18
3.6126e-18
3.21365e-18
1.69288e-18
1.93517e-18
6.01489e-19
4.60918e-18
8.48815e-18
2.31876e-18
1.3086e-18
4.23048e-18
3.90283e-18
5.80062e-18
7.59582e-18
2.45812e-18
1.96366e-18
1.21682e-18
2.0411e-18
2.14255e-18
1.02533e-18
3.16419e-18
5.36902e-18
3.01841e-18
4.456e-18
3.88158e-18
1.78087e-18
2.64917e-18
5.45899e-18
2.92934e-18
1.06607e-18
1.79529e-18
2.63122e-18
5.35484e-18
3.87832e-18
2.13634e-18
4.55106e-18
2.46334e-18
1.78828e-18
1.8303e-18
2.94614e-18
2.08986e-18
3.98808e-18
8.1076e-18
3.05529e-18
3.24309e-18
3.41187e-18
2.76889e-18
1.84538e-18
2.60484e-18
3.24316e-18
1.73786e-18
2.99632e-18
3.14817e-18
1.59084e-18
2.19546e-18
2.32188e-18
2.78527e-18
1.71556e-18
1.95978e-18
4.53868e-18
3.62365e-18
3.21673e-18
1.78517e-18
2.57925e-18
1.46068e-18
1.38608e-18
3.04415e-18
2.57814e-18
4.0727e-18
5.36678e-18
2.63043e-18
3.29098e-18
2.97256e-18
7.74659e-18
1.74626e-18
1.92724e-18
2.5824e-18
2.15249e-18
2.91584e-18
4.31992e-18
2.52705e-18
2.50372e-18
2.43163e-18
2.555e-18
2.34727e-18
1.8987e-18
2.45646e-18
2.45552e-18
1.81934e-18
3.306e-18
3.80617e-18
2.63531e-18
2.07296e-18
4.7913e-18
6.18584e-18
3.32413e-18
1.0264e-18
3.31875e-18
2.84597e-18
3.88515e-18
3.52734e-18
2.23083e-18
2.52016e-18
2.75453e-18
2.175e-18
2.17875e-18
4.5297e-18
6.55269e-18
4.8622e-18
1.43885e-18
1.54997e-18
4.85393e-18
3.05347e-18
2.06872e-18
3.06527e-18
2.34074e-18
2.56313e-18
2.37587e-18
4.79101e-18
3.3654e-18
1.67055e-18
1.6232e-18
2.0513e-18
2.53722e-18
2.05333e-18
4.1995e-18
4.35566e-18
4.01878e-18
1.78964e-18
1.90539e-18
1.28764e-18
1.519e-18
2.94688e-18
3.13583e-18
3.70429e-18
2.97793e-18
4.50003e-18
2.2135e-18
2.49684e-18
3.23947e-18
1.80429e-18
1.45486e-18
2.39484e-18
2.04287e-18
1.80832e-18
2.08252e-18
2.74244e-18
3.77895e-18
3.75121e-18
4.08538e-18
3.6711e-18
1.6706e-18
1.16697e-18
2.17533e-18
3.31578e-18
4.25694e-18
5.09782e-18
2.92892e-18
1.67036e-18
2.47288e-18
6.49759e-18
4.46228e-18
2.79802e-18
2.9562e-18
1.61029e-18
1.90396e-18
2.06117e-18
1.52935e-18
2.43929e-18
2.34346e-18
2.00722e-18
1.92936e-18
1.7813e-18
1.68477e-18
2.18916e-18
2.96196e-18
1.89078e-18
1.29864e-18
9.73776e-19
3.39965e-18
1.98324e-17
3.91836e-17
1.89602e-17
5.7989e-18
3.00973e-18
2.41503e-18
2.69784e-18
2.76335e-18
1.80869e-18
1.3621e-18
1.7488e-18
2.65316e-18
3.90945e-18
4.20795e-18
3.14568e-18
2.52754e-18
2.29495e-18
2.67527e-18
2.73844e-18
2.27035e-18
1.7807e-18
1.64972e-18
1.97004e-18
2.26309e-18
3.20824e-18
4.56757e-18
3.78141e-18
2.95103e-18
2.02846e-18
1.54764e-18
1.77754e-18
2.11472e-18
2.21684e-18
2.62523e-18
2.49309e-18
2.22977e-18
2.17319e-18
2.31256e-18
1.84973e-18
1.52353e-18
1.62919e-18
1.67029e-18
1.90925e-18
1.57958e-18
2.18335e-18
2.3766e-18
1.38909e-18
1.82826e-18
2.2291e-18
1.67199e-18
1.29587e-18
1.07874e-18
1.0273e-18
1.9849e-18
3.13092e-18
2.96703e-18
2.85804e-18
3.75069e-18
1.16021e-17
1.99341e-17
1.27408e-17
5.2073e-18
2.25264e-18
1.57324e-18
1.63959e-18
1.59495e-18
1.59338e-18
1.67744e-18
1.87776e-18
2.26353e-18
2.35201e-18
2.4377e-18
2.48901e-18
2.11693e-18
1.63113e-18
1.47261e-18
1.66764e-18
2.43545e-18
2.56724e-18
2.03813e-18
3.21062e-18
5.69298e-18
5.97032e-18
3.28725e-18
2.39094e-18
1.74049e-18
1.05369e-18
1.37921e-18
2.47839e-18
3.39772e-18
3.8247e-18
3.39229e-18
2.70246e-18
1.8871e-18
1.45549e-18
1.60587e-18
1.91639e-18
1.60978e-18
1.40538e-18
1.84189e-18
3.25292e-18
3.05143e-18
1.9565e-18
1.26914e-18
1.16584e-18
1.30096e-18
2.70513e-18
8.28466e-18
9.82829e-18
6.43659e-18
5.73073e-18
5.3697e-18
4.02493e-18
3.07422e-18
2.96231e-18
2.62447e-18
2.52202e-18
2.38396e-18
2.21295e-18
1.96405e-18
1.30444e-18
1.08801e-18
1.30806e-18
1.97746e-18
2.41248e-18
3.25597e-18
4.72324e-18
4.69879e-18
3.22562e-18
2.45493e-18
2.54384e-18
2.83299e-18
3.30449e-18
4.42568e-18
5.2748e-18
4.696e-18
3.58721e-18
2.32876e-18
1.42084e-18
1.41688e-18
1.87428e-18
2.31127e-18
2.98653e-18
2.94331e-18
2.04911e-18
1.86451e-18
3.01539e-18
3.80443e-18
2.3131e-18
1.42821e-18
1.91555e-18
2.51764e-18
1.78983e-18
1.33542e-18
1.62936e-18
2.49456e-18
3.28201e-18
3.358e-18
2.08685e-18
1.19229e-18
1.33276e-18
1.32779e-18
1.25919e-18
1.08284e-18
1.6971e-18
2.28054e-18
1.97531e-18
2.07054e-18
1.63975e-18
1.83712e-18
2.1666e-18
2.26152e-18
1.87532e-18
2.10755e-18
1.87287e-18
1.98533e-18
2.70053e-18
3.60677e-18
4.78961e-18
4.86162e-18
4.13746e-18
1.9787e-18
1.92915e-18
1.27742e-18
1.42352e-18
1.65779e-18
1.77189e-18
1.51296e-18
7.00452e-19
9.6421e-19
2.56695e-18
1.30669e-18
1.87536e-18
2.92999e-18
2.99187e-18
2.29542e-18
3.5514e-18
3.14108e-18
1.22187e-18
1.35854e-18
2.27258e-18
4.45437e-18
2.79104e-18
1.85865e-18
2.57312e-18
2.42038e-18
3.27984e-18
1.40339e-18
8.59742e-19
2.15167e-18
2.29486e-18
3.53222e-18
7.96178e-19
4.34837e-18
1.52189e-18
1.2004e-18
5.14539e-18
3.64343e-18
2.15323e-18
3.19792e-18
1.45516e-18
1.76345e-18
8.51986e-19
1.94785e-18
3.6984e-18
1.75071e-18
5.03504e-18
4.34568e-18
4.87224e-18
7.41629e-18
2.14607e-18
2.32561e-18
2.93852e-18
4.7399e-18
3.90065e-18
5.45392e-18
2.85389e-18
1.29581e-18
1.94947e-18
2.28767e-18
8.92691e-19
2.34785e-18
1.37477e-18
7.27598e-18
2.9569e-18
3.05274e-18
3.69231e-18
3.55249e-18
4.01811e-18
1.75481e-18
1.80741e-18
2.61977e-18
4.05445e-18
4.14913e-18
2.40149e-18
2.85109e-18
1.84161e-18
1.89699e-18
2.81283e-18
2.90176e-18
2.60765e-18
2.73754e-18
3.2201e-18
7.13802e-18
4.42836e-18
1.9604e-18
3.07455e-18
3.58468e-18
2.08182e-18
2.95191e-18
3.44978e-18
2.66217e-18
1.87547e-18
2.70293e-18
2.38984e-18
1.54694e-18
4.0918e-18
2.24619e-18
3.43848e-18
7.91514e-18
4.92933e-18
2.65944e-18
2.99786e-18
5.00821e-18
2.8428e-18
4.29394e-18
5.06598e-18
2.41608e-18
2.40042e-18
5.57238e-18
3.55396e-18
2.58983e-18
2.12178e-18
1.91578e-18
3.09339e-18
3.46353e-18
2.41604e-18
2.22871e-18
3.38675e-18
4.03942e-18
3.35026e-18
5.90552e-18
5.27495e-18
3.57047e-18
1.88249e-18
2.8053e-18
4.93285e-18
2.67399e-18
2.12734e-18
3.32869e-18
1.37068e-18
1.51789e-18
3.19503e-18
1.57662e-18
2.25131e-18
1.7552e-18
2.86491e-18
3.88651e-18
2.10159e-18
1.85792e-18
1.45454e-18
2.37647e-18
3.71578e-18
4.34052e-18
2.79123e-18
1.68421e-18
1.55922e-18
2.58255e-18
2.16716e-18
1.665e-18
1.68093e-18
1.46285e-18
3.58363e-18
3.58628e-18
2.43888e-18
4.9782e-18
2.63053e-18
4.75244e-18
4.22988e-18
3.0831e-18
3.5491e-18
3.05275e-18
2.90455e-18
3.31405e-18
3.98435e-18
5.51143e-18
3.17486e-18
2.01273e-18
1.49783e-18
3.17967e-18
1.80708e-18
2.00466e-18
1.79084e-18
2.20104e-18
2.32493e-18
2.13932e-18
3.00884e-18
4.33673e-18
2.47643e-18
1.86083e-18
2.8981e-18
3.45443e-18
3.23986e-18
1.78838e-18
1.86732e-18
1.87942e-18
3.07175e-18
2.2283e-18
2.77181e-18
2.02507e-18
1.64027e-18
2.30668e-18
2.44717e-18
3.91167e-18
4.56917e-18
4.61798e-18
3.46244e-18
3.76056e-18
3.63288e-18
3.1804e-18
3.2369e-18
2.02898e-18
1.06635e-18
1.24741e-18
1.15682e-18
9.90624e-19
2.05415e-18
2.95844e-18
2.69402e-18
1.66647e-18
2.28925e-18
2.1036e-18
2.14682e-18
3.4521e-18
2.85721e-18
1.73741e-18
1.54533e-18
1.54e-18
5.16106e-18
4.13363e-17
6.9662e-17
1.9989e-17
5.41987e-18
2.61583e-18
2.66288e-18
3.03356e-18
2.75607e-18
2.4825e-18
2.1297e-18
1.79971e-18
2.11363e-18
3.57595e-18
4.77231e-18
4.67303e-18
4.1134e-18
3.09644e-18
2.29336e-18
2.49483e-18
2.24044e-18
1.67708e-18
1.56122e-18
2.03742e-18
2.60055e-18
2.55832e-18
2.59561e-18
2.97257e-18
2.93959e-18
2.45951e-18
2.24459e-18
2.26404e-18
2.3642e-18
3.11096e-18
3.03614e-18
2.00552e-18
1.31683e-18
1.15963e-18
1.29361e-18
1.71887e-18
1.76193e-18
1.55692e-18
1.44233e-18
1.72603e-18
2.07932e-18
2.81581e-18
1.93792e-18
1.10418e-18
1.79485e-18
3.65184e-18
2.82568e-18
1.38978e-18
1.13405e-18
1.26157e-18
1.73578e-18
2.69949e-18
2.7978e-18
2.27001e-18
3.55772e-18
8.41924e-18
1.14414e-17
7.46906e-18
4.84129e-18
3.88355e-18
2.82629e-18
1.87454e-18
1.55979e-18
1.78184e-18
2.21509e-18
2.38181e-18
2.3359e-18
2.157e-18
1.86957e-18
1.84093e-18
1.61697e-18
1.45293e-18
2.2189e-18
3.05555e-18
3.18289e-18
3.16126e-18
2.87134e-18
4.55302e-18
9.90628e-18
8.67876e-18
3.5304e-18
1.88282e-18
1.49815e-18
1.48892e-18
1.48569e-18
2.00937e-18
3.30951e-18
4.07547e-18
4.03754e-18
2.43856e-18
1.87578e-18
1.84584e-18
2.1835e-18
2.58654e-18
2.62908e-18
2.44867e-18
2.58803e-18
2.55438e-18
2.11912e-18
2.00663e-18
2.37779e-18
2.52981e-18
2.38021e-18
2.74688e-18
9.51278e-18
1.39172e-17
6.86704e-18
3.745e-18
3.08619e-18
3.00527e-18
2.31132e-18
1.85085e-18
2.2264e-18
2.53145e-18
2.24033e-18
2.07951e-18
1.56213e-18
1.48029e-18
1.46373e-18
1.41017e-18
2.01708e-18
3.46924e-18
5.04696e-18
5.47555e-18
5.80815e-18
4.1299e-18
2.17411e-18
1.37655e-18
1.29219e-18
1.70862e-18
2.0789e-18
2.25959e-18
2.21924e-18
1.89875e-18
1.54216e-18
1.41968e-18
1.52796e-18
2.32543e-18
2.57678e-18
1.91548e-18
1.75247e-18
2.44242e-18
1.84862e-18
1.48728e-18
2.16814e-18
3.17525e-18
2.42827e-18
1.80737e-18
2.01684e-18
1.80126e-18
1.34496e-18
1.29136e-18
1.9806e-18
2.02664e-18
1.63665e-18
2.0772e-18
2.86523e-18
2.47841e-18
1.6907e-18
1.63285e-18
2.23622e-18
2.83318e-18
2.23725e-18
2.26786e-18
3.53508e-18
2.97921e-18
2.24483e-18
2.17821e-18
2.17451e-18
2.50744e-18
2.2288e-18
1.81107e-18
1.54602e-18
2.49969e-18
3.01582e-18
3.89638e-18
5.20941e-18
3.56015e-18
2.28637e-18
1.18274e-18
1.2655e-18
2.37769e-18
2.7665e-18
1.4256e-18
1.95748e-18
1.813e-18
1.49371e-18
1.56685e-18
3.7565e-18
1.61539e-18
1.57629e-18
2.23485e-18
2.76888e-18
2.28217e-18
8.03778e-19
1.55867e-18
1.21184e-18
5.53903e-19
1.3362e-18
2.25993e-18
1.7862e-18
2.65686e-18
2.96596e-18
1.46619e-18
2.37426e-18
1.12094e-18
1.67328e-18
5.76628e-18
5.53979e-18
3.97888e-18
2.3666e-18
3.04834e-18
2.02944e-18
2.12451e-18
2.85433e-18
3.91824e-18
4.13631e-18
9.67214e-18
4.52007e-18
3.49029e-18
2.18977e-18
2.6605e-18
1.74452e-18
3.69078e-18
5.26819e-18
4.14782e-18
2.48608e-18
2.83015e-18
1.64429e-18
2.72486e-18
1.87044e-18
5.42997e-18
9.24462e-18
3.01652e-18
1.98804e-18
1.99976e-18
4.26623e-18
4.91145e-18
1.97681e-18
4.12677e-18
2.20542e-18
4.93394e-18
4.12373e-18
4.64582e-18
1.68525e-18
3.2487e-18
1.69248e-18
4.76476e-18
4.16958e-18
4.55747e-18
1.97052e-18
2.36957e-18
4.33693e-18
4.1878e-18
2.15384e-18
2.00976e-18
3.34969e-18
2.09322e-18
1.51589e-18
2.56534e-18
2.10192e-18
3.75626e-18
5.50614e-18
2.14708e-18
3.19693e-18
4.47543e-18
2.58418e-18
2.2458e-18
3.55772e-18
2.28557e-18
2.21403e-18
1.91749e-18
1.49141e-18
2.22631e-18
4.69298e-18
5.76353e-18
1.77087e-18
1.79286e-18
5.12974e-18