/*--------------------------------*- C++ -*----------------------------------*\
  =========                 |
  \\      /  F ield         | OpenFOAM: The Open Source CFD Toolbox
   \\    /   O peration     | Website:  https://openfoam.org
    \\  /    A nd           | Version:  7
     \\/     M anipulation  |
\*---------------------------------------------------------------------------*/
FoamFile
{
    version     2.0;
    format      ascii;
    class       volScalarField;
    location    "2000";
    object      mu1;
}
// * * * * * * * * * * * * * * * * * * * * * * * * * * * * * * * * * * * * * //

dimensions      [1 -1 -1 0 0 0 0];

internalField   nonuniform List<scalar> 
160000
(
0.000374033
0.000375795
0.000377571
0.000379388
0.000381279
0.000383171
0.000385074
0.000386949
0.000388799
0.000390764
0.000392785
0.000394757
0.000396763
0.000398837
0.00040085
0.000402857
0.0004049
0.000406955
0.000409061
0.000411183
0.000413305
0.000415419
0.000417504
0.000419612
0.000421747
0.000423922
0.000426128
0.000428294
0.000430461
0.000432612
0.00043472
0.000436886
0.000439206
0.000441529
0.000443748
0.00044598
0.000448211
0.000450418
0.00045257
0.000454727
0.000457015
0.000459347
0.000461697
0.000463951
0.00046617
0.000468477
0.000470754
0.000472985
0.000475295
0.000477661
0.00048
0.000482358
0.000484676
0.000486951
0.000489256
0.00049151
0.000493836
0.000496196
0.000498431
0.00050067
0.000503054
0.000505464
0.000507758
0.000510028
0.000512249
0.000514575
0.000516976
0.000519359
0.00052167
0.000523813
0.000526068
0.000528388
0.000530648
0.00053291
0.000535155
0.000537442
0.000539736
0.000542004
0.000544281
0.000546565
0.000548848
0.000551207
0.000553527
0.00055577
0.000558023
0.000560299
0.000562553
0.00056475
0.000566934
0.0005692
0.000571422
0.000573629
0.000575936
0.000578233
0.000580457
0.000582587
0.000584727
0.000586908
0.000589086
0.000591224
0.000593374
0.000595494
0.000597612
0.000599785
0.000601871
0.000603977
0.000606079
0.000608167
0.000610318
0.000612461
0.00061462
0.000616677
0.000618712
0.00062078
0.000622781
0.000624811
0.000626835
0.000628835
0.000630907
0.000633014
0.000635077
0.000637068
0.000639043
0.000641049
0.000643051
0.000645087
0.000647155
0.000649127
0.000651049
0.000653016
0.000654961
0.000656843
0.000658727
0.000660704
0.000662695
0.0006646
0.000666448
0.000668298
0.000670125
0.000671881
0.00067368
0.0006756
0.000677428
0.000679201
0.000681094
0.000682955
0.000684746
0.000686535
0.000688308
0.000690041
0.000691745
0.000693467
0.000695159
0.000696884
0.000698607
0.000700298
0.000702009
0.000703736
0.000705458
0.00070716
0.000708842
0.000710504
0.000712163
0.000713855
0.000715501
0.0007171
0.000718751
0.000720344
0.000721906
0.000723456
0.000725028
0.000726667
0.000728217
0.00072976
0.000731331
0.000732808
0.000734264
0.000735733
0.000737239
0.000738781
0.000740219
0.000741652
0.000743108
0.000744493
0.000745881
0.000747292
0.000748722
0.000750166
0.000751593
0.000753048
0.000754565
0.000756049
0.000757471
0.000758884
0.000760326
0.000761645
0.000762876
0.000764233
0.000765732
0.000767228
0.000768644
0.000769968
0.000771215
0.000772408
0.000773588
0.000774819
0.000776091
0.000777333
0.000778543
0.000779738
0.000780925
0.000782114
0.000783277
0.000784411
0.000785555
0.000786696
0.000787797
0.000788898
0.000790049
0.000791207
0.00079233
0.00079343
0.000794474
0.000795486
0.000796512
0.000797554
0.000798622
0.000799658
0.000800693
0.000801757
0.000802752
0.000803733
0.00080474
0.000805762
0.000806776
0.000807764
0.000808725
0.000809677
0.000810613
0.000811535
0.000812462
0.000813356
0.00081425
0.000815145
0.000816031
0.000816927
0.000817845
0.000818795
0.000819823
0.000820883
0.000821866
0.000822784
0.000823638
0.000824447
0.000825229
0.00082602
0.000826818
0.000827579
0.000828343
0.000829184
0.000830087
0.000830915
0.000831666
0.00083239
0.000833117
0.000833882
0.000834656
0.000835382
0.000836102
0.000836876
0.000837629
0.000838325
0.000839024
0.000839718
0.000840385
0.000841025
0.000841671
0.000842364
0.000843063
0.000843732
0.000844381
0.000845014
0.000845649
0.000846292
0.000846938
0.000847567
0.000848187
0.000848788
0.000849366
0.000849947
0.000850527
0.000851076
0.000851616
0.000852179
0.000852745
0.000853311
0.000853887
0.00085443
0.000854948
0.000855469
0.000856015
0.000856615
0.00085722
0.000857788
0.000858311
0.0008588
0.000859268
0.000859728
0.000860181
0.000860626
0.000861071
0.000861509
0.000861938
0.000862379
0.000862835
0.000863292
0.000863737
0.000864152
0.00086454
0.000864926
0.00086531
0.000865689
0.000866068
0.00086646
0.000866866
0.000867265
0.000867654
0.000868033
0.000868404
0.000868762
0.000869103
0.000869441
0.000869778
0.000870105
0.000870429
0.000870746
0.000871051
0.000871347
0.000871657
0.000871974
0.000872259
0.000872535
0.00087282
0.000873103
0.000873378
0.00087364
0.000873892
0.000874146
0.000874399
0.000874645
0.000874886
0.000875117
0.000875343
0.000875567
0.000875786
0.000875999
0.000876208
0.000876415
0.000876616
0.00087681
0.000876996
0.000877178
0.000877359
0.000877536
0.000877711
0.000877885
0.000878049
0.00087821
0.000878371
0.000878515
0.000878648
0.000878777
0.000878904
0.000879032
0.000879154
0.000879269
0.00087938
0.000879484
0.000879581
0.000879675
0.000879766
0.000879851
0.000879932
0.000880009
0.000880082
0.00088015
0.000880214
0.000880273
0.000880327
0.000880375
0.000880419
0.000880458
0.000880492
0.000880521
0.000880546
0.000880566
0.000880583
0.000880595
0.000880603
0.000880608
0.000374074
0.000375845
0.000377594
0.000379408
0.000381268
0.00038314
0.00038504
0.000386948
0.000388838
0.000390781
0.000392791
0.000394779
0.000396748
0.00039876
0.000400823
0.000402857
0.000404858
0.000406948
0.0004091
0.000411239
0.00041335
0.000415431
0.000417533
0.000419668
0.000421778
0.000423873
0.000426047
0.00042827
0.000430445
0.0004326
0.00043477
0.00043696
0.000439223
0.000441522
0.00044375
0.000445957
0.000448225
0.000450386
0.000452487
0.00045474
0.000457069
0.000459354
0.000461677
0.000463928
0.000466151
0.000468489
0.000470777
0.000472984
0.000475255
0.000477669
0.000480061
0.000482374
0.000484634
0.000486959
0.000489262
0.00049149
0.000493824
0.000496152
0.000498435
0.000500734
0.000503057
0.000505416
0.000507748
0.000510016
0.000512287
0.000514649
0.000516977
0.000519283
0.000521585
0.00052383
0.000526123
0.000528428
0.000530675
0.000532897
0.000535143
0.000537442
0.000539747
0.000542019
0.000544288
0.000546573
0.000548886
0.000551198
0.000553486
0.000555716
0.000557976
0.000560311
0.000562564
0.000564756
0.000566962
0.000569189
0.000571444
0.000573681
0.000575943
0.000578234
0.000580415
0.000582545
0.000584705
0.000586881
0.000589079
0.000591224
0.00059337
0.000595542
0.00059763
0.000599741
0.000601893
0.000603977
0.000606062
0.000608203
0.000610341
0.000612475
0.00061462
0.000616686
0.000618718
0.000620751
0.000622767
0.000624797
0.000626816
0.000628843
0.000630906
0.000632996
0.00063508
0.000637094
0.000639079
0.000641082
0.000643085
0.000645101
0.000647126
0.000649093
0.000651042
0.000653004
0.000654944
0.000656822
0.000658735
0.000660754
0.00066273
0.000664576
0.000666421
0.000668302
0.000670102
0.000671873
0.000673686
0.000675569
0.000677424
0.000679248
0.000681123
0.000682949
0.000684737
0.000686531
0.000688291
0.000689994
0.000691739
0.000693492
0.000695161
0.00069687
0.000698604
0.000700334
0.000702042
0.000703754
0.000705453
0.000707134
0.000708817
0.000710494
0.000712183
0.000713855
0.00071549
0.000717104
0.000718749
0.000720348
0.000721906
0.000723486
0.000725082
0.000726685
0.000728217
0.000729755
0.000731303
0.00073278
0.000734269
0.00073576
0.000737252
0.000738743
0.000740194
0.000741641
0.000743082
0.000744461
0.000745856
0.000747289
0.000748724
0.000750155
0.000751583
0.000753068
0.000754604
0.000756108
0.000757529
0.000758934
0.000760314
0.000761606
0.000762909
0.000764328
0.000765806
0.000767245
0.000768618
0.000769925
0.000771167
0.00077237
0.000773581
0.000774839
0.000776108
0.000777337
0.000778535
0.00077973
0.000780927
0.000782106
0.000783256
0.000784405
0.000785556
0.000786683
0.000787789
0.000788916
0.000790077
0.000791218
0.000792321
0.000793391
0.000794433
0.000795466
0.000796508
0.000797565
0.000798632
0.000799668
0.000800699
0.00080174
0.00080274
0.000803723
0.000804737
0.000805796
0.000806804
0.000807763
0.000808721
0.00080968
0.000810611
0.000811531
0.000812456
0.000813349
0.000814243
0.000815153
0.000816031
0.000816914
0.000817835
0.000818823
0.000819898
0.000820938
0.000821883
0.000822762
0.00082361
0.000824432
0.000825225
0.00082602
0.000826808
0.000827572
0.000828368
0.000829235
0.000830092
0.00083088
0.000831629
0.000832368
0.000833118
0.000833898
0.000834653
0.00083537
0.000836113
0.000836892
0.000837625
0.000838323
0.000839031
0.000839719
0.000840376
0.000841018
0.000841673
0.000842371
0.000843067
0.000843728
0.000844374
0.000845012
0.000845651
0.000846301
0.000846949
0.000847577
0.000848186
0.000848779
0.000849362
0.000849945
0.000850514
0.000851063
0.000851616
0.000852185
0.000852748
0.000853309
0.000853883
0.000854433
0.000854952
0.000855481
0.00085606
0.000856676
0.000857256
0.000857792
0.000858297
0.000858781
0.00085925
0.000859712
0.000860168
0.000860617
0.000861063
0.000861503
0.00086194
0.000862388
0.000862847
0.000863301
0.000863731
0.000864136
0.00086453
0.000864921
0.000865306
0.000865686
0.000866069
0.000866472
0.000866883
0.000867277
0.000867654
0.000868029
0.000868402
0.000868758
0.0008691
0.000869441
0.000869776
0.000870104
0.000870431
0.000870749
0.000871055
0.000871358
0.000871664
0.000871964
0.000872249
0.000872532
0.000872819
0.000873102
0.000873374
0.000873636
0.000873892
0.000874149
0.000874402
0.000874646
0.000874884
0.000875115
0.000875341
0.000875567
0.000875788
0.000876001
0.000876208
0.000876414
0.000876615
0.000876808
0.000876994
0.000877177
0.000877359
0.000877536
0.000877714
0.000877889
0.000878053
0.000878215
0.000878371
0.000878512
0.000878648
0.000878778
0.000878905
0.000879031
0.000879153
0.000879268
0.000879377
0.000879482
0.000879581
0.000879674
0.000879767
0.000879851
0.000879932
0.000880012
0.000880083
0.00088015
0.000880214
0.000880273
0.000880326
0.000880375
0.000880419
0.000880458
0.000880492
0.000880522
0.000880546
0.000880567
0.000880583
0.000880595
0.000880604
0.000880608
0.000374049
0.000375809
0.000377602
0.000379417
0.000381273
0.000383159
0.00038502
0.000386949
0.000388859
0.000390777
0.000392789
0.000394786
0.000396733
0.000398714
0.000400789
0.000402837
0.000404877
0.000407016
0.000409128
0.000411242
0.000413359
0.000415467
0.000417586
0.000419676
0.000421776
0.000423886
0.000426027
0.000428198
0.000430424
0.000432633
0.000434781
0.000436968
0.000439214
0.000441521
0.000443778
0.000445965
0.000448183
0.000450366
0.000452519
0.000454756
0.000457056
0.000459349
0.000461634
0.000463866
0.000466173
0.000468528
0.000470769
0.000472984
0.000475259
0.000477666
0.000480076
0.000482393
0.000484649
0.000486922
0.000489218
0.000491486
0.000493789
0.000496108
0.000498459
0.000500791
0.000503061
0.000505362
0.000507721
0.000510044
0.000512304
0.000514673
0.000517044
0.000519338
0.000521592
0.000523865
0.000526115
0.000528351
0.000530661
0.000532905
0.000535132
0.000537433
0.000539734
0.000542012
0.000544338
0.000546621
0.000548874
0.000551179
0.000553496
0.00055573
0.000557968
0.000560246
0.000562496
0.000564773
0.000567023
0.000569223
0.000571469
0.000573738
0.00057595
0.000578183
0.000580383
0.00058251
0.000584666
0.000586855
0.00058905
0.000591238
0.000593388
0.000595541
0.000597662
0.000599748
0.000601865
0.000603991
0.00060612
0.000608229
0.000610321
0.000612462
0.000614584
0.000616653
0.000618719
0.00062074
0.000622762
0.000624799
0.000626809
0.00062885
0.000630941
0.000633031
0.000635078
0.000637079
0.000639086
0.000641096
0.000643094
0.000645109
0.000647106
0.000649071
0.000651038
0.000652979
0.000654887
0.000656825
0.000658822
0.000660803
0.000662724
0.000664581
0.000666412
0.000668258
0.000670077
0.000671866
0.000673678
0.00067557
0.000677449
0.000679263
0.000681114
0.000682954
0.000684741
0.000686515
0.000688268
0.00068999
0.000691733
0.000693467
0.000695145
0.000696865
0.000698647
0.000700368
0.000702053
0.000703768
0.00070546
0.000707138
0.000708802
0.000710475
0.000712173
0.000713848
0.000715495
0.000717128
0.000718759
0.000720351
0.000721913
0.000723509
0.000725115
0.000726688
0.000728236
0.000729774
0.000731274
0.000732745
0.000734253
0.000735774
0.000737252
0.000738711
0.000740174
0.000741615
0.000743026
0.000744432
0.000745845
0.000747266
0.000748696
0.000750135
0.000751615
0.000753155
0.000754734
0.000756219
0.000757591
0.000758959
0.00076032
0.000761651
0.000763004
0.000764391
0.000765802
0.000767212
0.000768575
0.000769874
0.000771117
0.000772351
0.000773601
0.000774855
0.000776096
0.000777306
0.000778508
0.000779719
0.000780911
0.000782075
0.000783237
0.000784404
0.000785552
0.000786677
0.000787798
0.000788934
0.000790076
0.000791195
0.000792283
0.000793354
0.000794411
0.000795465
0.000796524
0.000797589
0.00079864
0.000799666
0.000800703
0.00080174
0.000802738
0.000803733
0.00080477
0.000805805
0.000806788
0.000807768
0.000808735
0.000809673
0.000810592
0.000811512
0.000812444
0.000813353
0.000814252
0.000815145
0.000816028
0.000816922
0.000817871
0.000818936
0.000820008
0.000820974
0.000821867
0.00082273
0.00082358
0.000824408
0.00082521
0.000826007
0.000826798
0.000827587
0.000828402
0.000829241
0.000830057
0.000830837
0.000831599
0.000832358
0.000833126
0.000833895
0.000834644
0.000835386
0.00083615
0.000836904
0.00083762
0.000838322
0.000839026
0.000839707
0.000840366
0.000841018
0.000841681
0.000842375
0.000843062
0.000843722
0.000844374
0.000845022
0.000845671
0.000846316
0.000846947
0.000847563
0.00084817
0.000848765
0.000849352
0.000849935
0.000850507
0.000851067
0.000851618
0.00085217
0.000852732
0.000853316
0.000853904
0.00085445
0.000854984
0.000855544
0.000856132
0.000856716
0.000857261
0.000857776
0.000858272
0.000858754
0.00085923
0.000859698
0.000860154
0.000860605
0.000861055
0.000861503
0.000861948
0.0008624
0.000862855
0.000863294
0.000863714
0.000864122
0.000864523
0.000864916
0.000865303
0.00086569
0.000866087
0.000866497
0.0008669
0.000867282
0.000867654
0.000868025
0.000868391
0.000868747
0.000869094
0.00086944
0.000869778
0.000870108
0.000870433
0.00087075
0.000871059
0.000871364
0.000871666
0.000871961
0.000872247
0.000872531
0.000872813
0.000873093
0.000873368
0.000873634
0.000873896
0.000874155
0.000874405
0.000874643
0.000874877
0.00087511
0.00087534
0.000875568
0.000875789
0.000875999
0.000876207
0.000876414
0.000876616
0.000876808
0.000876992
0.000877175
0.000877358
0.00087754
0.00087772
0.000877894
0.000878058
0.000878218
0.000878369
0.000878511
0.000878647
0.000878777
0.000878905
0.00087903
0.000879152
0.000879268
0.000879378
0.000879481
0.000879579
0.000879674
0.000879766
0.000879851
0.000879933
0.000880012
0.000880085
0.000880151
0.000880213
0.000880272
0.000880326
0.000880376
0.000880419
0.000880458
0.000880493
0.000880522
0.000880547
0.000880567
0.000880583
0.000880595
0.000880604
0.000880608
0.000374042
0.000375812
0.000377607
0.000379436
0.000381298
0.000383187
0.000385054
0.000386958
0.000388888
0.00039084
0.000392809
0.00039474
0.00039671
0.000398713
0.00040077
0.000402832
0.00040489
0.000407013
0.000409125
0.000411259
0.000413353
0.000415477
0.000417594
0.000419644
0.000421805
0.000423934
0.000426012
0.000428192
0.000430441
0.000432628
0.000434786
0.000436979
0.000439205
0.000441489
0.000443771
0.000445977
0.00044819
0.000450355
0.000452488
0.000454749
0.000457073
0.00045937
0.000461633
0.000463871
0.000466161
0.000468473
0.000470744
0.000473005
0.000475317
0.000477655
0.000480018
0.000482408
0.000484659
0.000486907
0.000489233
0.000491527
0.000493802
0.000496105
0.000498424
0.000500738
0.00050303
0.000505346
0.000507717
0.000510035
0.000512327
0.000514684
0.000517062
0.000519361
0.000521607
0.000523912
0.000526166
0.000528353
0.000530588
0.000532831
0.000535126
0.000537494
0.000539776
0.000542052
0.000544395
0.000546634
0.000548883
0.000551199
0.000553469
0.000555678
0.000557914
0.00056022
0.000562493
0.000564767
0.000567004
0.00056926
0.000571504
0.000573715
0.000575948
0.000578159
0.000580317
0.000582483
0.000584688
0.000586849
0.000589005
0.000591223
0.000593447
0.000595589
0.00059769
0.000599775
0.000601871
0.000603996
0.000606128
0.00060823
0.000610323
0.000612453
0.000614544
0.000616605
0.00061869
0.000620746
0.00062278
0.000624802
0.000626807
0.000628852
0.000630964
0.000633039
0.000635059
0.000637066
0.000639097
0.000641092
0.000643072
0.000645105
0.000647122
0.00064909
0.000651019
0.000652953
0.000654886
0.000656857
0.000658865
0.000660834
0.000662751
0.000664591
0.000666399
0.000668234
0.000670061
0.000671868
0.00067373
0.000675589
0.000677407
0.000679249
0.000681095
0.00068294
0.000684755
0.000686516
0.000688235
0.000689974
0.00069173
0.000693461
0.000695177
0.000696891
0.000698629
0.000700346
0.000702061
0.000703789
0.000705454
0.000707102
0.000708779
0.000710467
0.000712174
0.000713867
0.000715517
0.000717144
0.000718774
0.000720384
0.00072197
0.000723567
0.000725147
0.000726678
0.000728191
0.000729718
0.000731241
0.000732747
0.000734264
0.000735765
0.000737222
0.000738669
0.000740145
0.000741598
0.000742996
0.000744394
0.000745812
0.000747243
0.000748689
0.000750182
0.000751755
0.00075336
0.000754875
0.000756261
0.000757614
0.000758988
0.000760355
0.000761699
0.000763034
0.000764389
0.000765777
0.000767174
0.000768545
0.000769853
0.0007711
0.000772339
0.000773591
0.000774835
0.000776064
0.000777276
0.000778486
0.000779695
0.000780876
0.000782043
0.000783223
0.000784402
0.000785553
0.000786685
0.000787808
0.000788932
0.000790057
0.000791166
0.000792257
0.000793337
0.000794406
0.000795469
0.000796536
0.000797601
0.000798649
0.000799678
0.000800706
0.000801726
0.000802736
0.00080376
0.000804788
0.000805804
0.000806801
0.000807773
0.000808726
0.000809665
0.000810591
0.000811514
0.000812441
0.000813348
0.000814243
0.000815137
0.000816035
0.00081697
0.000817988
0.000819058
0.000820058
0.000820972
0.00082184
0.000822698
0.000823551
0.000824377
0.000825182
0.000825987
0.000826789
0.000827597
0.000828417
0.000829235
0.000830029
0.000830803
0.00083157
0.000832344
0.000833122
0.000833896
0.000834658
0.000835412
0.000836166
0.000836902
0.000837617
0.000838336
0.000839039
0.000839704
0.000840355
0.000841014
0.000841692
0.000842379
0.000843058
0.000843726
0.000844382
0.000845028
0.000845668
0.000846303
0.000846933
0.000847552
0.000848159
0.000848753
0.000849341
0.00084993
0.000850504
0.000851057
0.000851604
0.000852165
0.00085275
0.000853346
0.000853924
0.000854478
0.000855035
0.000855604
0.000856175
0.000856727
0.000857249
0.000857756
0.000858255
0.00085874
0.000859213
0.000859677
0.000860134
0.000860592
0.00086105
0.000861503
0.000861953
0.000862404
0.000862852
0.000863287
0.000863708
0.000864116
0.000864515
0.000864912
0.000865308
0.000865708
0.000866111
0.000866513
0.000866903
0.000867279
0.000867649
0.000868015
0.000868379
0.000868739
0.000869091
0.000869436
0.000869775
0.000870109
0.000870436
0.000870755
0.000871063
0.000871368
0.000871671
0.000871962
0.000872247
0.00087253
0.00087281
0.000873089
0.000873366
0.000873637
0.000873898
0.000874152
0.000874399
0.000874639
0.000874875
0.000875109
0.000875339
0.000875565
0.000875786
0.000875999
0.000876208
0.000876412
0.000876613
0.000876807
0.000876993
0.000877175
0.000877358
0.000877539
0.000877721
0.000877897
0.000878064
0.000878222
0.00087837
0.000878511
0.000878648
0.000878779
0.000878905
0.00087903
0.00087915
0.000879266
0.000879376
0.000879479
0.000879577
0.000879673
0.000879767
0.000879852
0.000879932
0.000880013
0.000880086
0.000880152
0.000880213
0.000880272
0.000880326
0.000880375
0.00088042
0.000880459
0.000880493
0.000880522
0.000880547
0.000880567
0.000880583
0.000880596
0.000880604
0.000880608
0.000374035
0.000375792
0.000377602
0.000379461
0.000381318
0.000383205
0.000385074
0.00038697
0.000388922
0.000390854
0.000392802
0.000394695
0.000396628
0.000398748
0.000400847
0.000402847
0.000404882
0.000406974
0.000409072
0.000411248
0.000413395
0.000415504
0.000417592
0.000419663
0.000421801
0.0004239
0.000425981
0.000428171
0.000430378
0.000432588
0.00043484
0.000437038
0.000439222
0.000441518
0.000443831
0.000445996
0.000448129
0.000450296
0.000452519
0.000454816
0.000457075
0.000459355
0.000461652
0.00046389
0.000466137
0.000468425
0.000470693
0.000472952
0.000475319
0.000477696
0.000480032
0.000482371
0.000484669
0.000486941
0.00048922
0.000491526
0.000493811
0.000496101
0.000498436
0.000500732
0.000503005
0.00050531
0.000507673
0.000510014
0.0005123
0.000514673
0.000517099
0.000519432
0.000521671
0.000523923
0.000526162
0.000528349
0.000530594
0.000532859
0.00053513
0.000537487
0.000539806
0.000542075
0.00054435
0.000546663
0.000548961
0.000551193
0.000553441
0.000555668
0.000557904
0.000560207
0.000562494
0.00056475
0.000567008
0.000569263
0.000571495
0.000573694
0.000575909
0.000578127
0.000580283
0.000582444
0.000584664
0.000586858
0.00058901
0.000591206
0.000593476
0.000595678
0.000597731
0.000599791
0.000601903
0.000604007
0.000606121
0.000608206
0.000610297
0.000612426
0.000614528
0.000616569
0.00061862
0.000620725
0.000622833
0.000624852
0.000626808
0.000628847
0.000630957
0.000633011
0.000635041
0.00063707
0.000639082
0.000641069
0.00064309
0.000645143
0.000647128
0.000649063
0.000650992
0.000652935
0.000654872
0.000656854
0.000658887
0.00066089
0.000662793
0.000664621
0.000666434
0.00066823
0.000670041
0.000671864
0.000673713
0.00067556
0.000677413
0.000679271
0.000681094
0.000682929
0.000684737
0.000686487
0.000688234
0.000689987
0.000691719
0.000693438
0.000695159
0.000696893
0.000698635
0.000700368
0.000702096
0.00070379
0.000705426
0.000707067
0.000708749
0.000710448
0.00071218
0.000713895
0.000715533
0.000717145
0.000718824
0.000720484
0.000722048
0.000723603
0.000725141
0.000726649
0.000728168
0.000729687
0.000731208
0.00073273
0.000734235
0.000735726
0.000737193
0.000738644
0.000740095
0.000741552
0.000742983
0.000744382
0.000745774
0.000747211
0.000748754
0.000750381
0.000752005
0.000753524
0.000754934
0.000756291
0.000757641
0.000759009
0.000760367
0.000761694
0.000763012
0.000764356
0.00076574
0.000767146
0.000768526
0.000769842
0.000771097
0.000772335
0.000773581
0.000774819
0.000776039
0.000777246
0.000778449
0.000779648
0.000780836
0.000782028
0.000783219
0.000784397
0.000785551
0.000786679
0.000787796
0.000788919
0.000790044
0.000791159
0.000792255
0.000793335
0.000794405
0.000795476
0.000796546
0.000797601
0.000798641
0.000799671
0.000800696
0.000801715
0.000802734
0.000803767
0.000804789
0.000805807
0.000806822
0.000807799
0.000808742
0.00080967
0.000810586
0.000811505
0.000812435
0.000813351
0.000814247
0.000815141
0.000816077
0.000817085
0.00081812
0.000819123
0.000820065
0.000820955
0.000821817
0.000822669
0.000823512
0.000824341
0.000825158
0.000825973
0.000826786
0.000827597
0.00082841
0.000829217
0.000830007
0.000830782
0.000831549
0.000832324
0.00083311
0.000833887
0.000834665
0.000835444
0.000836203
0.000836933
0.000837638
0.000838338
0.000839019
0.00083968
0.000840344
0.00084102
0.000841705
0.00084239
0.000843067
0.000843732
0.000844381
0.000845021
0.000845661
0.000846295
0.000846917
0.00084753
0.000848143
0.000848752
0.000849346
0.000849926
0.00085049
0.000851041
0.000851596
0.000852183
0.000852787
0.000853374
0.000853946
0.000854512
0.000855073
0.000855629
0.000856186
0.000856729
0.000857248
0.000857751
0.000858245
0.00085873
0.000859203
0.000859663
0.000860117
0.000860575
0.000861036
0.000861496
0.000861954
0.000862411
0.000862856
0.000863283
0.000863698
0.000864106
0.000864509
0.000864912
0.000865318
0.000865724
0.000866126
0.00086652
0.000866902
0.000867274
0.000867642
0.000868008
0.00086837
0.000868732
0.000869088
0.00086943
0.00086977
0.000870115
0.000870449
0.000870763
0.000871067
0.000871373
0.000871673
0.000871961
0.000872244
0.000872526
0.000872808
0.000873091
0.000873368
0.000873635
0.000873894
0.000874147
0.000874394
0.000874635
0.000874872
0.000875107
0.000875339
0.000875565
0.000875786
0.000875999
0.000876208
0.000876414
0.000876613
0.000876806
0.000876993
0.000877173
0.000877354
0.000877535
0.000877719
0.000877899
0.000878071
0.000878229
0.000878375
0.000878514
0.00087865
0.00087878
0.000878907
0.000879032
0.00087915
0.000879262
0.000879372
0.000879477
0.000879576
0.000879673
0.000879766
0.000879853
0.000879934
0.000880014
0.000880086
0.000880151
0.000880212
0.000880272
0.000880327
0.000880376
0.00088042
0.000880459
0.000880494
0.000880523
0.000880547
0.000880568
0.000880584
0.000880596
0.000880604
0.000880608
0.000374028
0.000375754
0.000377552
0.000379448
0.000381313
0.000383212
0.000385118
0.000387022
0.000388921
0.000390812
0.000392769
0.000394695
0.000396669
0.000398755
0.000400816
0.000402895
0.000404951
0.000406979
0.000409045
0.000411176
0.000413333
0.000415485
0.000417621
0.000419684
0.000421771
0.000423921
0.00042603
0.000428172
0.00043033
0.000432547
0.00043484
0.000437055
0.000439278
0.000441547
0.000443815
0.000445992
0.000448131
0.000450307
0.000452539
0.000454818
0.000457084
0.000459359
0.000461633
0.000463863
0.000466126
0.000468424
0.000470698
0.000472973
0.000475279
0.000477654
0.000480061
0.000482366
0.000484634
0.000486951
0.000489239
0.000491506
0.000493812
0.000496125
0.000498413
0.000500702
0.000503003
0.000505273
0.00050762
0.000510003
0.000512313
0.000514697
0.000517137
0.000519466
0.00052169
0.000523925
0.000526143
0.000528358
0.000530656
0.00053293
0.000535164
0.000537485
0.000539823
0.000542106
0.000544375
0.000546634
0.000548906
0.00055119
0.000553441
0.000555663
0.000557911
0.000560195
0.000562455
0.000564716
0.000567013
0.00056929
0.000571488
0.000573651
0.000575883
0.000578118
0.00058028
0.00058247
0.000584665
0.000586825
0.000589047
0.000591263
0.000593476
0.000595647
0.000597731
0.000599848
0.00060195
0.000604023
0.000606092
0.000608154
0.00061026
0.000612417
0.000614544
0.000616595
0.000618626
0.000620703
0.000622793
0.000624826
0.000626827
0.000628845
0.000630913
0.000633002
0.000635037
0.000637068
0.000639076
0.000641071
0.000643113
0.000645125
0.000647096
0.00064905
0.000650987
0.000652933
0.000654895
0.000656903
0.000658925
0.000660894
0.000662773
0.00066462
0.000666461
0.000668268
0.000670069
0.000671875
0.000673709
0.000675542
0.000677377
0.000679246
0.000681101
0.000682906
0.000684696
0.000686474
0.000688246
0.00068999
0.000691716
0.000693441
0.000695175
0.000696918
0.000698657
0.000700384
0.00070207
0.000703737
0.000705394
0.000707063
0.000708768
0.00071048
0.000712184
0.000713875
0.000715549
0.000717212
0.000718892
0.000720533
0.00072208
0.000723604
0.00072513
0.000726628
0.000728129
0.00072966
0.000731198
0.000732708
0.000734199
0.00073569
0.000737155
0.000738621
0.000740087
0.000741525
0.000742932
0.000744313
0.000745732
0.000747296
0.000749018
0.000750679
0.00075218
0.000753584
0.000754945
0.000756297
0.000757647
0.000759001
0.000760352
0.00076168
0.000762994
0.000764337
0.000765729
0.000767135
0.000768512
0.000769833
0.000771089
0.000772323
0.000773564
0.000774794
0.000776008
0.000777215
0.000778423
0.000779628
0.000780823
0.000782015
0.000783202
0.000784374
0.000785527
0.000786662
0.000787781
0.000788907
0.000790046
0.000791167
0.000792258
0.000793332
0.0007944
0.00079547
0.000796539
0.000797596
0.000798636
0.000799663
0.000800682
0.00080171
0.000802747
0.000803762
0.000804771
0.000805813
0.000806849
0.000807819
0.000808748
0.00080967
0.000810593
0.000811523
0.000812453
0.000813362
0.000814256
0.000815187
0.000816177
0.000817185
0.000818171
0.00081913
0.000820053
0.000820938
0.000821795
0.000822639
0.00082348
0.000824314
0.00082514
0.000825963
0.000826781
0.000827593
0.0008284
0.000829194
0.000829977
0.000830759
0.000831536
0.000832316
0.000833099
0.00083388
0.000834688
0.000835492
0.000836239
0.000836948
0.000837641
0.000838328
0.000839003
0.000839668
0.00084034
0.000841025
0.000841716
0.000842399
0.000843067
0.000843726
0.000844374
0.000845016
0.000845654
0.000846283
0.000846907
0.000847528
0.000848141
0.000848743
0.000849333
0.000849914
0.00085048
0.000851029
0.0008516
0.000852222
0.000852838
0.000853416
0.000853975
0.000854533
0.000855089
0.000855637
0.000856186
0.00085673
0.000857248
0.000857747
0.000858236
0.000858715
0.000859187
0.000859648
0.000860103
0.000860562
0.000861031
0.000861498
0.00086196
0.000862417
0.000862857
0.000863281
0.000863695
0.000864103
0.000864511
0.000864917
0.000865324
0.000865728
0.000866127
0.000866516
0.000866895
0.000867268
0.000867641
0.000868007
0.000868366
0.000868726
0.000869084
0.000869429
0.00086977
0.000870116
0.000870452
0.000870766
0.000871072
0.000871377
0.000871673
0.00087196
0.000872244
0.000872529
0.00087281
0.000873086
0.000873361
0.000873631
0.000873891
0.000874142
0.000874388
0.000874633
0.000874873
0.000875107
0.000875338
0.000875566
0.000875786
0.000875999
0.000876209
0.000876414
0.000876614
0.000876807
0.000876993
0.000877173
0.000877353
0.000877535
0.000877721
0.000877902
0.000878074
0.000878231
0.000878376
0.000878515
0.000878652
0.000878782
0.000878909
0.000879032
0.000879149
0.00087926
0.00087937
0.000879477
0.000879576
0.000879673
0.000879766
0.000879854
0.000879935
0.000880013
0.000880086
0.000880151
0.000880212
0.000880272
0.000880327
0.000880376
0.000880421
0.00088046
0.000880494
0.000880523
0.000880547
0.000880568
0.000880585
0.000880597
0.000880605
0.000880609
0.00037402
0.000375764
0.00037755
0.000379403
0.000381271
0.000383189
0.000385133
0.000387045
0.000388948
0.000390855
0.000392772
0.000394694
0.000396713
0.0003988
0.000400849
0.000402893
0.000404932
0.000406988
0.000409045
0.000411122
0.000413311
0.000415482
0.000417576
0.000419639
0.000421742
0.000423918
0.000426058
0.00042821
0.000430366
0.000432558
0.000434832
0.000437102
0.000439318
0.000441552
0.000443773
0.000445943
0.000448145
0.000450356
0.000452568
0.00045478
0.000457045
0.000459353
0.000461626
0.000463852
0.000466136
0.000468448
0.000470706
0.000472986
0.000475298
0.000477638
0.000480031
0.000482348
0.000484617
0.000486945
0.000489251
0.000491503
0.000493795
0.000496107
0.000498394
0.000500693
0.000502975
0.000505239
0.000507594