/*--------------------------------*- C++ -*----------------------------------*\
  =========                 |
  \\      /  F ield         | OpenFOAM: The Open Source CFD Toolbox
   \\    /   O peration     | Website:  https://openfoam.org
    \\  /    A nd           | Version:  7
     \\/     M anipulation  |
\*---------------------------------------------------------------------------*/
FoamFile
{
    version     2.0;
    format      ascii;
    class       volScalarField;
    location    "2000";
    object      mu2;
}
// * * * * * * * * * * * * * * * * * * * * * * * * * * * * * * * * * * * * * //

dimensions      [1 -1 -1 0 0 0 0];

internalField   nonuniform List<scalar> 
160000
(
2.02905e-05
2.0278e-05
2.02657e-05
2.02532e-05
2.02404e-05
2.02278e-05
2.02154e-05
2.02032e-05
2.01914e-05
2.01791e-05
2.01665e-05
2.01545e-05
2.01423e-05
2.013e-05
2.01181e-05
2.01064e-05
2.00947e-05
2.0083e-05
2.00711e-05
2.00594e-05
2.00477e-05
2.00362e-05
2.0025e-05
2.00138e-05
2.00026e-05
1.99912e-05
1.99799e-05
1.99688e-05
1.99578e-05
1.99471e-05
1.99366e-05
1.99259e-05
1.99146e-05
1.99034e-05
1.98928e-05
1.98822e-05
1.98717e-05
1.98614e-05
1.98515e-05
1.98416e-05
1.98311e-05
1.98206e-05
1.98101e-05
1.98e-05
1.97902e-05
1.97801e-05
1.97702e-05
1.97606e-05
1.97507e-05
1.97406e-05
1.97307e-05
1.97209e-05
1.97112e-05
1.97018e-05
1.96923e-05
1.96831e-05
1.96736e-05
1.96641e-05
1.96552e-05
1.96462e-05
1.96368e-05
1.96273e-05
1.96183e-05
1.96095e-05
1.96009e-05
1.9592e-05
1.95828e-05
1.95737e-05
1.9565e-05
1.95569e-05
1.95485e-05
1.95398e-05
1.95315e-05
1.95231e-05
1.95149e-05
1.95066e-05
1.94983e-05
1.94901e-05
1.94819e-05
1.94737e-05
1.94656e-05
1.94572e-05
1.94491e-05
1.94412e-05
1.94333e-05
1.94254e-05
1.94176e-05
1.941e-05
1.94025e-05
1.93948e-05
1.93872e-05
1.93797e-05
1.9372e-05
1.93642e-05
1.93568e-05
1.93497e-05
1.93426e-05
1.93354e-05
1.93282e-05
1.93212e-05
1.93141e-05
1.93072e-05
1.93004e-05
1.92933e-05
1.92866e-05
1.92798e-05
1.92731e-05
1.92665e-05
1.92596e-05
1.92528e-05
1.9246e-05
1.92395e-05
1.92332e-05
1.92267e-05
1.92205e-05
1.92142e-05
1.92079e-05
1.92017e-05
1.91953e-05
1.91889e-05
1.91826e-05
1.91765e-05
1.91705e-05
1.91644e-05
1.91584e-05
1.91522e-05
1.9146e-05
1.91401e-05
1.91344e-05
1.91285e-05
1.91227e-05
1.91171e-05
1.91116e-05
1.91058e-05
1.90999e-05
1.90943e-05
1.90889e-05
1.90835e-05
1.90782e-05
1.90731e-05
1.90679e-05
1.90623e-05
1.90571e-05
1.9052e-05
1.90466e-05
1.90412e-05
1.90361e-05
1.9031e-05
1.9026e-05
1.90211e-05
1.90163e-05
1.90114e-05
1.90066e-05
1.90018e-05
1.89969e-05
1.89922e-05
1.89874e-05
1.89826e-05
1.89778e-05
1.89731e-05
1.89684e-05
1.89639e-05
1.89593e-05
1.89546e-05
1.89501e-05
1.89457e-05
1.89412e-05
1.89368e-05
1.89326e-05
1.89284e-05
1.89241e-05
1.89196e-05
1.89154e-05
1.89113e-05
1.8907e-05
1.89031e-05
1.88991e-05
1.88952e-05
1.88912e-05
1.8887e-05
1.88832e-05
1.88794e-05
1.88755e-05
1.88718e-05
1.88681e-05
1.88644e-05
1.88606e-05
1.88568e-05
1.8853e-05
1.88492e-05
1.88452e-05
1.88413e-05
1.88376e-05
1.88339e-05
1.88301e-05
1.88267e-05
1.88235e-05
1.88199e-05
1.8816e-05
1.88121e-05
1.88085e-05
1.88051e-05
1.88018e-05
1.87988e-05
1.87957e-05
1.87925e-05
1.87893e-05
1.87861e-05
1.8783e-05
1.87799e-05
1.87769e-05
1.87738e-05
1.87709e-05
1.8768e-05
1.87651e-05
1.87622e-05
1.87594e-05
1.87566e-05
1.87537e-05
1.87507e-05
1.87479e-05
1.87451e-05
1.87425e-05
1.87399e-05
1.87373e-05
1.87347e-05
1.8732e-05
1.87294e-05
1.87268e-05
1.87242e-05
1.87217e-05
1.87192e-05
1.87167e-05
1.87141e-05
1.87116e-05
1.87092e-05
1.87068e-05
1.87044e-05
1.87021e-05
1.86998e-05
1.86975e-05
1.86953e-05
1.8693e-05
1.86908e-05
1.86886e-05
1.86864e-05
1.86842e-05
1.86818e-05
1.86793e-05
1.86767e-05
1.86743e-05
1.8672e-05
1.86699e-05
1.86679e-05
1.8666e-05
1.86641e-05
1.86621e-05
1.86603e-05
1.86584e-05
1.86563e-05
1.86541e-05
1.86521e-05
1.86503e-05
1.86485e-05
1.86467e-05
1.86449e-05
1.8643e-05
1.86412e-05
1.86395e-05
1.86376e-05
1.86358e-05
1.86341e-05
1.86324e-05
1.86307e-05
1.86291e-05
1.86276e-05
1.8626e-05
1.86243e-05
1.86226e-05
1.8621e-05
1.86195e-05
1.86179e-05
1.86164e-05
1.86149e-05
1.86133e-05
1.86118e-05
1.86103e-05
1.86089e-05
1.86075e-05
1.86061e-05
1.86047e-05
1.86034e-05
1.86021e-05
1.86008e-05
1.85994e-05
1.8598e-05
1.85967e-05
1.85954e-05
1.85941e-05
1.85929e-05
1.85916e-05
1.85902e-05
1.85887e-05
1.85874e-05
1.85861e-05
1.8585e-05
1.85838e-05
1.85827e-05
1.85817e-05
1.85806e-05
1.85796e-05
1.85785e-05
1.85775e-05
1.85765e-05
1.85754e-05
1.85743e-05
1.85732e-05
1.85723e-05
1.85713e-05
1.85704e-05
1.85695e-05
1.85686e-05
1.85677e-05
1.85668e-05
1.85658e-05
1.85649e-05
1.8564e-05
1.85631e-05
1.85622e-05
1.85614e-05
1.85605e-05
1.85598e-05
1.8559e-05
1.85582e-05
1.85574e-05
1.85567e-05
1.8556e-05
1.85553e-05
1.85545e-05
1.85538e-05
1.85531e-05
1.85525e-05
1.85518e-05
1.85511e-05
1.85505e-05
1.85499e-05
1.85493e-05
1.85487e-05
1.85481e-05
1.85475e-05
1.85469e-05
1.85464e-05
1.85459e-05
1.85453e-05
1.85448e-05
1.85443e-05
1.85438e-05
1.85434e-05
1.85429e-05
1.85424e-05
1.8542e-05
1.85416e-05
1.85411e-05
1.85407e-05
1.85403e-05
1.85399e-05
1.85395e-05
1.85392e-05
1.85388e-05
1.85384e-05
1.85381e-05
1.85378e-05
1.85375e-05
1.85372e-05
1.85369e-05
1.85367e-05
1.85364e-05
1.85362e-05
1.85359e-05
1.85357e-05
1.85355e-05
1.85353e-05
1.85351e-05
1.85349e-05
1.85348e-05
1.85346e-05
1.85345e-05
1.85343e-05
1.85342e-05
1.85341e-05
1.8534e-05
1.85339e-05
1.85338e-05
1.85337e-05
1.85337e-05
1.85336e-05
1.85336e-05
1.85336e-05
1.85336e-05
1.85335e-05
2.02902e-05
2.02777e-05
2.02655e-05
2.02531e-05
2.02405e-05
2.0228e-05
2.02156e-05
2.02032e-05
2.01912e-05
2.0179e-05
2.01665e-05
2.01543e-05
2.01424e-05
2.01304e-05
2.01183e-05
2.01064e-05
2.00949e-05
2.0083e-05
2.00709e-05
2.0059e-05
2.00475e-05
2.00362e-05
2.00249e-05
2.00135e-05
2.00024e-05
1.99915e-05
1.99803e-05
1.99689e-05
1.99579e-05
1.99471e-05
1.99363e-05
1.99256e-05
1.99145e-05
1.99034e-05
1.98928e-05
1.98823e-05
1.98716e-05
1.98616e-05
1.98518e-05
1.98415e-05
1.98309e-05
1.98206e-05
1.98102e-05
1.98001e-05
1.97903e-05
1.97801e-05
1.97701e-05
1.97606e-05
1.97509e-05
1.97406e-05
1.97305e-05
1.97208e-05
1.97114e-05
1.97017e-05
1.96923e-05
1.96832e-05
1.96737e-05
1.96643e-05
1.96551e-05
1.9646e-05
1.96368e-05
1.96275e-05
1.96184e-05
1.96095e-05
1.96008e-05
1.95917e-05
1.95828e-05
1.9574e-05
1.95653e-05
1.95569e-05
1.95483e-05
1.95397e-05
1.95314e-05
1.95232e-05
1.9515e-05
1.95066e-05
1.94982e-05
1.949e-05
1.94819e-05
1.94737e-05
1.94655e-05
1.94573e-05
1.94492e-05
1.94414e-05
1.94335e-05
1.94254e-05
1.94176e-05
1.941e-05
1.94024e-05
1.93948e-05
1.93871e-05
1.93796e-05
1.93719e-05
1.93642e-05
1.93569e-05
1.93498e-05
1.93427e-05
1.93355e-05
1.93282e-05
1.93212e-05
1.93142e-05
1.93071e-05
1.93003e-05
1.92935e-05
1.92865e-05
1.92798e-05
1.92732e-05
1.92663e-05
1.92595e-05
1.92528e-05
1.9246e-05
1.92395e-05
1.92331e-05
1.92268e-05
1.92205e-05
1.92142e-05
1.92079e-05
1.92017e-05
1.91953e-05
1.91889e-05
1.91826e-05
1.91764e-05
1.91704e-05
1.91643e-05
1.91583e-05
1.91522e-05
1.91461e-05
1.91402e-05
1.91344e-05
1.91285e-05
1.91228e-05
1.91172e-05
1.91116e-05
1.91056e-05
1.90998e-05
1.90944e-05
1.9089e-05
1.90835e-05
1.90783e-05
1.90731e-05
1.90679e-05
1.90624e-05
1.90571e-05
1.90518e-05
1.90465e-05
1.90412e-05
1.90361e-05
1.9031e-05
1.9026e-05
1.90212e-05
1.90163e-05
1.90113e-05
1.90066e-05
1.90018e-05
1.8997e-05
1.89921e-05
1.89873e-05
1.89826e-05
1.89778e-05
1.89732e-05
1.89685e-05
1.89639e-05
1.89592e-05
1.89546e-05
1.89501e-05
1.89457e-05
1.89412e-05
1.89368e-05
1.89326e-05
1.89283e-05
1.89239e-05
1.89196e-05
1.89154e-05
1.89113e-05
1.89071e-05
1.89031e-05
1.88991e-05
1.88951e-05
1.88911e-05
1.88871e-05
1.88833e-05
1.88794e-05
1.88756e-05
1.88719e-05
1.88682e-05
1.88644e-05
1.88606e-05
1.88568e-05
1.8853e-05
1.88491e-05
1.88451e-05
1.88411e-05
1.88374e-05
1.88337e-05
1.88301e-05
1.88268e-05
1.88234e-05
1.88197e-05
1.88158e-05
1.88121e-05
1.88085e-05
1.88052e-05
1.8802e-05
1.87988e-05
1.87957e-05
1.87925e-05
1.87892e-05
1.87861e-05
1.8783e-05
1.87799e-05
1.87769e-05
1.87739e-05
1.87709e-05
1.8768e-05
1.87651e-05
1.87622e-05
1.87594e-05
1.87565e-05
1.87536e-05
1.87507e-05
1.87479e-05
1.87452e-05
1.87426e-05
1.874e-05
1.87373e-05
1.87347e-05
1.8732e-05
1.87294e-05
1.87268e-05
1.87242e-05
1.87217e-05
1.87192e-05
1.87167e-05
1.87141e-05
1.87115e-05
1.87092e-05
1.87068e-05
1.87044e-05
1.87021e-05
1.86998e-05
1.86975e-05
1.86953e-05
1.86931e-05
1.86908e-05
1.86886e-05
1.86865e-05
1.86842e-05
1.86817e-05
1.86791e-05
1.86765e-05
1.86742e-05
1.86721e-05
1.867e-05
1.8668e-05
1.8666e-05
1.86641e-05
1.86621e-05
1.86603e-05
1.86583e-05
1.86562e-05
1.86541e-05
1.86522e-05
1.86504e-05
1.86486e-05
1.86467e-05
1.86448e-05
1.8643e-05
1.86413e-05
1.86395e-05
1.86376e-05
1.86358e-05
1.86341e-05
1.86324e-05
1.86307e-05
1.86291e-05
1.86276e-05
1.8626e-05
1.86243e-05
1.86226e-05
1.8621e-05
1.86195e-05
1.8618e-05
1.86164e-05
1.86148e-05
1.86133e-05
1.86118e-05
1.86103e-05
1.86089e-05
1.86075e-05
1.86061e-05
1.86047e-05
1.86034e-05
1.86021e-05
1.86007e-05
1.85994e-05
1.8598e-05
1.85967e-05
1.85954e-05
1.85941e-05
1.85929e-05
1.85915e-05
1.859e-05
1.85886e-05
1.85874e-05
1.85861e-05
1.8585e-05
1.85839e-05
1.85828e-05
1.85817e-05
1.85806e-05
1.85796e-05
1.85785e-05
1.85775e-05
1.85764e-05
1.85753e-05
1.85743e-05
1.85732e-05
1.85723e-05
1.85714e-05
1.85704e-05
1.85695e-05
1.85686e-05
1.85677e-05
1.85668e-05
1.85658e-05
1.85649e-05
1.8564e-05
1.85631e-05
1.85622e-05
1.85614e-05
1.85606e-05
1.85598e-05
1.8559e-05
1.85582e-05
1.85574e-05
1.85567e-05
1.85559e-05
1.85552e-05
1.85545e-05
1.85538e-05
1.85531e-05
1.85525e-05
1.85518e-05
1.85511e-05
1.85505e-05
1.85499e-05
1.85493e-05
1.85487e-05
1.85481e-05
1.85475e-05
1.85469e-05
1.85464e-05
1.85459e-05
1.85453e-05
1.85448e-05
1.85443e-05
1.85438e-05
1.85434e-05
1.85429e-05
1.85424e-05
1.8542e-05
1.85416e-05
1.85411e-05
1.85407e-05
1.85403e-05
1.85399e-05
1.85395e-05
1.85391e-05
1.85388e-05
1.85384e-05
1.85381e-05
1.85378e-05
1.85375e-05
1.85372e-05
1.85369e-05
1.85367e-05
1.85364e-05
1.85362e-05
1.85359e-05
1.85357e-05
1.85355e-05
1.85353e-05
1.85351e-05
1.85349e-05
1.85348e-05
1.85346e-05
1.85345e-05
1.85343e-05
1.85342e-05
1.85341e-05
1.8534e-05
1.85339e-05
1.85338e-05
1.85337e-05
1.85337e-05
1.85336e-05
1.85336e-05
1.85336e-05
1.85336e-05
1.85335e-05
2.02904e-05
2.02779e-05
2.02654e-05
2.0253e-05
2.02405e-05
2.02279e-05
2.02157e-05
2.02032e-05
2.01911e-05
2.0179e-05
2.01665e-05
2.01543e-05
2.01425e-05
2.01307e-05
2.01184e-05
2.01065e-05
2.00948e-05
2.00826e-05
2.00708e-05
2.0059e-05
2.00474e-05
2.0036e-05
2.00246e-05
2.00135e-05
2.00024e-05
1.99914e-05
1.99804e-05
1.99693e-05
1.9958e-05
1.9947e-05
1.99363e-05
1.99255e-05
1.99146e-05
1.99035e-05
1.98927e-05
1.98823e-05
1.98718e-05
1.98617e-05
1.98517e-05
1.98414e-05
1.98309e-05
1.98206e-05
1.98103e-05
1.98004e-05
1.97902e-05
1.97799e-05
1.97702e-05
1.97606e-05
1.97509e-05
1.97406e-05
1.97304e-05
1.97207e-05
1.97113e-05
1.97019e-05
1.96925e-05
1.96832e-05
1.96738e-05
1.96645e-05
1.9655e-05
1.96458e-05
1.96368e-05
1.96277e-05
1.96185e-05
1.96094e-05
1.96007e-05
1.95916e-05
1.95825e-05
1.95738e-05
1.95653e-05
1.95567e-05
1.95483e-05
1.954e-05
1.95314e-05
1.95232e-05
1.9515e-05
1.95066e-05
1.94983e-05
1.949e-05
1.94817e-05
1.94735e-05
1.94655e-05
1.94573e-05
1.94492e-05
1.94413e-05
1.94335e-05
1.94256e-05
1.94178e-05
1.94099e-05
1.94022e-05
1.93947e-05
1.93871e-05
1.93794e-05
1.93719e-05
1.93644e-05
1.9357e-05
1.935e-05
1.93428e-05
1.93355e-05
1.93283e-05
1.93211e-05
1.93141e-05
1.93071e-05
1.93002e-05
1.92935e-05
1.92866e-05
1.92798e-05
1.9273e-05
1.92663e-05
1.92596e-05
1.92528e-05
1.92461e-05
1.92396e-05
1.92331e-05
1.92268e-05
1.92205e-05
1.92142e-05
1.9208e-05
1.92017e-05
1.91952e-05
1.91888e-05
1.91826e-05
1.91765e-05
1.91704e-05
1.91643e-05
1.91582e-05
1.91522e-05
1.91462e-05
1.91403e-05
1.91344e-05
1.91286e-05
1.91229e-05
1.91172e-05
1.91113e-05
1.91055e-05
1.90998e-05
1.90944e-05
1.9089e-05
1.90836e-05
1.90783e-05
1.90731e-05
1.90679e-05
1.90624e-05
1.9057e-05
1.90518e-05
1.90465e-05
1.90412e-05
1.90361e-05
1.90311e-05
1.90261e-05
1.90212e-05
1.90163e-05
1.90114e-05
1.90067e-05
1.90018e-05
1.89968e-05
1.8992e-05
1.89873e-05
1.89825e-05
1.89778e-05
1.89732e-05
1.89686e-05
1.89639e-05
1.89592e-05
1.89546e-05
1.89501e-05
1.89456e-05
1.89412e-05
1.89368e-05
1.89326e-05
1.89282e-05
1.89238e-05
1.89196e-05
1.89154e-05
1.89112e-05
1.89072e-05
1.89032e-05
1.88992e-05
1.88951e-05
1.88911e-05
1.88872e-05
1.88833e-05
1.88795e-05
1.88757e-05
1.8872e-05
1.88682e-05
1.88645e-05
1.88607e-05
1.88569e-05
1.8853e-05
1.88489e-05
1.88448e-05
1.88409e-05
1.88373e-05
1.88337e-05
1.88301e-05
1.88266e-05
1.88231e-05
1.88195e-05
1.88158e-05
1.88122e-05
1.88087e-05
1.88053e-05
1.88021e-05
1.87989e-05
1.87957e-05
1.87924e-05
1.87893e-05
1.87862e-05
1.87831e-05
1.878e-05
1.87769e-05
1.87739e-05
1.8771e-05
1.8768e-05
1.87651e-05
1.87622e-05
1.87594e-05
1.87565e-05
1.87536e-05
1.87508e-05
1.8748e-05
1.87453e-05
1.87426e-05
1.874e-05
1.87373e-05
1.87346e-05
1.8732e-05
1.87294e-05
1.87268e-05
1.87242e-05
1.87217e-05
1.87192e-05
1.87166e-05
1.8714e-05
1.87116e-05
1.87091e-05
1.87067e-05
1.87044e-05
1.87021e-05
1.86998e-05
1.86975e-05
1.86953e-05
1.8693e-05
1.86908e-05
1.86886e-05
1.86864e-05
1.86841e-05
1.86815e-05
1.86788e-05
1.86765e-05
1.86743e-05
1.86721e-05
1.867e-05
1.8668e-05
1.86661e-05
1.86641e-05
1.86622e-05
1.86602e-05
1.86582e-05
1.86562e-05
1.86542e-05
1.86523e-05
1.86504e-05
1.86486e-05
1.86467e-05
1.86448e-05
1.8643e-05
1.86412e-05
1.86394e-05
1.86375e-05
1.86358e-05
1.86341e-05
1.86324e-05
1.86308e-05
1.86292e-05
1.86276e-05
1.8626e-05
1.86243e-05
1.86227e-05
1.86211e-05
1.86195e-05
1.86179e-05
1.86164e-05
1.86148e-05
1.86133e-05
1.86118e-05
1.86104e-05
1.86089e-05
1.86075e-05
1.86061e-05
1.86048e-05
1.86034e-05
1.86021e-05
1.86008e-05
1.85994e-05
1.8598e-05
1.85966e-05
1.85953e-05
1.8594e-05
1.85927e-05
1.85913e-05
1.85899e-05
1.85886e-05
1.85874e-05
1.85862e-05
1.85851e-05
1.85839e-05
1.85828e-05
1.85817e-05
1.85807e-05
1.85796e-05
1.85785e-05
1.85775e-05
1.85764e-05
1.85753e-05
1.85743e-05
1.85733e-05
1.85723e-05
1.85714e-05
1.85704e-05
1.85695e-05
1.85686e-05
1.85677e-05
1.85667e-05
1.85657e-05
1.85648e-05
1.8564e-05
1.85631e-05
1.85622e-05
1.85614e-05
1.85606e-05
1.85598e-05
1.8559e-05
1.85582e-05
1.85574e-05
1.85567e-05
1.85559e-05
1.85552e-05
1.85545e-05
1.85538e-05
1.85531e-05
1.85525e-05
1.85518e-05
1.85512e-05
1.85505e-05
1.85499e-05
1.85493e-05
1.85487e-05
1.85481e-05
1.85475e-05
1.8547e-05
1.85464e-05
1.85459e-05
1.85453e-05
1.85448e-05
1.85443e-05
1.85438e-05
1.85434e-05
1.85429e-05
1.85424e-05
1.8542e-05
1.85416e-05
1.85411e-05
1.85407e-05
1.85403e-05
1.85399e-05
1.85395e-05
1.85391e-05
1.85388e-05
1.85384e-05
1.85381e-05
1.85378e-05
1.85375e-05
1.85372e-05
1.85369e-05
1.85367e-05
1.85364e-05
1.85362e-05
1.85359e-05
1.85357e-05
1.85355e-05
1.85353e-05
1.85351e-05
1.85349e-05
1.85348e-05
1.85346e-05
1.85345e-05
1.85343e-05
1.85342e-05
1.85341e-05
1.8534e-05
1.85339e-05
1.85338e-05
1.85337e-05
1.85337e-05
1.85336e-05
1.85336e-05
1.85336e-05
1.85336e-05
1.85335e-05
2.02904e-05
2.02779e-05
2.02654e-05
2.02529e-05
2.02403e-05
2.02277e-05
2.02155e-05
2.02032e-05
2.01909e-05
2.01786e-05
2.01664e-05
2.01546e-05
2.01426e-05
2.01307e-05
2.01186e-05
2.01066e-05
2.00947e-05
2.00826e-05
2.00708e-05
2.00589e-05
2.00474e-05
2.00359e-05
2.00245e-05
2.00136e-05
2.00023e-05
1.99912e-05
1.99804e-05
1.99693e-05
1.99579e-05
1.9947e-05
1.99363e-05
1.99255e-05
1.99146e-05
1.99036e-05
1.98927e-05
1.98822e-05
1.98718e-05
1.98617e-05
1.98518e-05
1.98415e-05
1.98309e-05
1.98205e-05
1.98104e-05
1.98004e-05
1.97903e-05
1.97802e-05
1.97703e-05
1.97605e-05
1.97506e-05
1.97407e-05
1.97307e-05
1.97206e-05
1.97113e-05
1.9702e-05
1.96924e-05
1.9683e-05
1.96738e-05
1.96645e-05
1.96552e-05
1.9646e-05
1.96369e-05
1.96278e-05
1.96185e-05
1.96095e-05
1.96006e-05
1.95915e-05
1.95825e-05
1.95737e-05
1.95652e-05
1.95566e-05
1.95481e-05
1.954e-05
1.95317e-05
1.95234e-05
1.9515e-05
1.95064e-05
1.94981e-05
1.94899e-05
1.94815e-05
1.94735e-05
1.94655e-05
1.94573e-05
1.94493e-05
1.94415e-05
1.94337e-05
1.94257e-05
1.94178e-05
1.941e-05
1.94023e-05
1.93946e-05
1.93869e-05
1.93795e-05
1.93719e-05
1.93645e-05
1.93573e-05
1.935e-05
1.93427e-05
1.93356e-05
1.93285e-05
1.93212e-05
1.93139e-05
1.93069e-05
1.93001e-05
1.92934e-05
1.92866e-05
1.92798e-05
1.9273e-05
1.92663e-05
1.92596e-05
1.92529e-05
1.92463e-05
1.92398e-05
1.92332e-05
1.92268e-05
1.92205e-05
1.92142e-05
1.9208e-05
1.92017e-05
1.91952e-05
1.91888e-05
1.91826e-05
1.91765e-05
1.91703e-05
1.91643e-05
1.91583e-05
1.91522e-05
1.91461e-05
1.91402e-05
1.91345e-05
1.91287e-05
1.91229e-05
1.91171e-05
1.91112e-05
1.91054e-05
1.90997e-05
1.90943e-05
1.90891e-05
1.90837e-05
1.90784e-05
1.90731e-05
1.90677e-05
1.90624e-05
1.90571e-05
1.90518e-05
1.90466e-05
1.90413e-05
1.90361e-05
1.90311e-05
1.90262e-05
1.90213e-05
1.90163e-05
1.90114e-05
1.90066e-05
1.90018e-05
1.89969e-05
1.89921e-05
1.89873e-05
1.89825e-05
1.89778e-05
1.89733e-05
1.89686e-05
1.8964e-05
1.89592e-05
1.89546e-05
1.895e-05
1.89456e-05
1.89411e-05
1.89367e-05
1.89324e-05
1.89281e-05
1.89238e-05
1.89196e-05
1.89155e-05
1.89114e-05
1.89073e-05
1.89032e-05
1.88991e-05
1.88951e-05
1.88912e-05
1.88873e-05
1.88834e-05
1.88795e-05
1.88758e-05
1.88721e-05
1.88683e-05
1.88645e-05
1.88607e-05
1.88567e-05
1.88526e-05
1.88484e-05
1.88444e-05
1.88407e-05
1.88372e-05
1.88336e-05
1.883e-05
1.88265e-05
1.8823e-05
1.88195e-05
1.88159e-05
1.88123e-05
1.88087e-05
1.88053e-05
1.88021e-05
1.87989e-05
1.87957e-05
1.87925e-05
1.87893e-05
1.87862e-05
1.87831e-05
1.878e-05
1.8777e-05
1.8774e-05
1.8771e-05
1.8768e-05
1.87651e-05
1.87622e-05
1.87593e-05
1.87565e-05
1.87536e-05
1.87508e-05
1.87481e-05
1.87453e-05
1.87426e-05
1.874e-05
1.87373e-05
1.87346e-05
1.8732e-05
1.87294e-05
1.87268e-05
1.87242e-05
1.87217e-05
1.87191e-05
1.87166e-05
1.8714e-05
1.87116e-05
1.87091e-05
1.87068e-05
1.87044e-05
1.87021e-05
1.86998e-05
1.86975e-05
1.86953e-05
1.86931e-05
1.86909e-05
1.86886e-05
1.86863e-05
1.86838e-05
1.86812e-05
1.86787e-05
1.86765e-05
1.86743e-05
1.86722e-05
1.86701e-05
1.86681e-05
1.86661e-05
1.86641e-05
1.86622e-05
1.86602e-05
1.86582e-05
1.86562e-05
1.86543e-05
1.86524e-05
1.86505e-05
1.86486e-05
1.86467e-05
1.86448e-05
1.8643e-05
1.86412e-05
1.86393e-05
1.86375e-05
1.86358e-05
1.86341e-05
1.86324e-05
1.86308e-05
1.86292e-05
1.86276e-05
1.8626e-05
1.86243e-05
1.86227e-05
1.8621e-05
1.86195e-05
1.86179e-05
1.86164e-05
1.86148e-05
1.86133e-05
1.86118e-05
1.86104e-05
1.8609e-05
1.86075e-05
1.86061e-05
1.86048e-05
1.86034e-05
1.86021e-05
1.86008e-05
1.85994e-05
1.8598e-05
1.85966e-05
1.85953e-05
1.85939e-05
1.85926e-05
1.85912e-05
1.85899e-05
1.85886e-05
1.85874e-05
1.85863e-05
1.85851e-05
1.8584e-05
1.85829e-05
1.85818e-05
1.85807e-05
1.85796e-05
1.85785e-05
1.85775e-05
1.85764e-05
1.85753e-05
1.85743e-05
1.85733e-05
1.85723e-05
1.85714e-05
1.85705e-05
1.85695e-05
1.85686e-05
1.85676e-05
1.85667e-05
1.85657e-05
1.85649e-05
1.8564e-05
1.85631e-05
1.85623e-05
1.85614e-05
1.85606e-05
1.85598e-05
1.8559e-05
1.85582e-05
1.85574e-05
1.85567e-05
1.85559e-05
1.85552e-05
1.85545e-05
1.85538e-05
1.85531e-05
1.85525e-05
1.85518e-05
1.85512e-05
1.85505e-05
1.85499e-05
1.85493e-05
1.85487e-05
1.85481e-05
1.85475e-05
1.8547e-05
1.85464e-05
1.85459e-05
1.85453e-05
1.85448e-05
1.85443e-05
1.85438e-05
1.85434e-05
1.85429e-05
1.85424e-05
1.8542e-05
1.85416e-05
1.85411e-05
1.85407e-05
1.85403e-05
1.85399e-05
1.85395e-05
1.85391e-05
1.85388e-05
1.85384e-05
1.85381e-05
1.85378e-05
1.85375e-05
1.85372e-05
1.8537e-05
1.85367e-05
1.85364e-05
1.85362e-05
1.8536e-05
1.85357e-05
1.85355e-05
1.85353e-05
1.85351e-05
1.85349e-05
1.85348e-05
1.85346e-05
1.85345e-05
1.85343e-05
1.85342e-05
1.85341e-05
1.8534e-05
1.85339e-05
1.85338e-05
1.85337e-05
1.85337e-05
1.85336e-05
1.85336e-05
1.85336e-05
1.85336e-05
1.85335e-05
2.02905e-05
2.02781e-05
2.02655e-05
2.02527e-05
2.02402e-05
2.02276e-05
2.02154e-05
2.02031e-05
2.01907e-05
2.01785e-05
2.01664e-05
2.01548e-05
2.01431e-05
2.01305e-05
2.01181e-05
2.01065e-05
2.00948e-05
2.00829e-05
2.00711e-05
2.0059e-05
2.00472e-05
2.00358e-05
2.00245e-05
2.00135e-05
2.00023e-05
1.99913e-05
1.99806e-05
1.99694e-05
1.99582e-05
1.99472e-05
1.9936e-05
1.99252e-05
1.99146e-05
1.99035e-05
1.98924e-05
1.98821e-05
1.98721e-05
1.9862e-05
1.98517e-05
1.98412e-05
1.98309e-05
1.98206e-05
1.98103e-05
1.98003e-05
1.97904e-05
1.97804e-05
1.97705e-05
1.97607e-05
1.97506e-05
1.97405e-05
1.97306e-05
1.97208e-05
1.97112e-05
1.97018e-05
1.96924e-05
1.9683e-05
1.96737e-05
1.96645e-05
1.96551e-05
1.9646e-05
1.9637e-05
1.96279e-05
1.96187e-05
1.96096e-05
1.96007e-05
1.95916e-05
1.95823e-05
1.95734e-05
1.9565e-05
1.95565e-05
1.95481e-05
1.954e-05
1.95317e-05
1.95233e-05
1.9515e-05
1.95064e-05
1.9498e-05
1.94898e-05
1.94816e-05
1.94734e-05
1.94652e-05
1.94573e-05
1.94494e-05
1.94415e-05
1.94337e-05
1.94257e-05
1.94178e-05
1.941e-05
1.94023e-05
1.93946e-05
1.9387e-05
1.93795e-05
1.9372e-05
1.93646e-05
1.93574e-05
1.93502e-05
1.93428e-05
1.93355e-05
1.93284e-05
1.93212e-05
1.93138e-05
1.93066e-05
1.93e-05
1.92933e-05
1.92865e-05
1.92797e-05
1.9273e-05
1.92663e-05
1.92597e-05
1.92529e-05
1.92463e-05
1.92399e-05
1.92334e-05
1.92269e-05
1.92203e-05
1.9214e-05
1.9208e-05
1.92017e-05
1.91952e-05
1.91889e-05
1.91827e-05
1.91765e-05
1.91704e-05
1.91644e-05
1.91582e-05
1.91521e-05
1.91461e-05
1.91403e-05
1.91345e-05
1.91287e-05
1.9123e-05
1.91171e-05
1.91111e-05
1.91052e-05
1.90996e-05
1.90943e-05
1.9089e-05
1.90837e-05
1.90784e-05
1.90732e-05
1.90678e-05
1.90625e-05
1.90571e-05
1.90518e-05
1.90466e-05
1.90413e-05
1.90361e-05
1.90312e-05
1.90262e-05
1.90212e-05
1.90163e-05
1.90115e-05
1.90066e-05
1.90018e-05
1.89969e-05
1.8992e-05
1.89872e-05
1.89825e-05
1.89779e-05
1.89734e-05
1.89687e-05
1.8964e-05
1.89592e-05
1.89545e-05
1.895e-05
1.89456e-05
1.8941e-05
1.89365e-05
1.89322e-05
1.8928e-05
1.89238e-05
1.89197e-05
1.89156e-05
1.89115e-05
1.89074e-05
1.89033e-05
1.88992e-05
1.88952e-05
1.88913e-05
1.88874e-05
1.88835e-05
1.88796e-05
1.88758e-05
1.88721e-05
1.88684e-05
1.88646e-05
1.88605e-05
1.88562e-05
1.88519e-05
1.88479e-05
1.88442e-05
1.88407e-05
1.88371e-05
1.88335e-05
1.883e-05
1.88265e-05
1.88231e-05
1.88196e-05
1.8816e-05
1.88124e-05
1.88088e-05
1.88054e-05
1.88021e-05
1.87989e-05
1.87957e-05
1.87925e-05
1.87894e-05
1.87863e-05
1.87832e-05
1.87801e-05
1.87771e-05
1.87741e-05
1.8771e-05
1.8768e-05
1.87651e-05
1.87622e-05
1.87594e-05
1.87565e-05
1.87537e-05
1.87508e-05
1.87481e-05
1.87453e-05
1.87426e-05
1.87399e-05
1.87372e-05
1.87346e-05
1.8732e-05
1.87294e-05
1.87268e-05
1.87243e-05
1.87217e-05
1.87191e-05
1.87166e-05
1.8714e-05
1.87115e-05
1.87091e-05
1.87067e-05
1.87044e-05
1.87021e-05
1.86999e-05
1.86975e-05
1.86953e-05
1.86931e-05
1.86908e-05
1.86885e-05
1.8686e-05
1.86835e-05
1.8681e-05
1.86787e-05
1.86765e-05
1.86744e-05
1.86723e-05
1.86702e-05
1.86682e-05
1.86662e-05
1.86642e-05
1.86622e-05
1.86602e-05
1.86582e-05
1.86562e-05
1.86543e-05
1.86524e-05
1.86506e-05
1.86487e-05
1.86468e-05
1.86449e-05
1.8643e-05
1.86411e-05
1.86392e-05
1.86375e-05
1.86358e-05
1.86341e-05
1.86324e-05
1.86308e-05
1.86292e-05
1.86276e-05
1.86259e-05
1.86243e-05
1.86226e-05
1.8621e-05
1.86195e-05
1.86179e-05
1.86164e-05
1.86149e-05
1.86134e-05
1.86119e-05
1.86104e-05
1.8609e-05
1.86075e-05
1.86061e-05
1.86048e-05
1.86035e-05
1.86021e-05
1.86007e-05
1.85993e-05
1.85979e-05
1.85965e-05
1.85952e-05
1.85938e-05
1.85925e-05
1.85912e-05
1.85899e-05
1.85886e-05
1.85875e-05
1.85863e-05
1.85851e-05
1.8584e-05
1.85829e-05
1.85818e-05
1.85807e-05
1.85796e-05
1.85785e-05
1.85775e-05
1.85764e-05
1.85753e-05
1.85743e-05
1.85733e-05
1.85724e-05
1.85714e-05
1.85704e-05
1.85695e-05
1.85685e-05
1.85676e-05
1.85666e-05
1.85657e-05
1.85649e-05
1.8564e-05
1.85631e-05
1.85623e-05
1.85614e-05
1.85606e-05
1.85598e-05
1.8559e-05
1.85582e-05
1.85574e-05
1.85566e-05
1.85559e-05
1.85552e-05
1.85545e-05
1.85538e-05
1.85532e-05
1.85525e-05
1.85518e-05
1.85512e-05
1.85505e-05
1.85499e-05
1.85493e-05
1.85487e-05
1.85481e-05
1.85475e-05
1.8547e-05
1.85464e-05
1.85459e-05
1.85453e-05
1.85448e-05
1.85443e-05
1.85438e-05
1.85434e-05
1.85429e-05
1.85424e-05
1.8542e-05
1.85416e-05
1.85412e-05
1.85407e-05
1.85403e-05
1.85399e-05
1.85395e-05
1.85391e-05
1.85388e-05
1.85384e-05
1.85381e-05
1.85378e-05
1.85375e-05
1.85372e-05
1.8537e-05
1.85367e-05
1.85364e-05
1.85362e-05
1.8536e-05
1.85357e-05
1.85355e-05
1.85353e-05
1.85351e-05
1.85349e-05
1.85348e-05
1.85346e-05
1.85345e-05
1.85343e-05
1.85342e-05
1.85341e-05
1.8534e-05
1.85339e-05
1.85338e-05
1.85337e-05
1.85337e-05
1.85336e-05
1.85336e-05
1.85336e-05
1.85336e-05
1.85335e-05
2.02905e-05
2.02783e-05
2.02658e-05
2.02528e-05
2.02402e-05
2.02276e-05
2.02151e-05
2.02028e-05
2.01907e-05
2.01788e-05
2.01666e-05
2.01548e-05
2.01429e-05
2.01304e-05
2.01183e-05
2.01062e-05
2.00944e-05
2.00828e-05
2.00712e-05
2.00594e-05
2.00475e-05
2.00359e-05
2.00244e-05
2.00134e-05
2.00024e-05
1.99912e-05
1.99804e-05
1.99694e-05
1.99585e-05
1.99474e-05
1.9936e-05
1.99251e-05
1.99143e-05
1.99033e-05
1.98925e-05
1.98822e-05
1.98721e-05
1.98619e-05
1.98516e-05
1.98411e-05
1.98308e-05
1.98205e-05
1.98104e-05
1.98004e-05
1.97904e-05
1.97804e-05
1.97705e-05
1.97607e-05
1.97508e-05
1.97407e-05
1.97305e-05
1.97208e-05
1.97114e-05
1.97018e-05
1.96924e-05
1.96831e-05
1.96737e-05
1.96644e-05
1.96552e-05
1.96461e-05
1.9637e-05
1.96281e-05
1.96189e-05
1.96096e-05
1.96007e-05
1.95915e-05
1.95822e-05
1.95733e-05
1.95649e-05
1.95565e-05
1.95482e-05
1.954e-05
1.95315e-05
1.95231e-05
1.95149e-05
1.95064e-05
1.94979e-05
1.94897e-05
1.94815e-05
1.94735e-05
1.94654e-05
1.94573e-05
1.94494e-05
1.94416e-05
1.94337e-05
1.94258e-05
1.94179e-05
1.94101e-05
1.94023e-05
1.93945e-05
1.9387e-05
1.93797e-05
1.93721e-05
1.93646e-05
1.93574e-05
1.93501e-05
1.93428e-05
1.93356e-05
1.93283e-05
1.93211e-05
1.93138e-05
1.93067e-05
1.93e-05
1.92931e-05
1.92864e-05
1.92797e-05
1.92731e-05
1.92665e-05
1.92598e-05
1.9253e-05
1.92463e-05
1.92398e-05
1.92334e-05
1.92269e-05
1.92204e-05
1.92141e-05
1.92079e-05
1.92017e-05
1.91953e-05
1.91889e-05
1.91827e-05
1.91765e-05
1.91704e-05
1.91643e-05
1.91582e-05
1.91521e-05
1.91462e-05
1.91403e-05
1.91345e-05
1.91288e-05
1.91229e-05
1.9117e-05
1.9111e-05
1.91052e-05
1.90997e-05
1.90943e-05
1.90889e-05
1.90836e-05
1.90784e-05
1.90731e-05
1.90678e-05
1.90625e-05
1.90572e-05
1.90519e-05
1.90465e-05
1.90414e-05
1.90363e-05
1.90312e-05
1.90262e-05
1.90212e-05
1.90163e-05
1.90115e-05
1.90066e-05
1.90017e-05
1.89968e-05
1.8992e-05
1.89873e-05
1.89826e-05
1.8978e-05
1.89734e-05
1.89686e-05
1.89639e-05
1.89592e-05
1.89546e-05
1.895e-05
1.89454e-05
1.89408e-05
1.89363e-05
1.89321e-05
1.8928e-05
1.89238e-05
1.89197e-05
1.89157e-05
1.89115e-05
1.89074e-05
1.89033e-05
1.88993e-05
1.88953e-05
1.88914e-05
1.88875e-05
1.88835e-05
1.88797e-05
1.8876e-05
1.88723e-05
1.88685e-05
1.88644e-05
1.88598e-05
1.88554e-05
1.88515e-05
1.88478e-05
1.88442e-05
1.88407e-05
1.88371e-05
1.88336e-05
1.883e-05
1.88266e-05
1.88231e-05
1.88197e-05
1.8816e-05
1.88124e-05
1.88088e-05
1.88054e-05
1.88022e-05
1.8799e-05
1.87958e-05
1.87926e-05
1.87895e-05
1.87864e-05
1.87833e-05
1.87802e-05
1.87771e-05
1.87741e-05
1.87711e-05
1.87681e-05
1.87651e-05
1.87623e-05
1.87594e-05
1.87566e-05
1.87537e-05
1.87508e-05
1.87481e-05
1.87454e-05
1.87427e-05
1.874e-05
1.87373e-05
1.87346e-05
1.8732e-05
1.87294e-05
1.87269e-05
1.87243e-05
1.87217e-05
1.87191e-05
1.87166e-05
1.8714e-05
1.87114e-05
1.8709e-05
1.87067e-05
1.87044e-05
1.87021e-05
1.86998e-05
1.86975e-05
1.86952e-05
1.8693e-05
1.86907e-05
1.86883e-05
1.86858e-05
1.86834e-05
1.8681e-05
1.86787e-05
1.86765e-05
1.86744e-05
1.86724e-05
1.86703e-05
1.86682e-05
1.86662e-05
1.86642e-05
1.86622e-05
1.86602e-05
1.86582e-05
1.86563e-05
1.86544e-05
1.86525e-05
1.86506e-05
1.86487e-05
1.86468e-05
1.86449e-05
1.86429e-05
1.8641e-05
1.86392e-05
1.86374e-05
1.86358e-05
1.86341e-05
1.86325e-05
1.86308e-05
1.86292e-05
1.86276e-05
1.86259e-05
1.86242e-05
1.86226e-05
1.86211e-05
1.86195e-05
1.86179e-05
1.86164e-05
1.86149e-05
1.86134e-05
1.86119e-05
1.86104e-05
1.8609e-05
1.86076e-05
1.86062e-05
1.86048e-05
1.86035e-05
1.86021e-05
1.86006e-05
1.85992e-05
1.85978e-05
1.85965e-05
1.85951e-05
1.85938e-05
1.85925e-05
1.85912e-05
1.85899e-05
1.85886e-05
1.85875e-05
1.85863e-05
1.85852e-05
1.8584e-05
1.85829e-05
1.85819e-05
1.85808e-05
1.85797e-05
1.85785e-05
1.85774e-05
1.85764e-05
1.85753e-05
1.85743e-05
1.85733e-05
1.85724e-05
1.85714e-05
1.85704e-05
1.85695e-05
1.85685e-05
1.85676e-05
1.85667e-05
1.85658e-05
1.85649e-05
1.8564e-05
1.85631e-05
1.85623e-05
1.85614e-05
1.85606e-05
1.85598e-05
1.8559e-05
1.85582e-05
1.85574e-05
1.85566e-05
1.85559e-05
1.85552e-05
1.85545e-05
1.85538e-05
1.85532e-05
1.85525e-05
1.85518e-05
1.85512e-05
1.85505e-05
1.85499e-05
1.85493e-05
1.85487e-05
1.85481e-05
1.85475e-05
1.8547e-05
1.85464e-05
1.85459e-05
1.85453e-05
1.85448e-05
1.85443e-05
1.85438e-05
1.85434e-05
1.85429e-05
1.85424e-05
1.8542e-05
1.85416e-05
1.85412e-05
1.85407e-05
1.85403e-05
1.85399e-05
1.85395e-05
1.85391e-05
1.85388e-05
1.85384e-05
1.85381e-05
1.85378e-05
1.85375e-05
1.85372e-05
1.8537e-05
1.85367e-05
1.85364e-05
1.85362e-05
1.8536e-05
1.85357e-05
1.85355e-05
1.85353e-05
1.85351e-05
1.85349e-05
1.85348e-05
1.85346e-05
1.85345e-05
1.85343e-05
1.85342e-05
1.85341e-05
1.8534e-05
1.85339e-05
1.85338e-05
1.85337e-05
1.85337e-05
1.85336e-05
1.85336e-05
1.85336e-05
1.85336e-05
1.85335e-05
2.02906e-05
2.02783e-05
2.02658e-05
2.02531e-05
2.02405e-05
2.02277e-05
2.0215e-05
2.02026e-05
2.01905e-05
2.01785e-05
2.01666e-05
2.01548e-05
2.01426e-05
2.01302e-05
2.01181e-05
2.01062e-05
2.00945e-05
2.00828e-05
2.00712e-05
2.00597e-05
2.00477e-05
2.00359e-05
2.00246e-05
2.00137e-05
2.00026e-05
1.99912e-05
1.99802e-05
1.99692e-05
1.99583e-05
1.99473e-05
1.9936e-05
1.99249e-05
1.99141e-05
1.99033e-05
1.98927e-05
1.98824e-05
1.9872e-05
1.98617e-05
1.98515e-05
1.98413e-05
1.9831e-05
1.98206e-05
1.98104e-05
1.98005e-05
1.97904e-05
1.97803e-05
1.97704e-05
1.97606e-05
1.97507e-05
1.97407e-05
1.97306e-05
1.97209e-05
1.97114e-05
1.97018e-05
1.96923e-05
1.96831e-05
1.96738e-05
1.96645e-05
1.96553e-05
1.96461e-05
1.96371e-05
1.96282e-05
1.9619e-05