/*--------------------------------*- C++ -*----------------------------------*\
  =========                 |
  \\      /  F ield         | OpenFOAM: The Open Source CFD Toolbox
   \\    /   O peration     | Website:  https://openfoam.org
    \\  /    A nd           | Version:  7
     \\/     M anipulation  |
\*---------------------------------------------------------------------------*/
FoamFile
{
    version     2.0;
    format      ascii;
    class       volScalarField;
    location    "2000";
    object      muTotal;
}
// * * * * * * * * * * * * * * * * * * * * * * * * * * * * * * * * * * * * * //

dimensions      [1 -1 -1 0 0 0 0];

internalField   nonuniform List<scalar> 
160000
(
0.000209535
0.000210471
0.000171349
0.000182653
0.000172878
0.000170271
0.000199946
0.000239038
0.000202973
0.000202201
0.000197812
0.000190866
0.000186086
0.000214414
0.000209785
0.000197262
0.000198202
0.000213983
0.00024752
0.000243875
0.000193239
0.000194163
0.000224656
0.000218513
0.000181815
0.000182685
0.000239913
0.000241087
0.00024225
0.000243416
0.000244545
0.0001971
0.000198077
0.00019906
0.000199995
0.000203871
0.000264208
0.000265464
0.000266687
0.000267915
0.000191871
0.000192782
0.00021146
0.000268643
0.000269883
0.000271172
0.000272444
0.000215936
0.00021693
0.000217949
0.000221355
0.000281442
0.000282747
0.000284043
0.000285329
0.000283819
0.000240079
0.000241172
0.000244284
0.000264155
0.000265371
0.000266582
0.000267755
0.000268894
0.000270026
0.000251141
0.000243009
0.000244075
0.000245108
0.000278971
0.000280282
0.000281463
0.000282634
0.000283784
0.000284952
0.000286112
0.000287299
0.000288457
0.000289634
0.000290799
0.000291974
0.000291636
0.000284385
0.000285494
0.000287435
0.000288561
0.000283316
0.000282693
0.000283745
0.000278437
0.000279488
0.000301056
0.000302253
0.000303388
0.00030031
0.000301363
0.000312003
0.000313125
0.000314253
0.000315352
0.000316469
0.000307373
0.000308545
0.000309627
0.000317177
0.000302757
0.000303774
0.000330324
0.000331476
0.000332589
0.000333742
0.000334812
0.000335888
0.000322766
0.000323772
0.000315348
0.000316335
0.000348089
0.000349203
0.000350345
0.000351451
0.000352526
0.000355494
0.00035658
0.000357664
0.000354419
0.000322403
0.000323349
0.000324272
0.000313079
0.000313978
0.000314848
0.000373309
0.000374401
0.0003336
0.000324061
0.000324953
0.000325808
0.000326684
0.000327506
0.000345332
0.000332507
0.000333378
0.000369715
0.000370683
0.000371702
0.000372618
0.000373623
0.000353993
0.000350015
0.000361473
0.00036235
0.000363212
0.000349307
0.000350148
0.000378409
0.000379343
0.000380218
0.000367696
0.000351691
0.000352502
0.000356336
0.000350924
0.000338385
0.000339141
0.000378436
0.000379296
0.000380102
0.000380934
0.0003817
0.000382558
0.000383346
0.000365253
0.000364682
0.000365443
0.000367342
0.000393257
0.000384117
0.000383233
0.000384013
0.00038474
0.000393456
0.000394177
0.000394931
0.000411711
0.000422574
0.000405588
0.000374878
0.000375577
0.000376321
0.000344327
0.000342953
0.000344279
0.000344907
0.000345549
0.000346136
0.000401163
0.000345636
0.00034169
0.000342252
0.000342945
0.000343486
0.000344078
0.000370852
0.000419704
0.000420357
0.000421031
0.000421616
0.000405738
0.000413654
0.000414276
0.000388688
0.000389259
0.000404229
0.000404803
0.00040538
0.000405937
0.000418634
0.000419202
0.000419843
0.000420383
0.000393658
0.000394166
0.000444354
0.000459085
0.00045973
0.000460279
0.000433933
0.000393043
0.000393563
0.00039401
0.000443166
0.000441135
0.000441674
0.000442207
0.000427129
0.000407232
0.000413954
0.000414402
0.000420883
0.000421367
0.000435026
0.00045607
0.000456549
0.000458025
0.000438758
0.000434008
0.000389868
0.000342991
0.000343301
0.000343815
0.000344183
0.000344579
0.000356238
0.000405058
0.000413446
0.000413804
0.000395002
0.000395305
0.000385164
0.000385508
0.000385945
0.000386267
0.000414512
0.00044922
0.000449665
0.00045004
0.000450459
0.000450804
0.000451268
0.000446208
0.000421943
0.000421647
0.000399902
0.000401049
0.000462658
0.000494999
0.000495381
0.00044851
0.000397397
0.000397696
0.000442805
0.000443125
0.000441973
0.000398743
0.00039912
0.000399293
0.000399688
0.00042886
0.000445937
0.000446265
0.000446528
0.000485195
0.000485523
0.000485853
0.000486181
0.000453586
0.000453873
0.00049825
0.000460655
0.000342343
0.000340599
0.000340538
0.000341048
0.000341042
0.000341497
0.000341694
0.000344586
0.000350289
0.00041293
0.000447373
0.000447585
0.000454074
0.000454319
0.000400186
0.000395708
0.000395834
0.000396094
0.000425375
0.000471952
0.000465862
0.000466058
0.000493918
0.000494137
0.000494528
0.000427227
0.000406131
0.000406468
0.000406486
0.000406804
0.000406875
0.000407119
0.000407188
0.000407427
0.000407527
0.000407724
0.00041736
0.000466798
0.000343858
0.000309624
0.000309786
0.000309849
0.000309964
0.000310054
0.000533437
0.000563043
0.000563307
0.000563362
0.000563643
0.000524206
0.000463854
0.000445752
0.000479603
0.000479726
0.000479917
0.000479967
0.000480167
0.000480198
0.000450573
0.000450096
0.000450195
0.000480398
0.000480749
0.000480827
0.000481062
0.000461778
0.000459132
0.000459223
0.000459295
0.000459367
0.00045391
0.000449576
0.000444302
0.000438145
0.000438214
0.000444438
0.000444495
0.000472457
0.000472489
0.000475367
0.00047542
0.00047547
0.000476013
0.000476045
0.000476143
0.000476116
0.0004527
0.000445748
0.000445781
0.000450024
0.000450343
0.000436175
0.000435584
0.00036766
0.000345993
0.000287201
0.000206193
0.000206281
0.000206283
0.000206316
0.000184449
0.000182385
0.000229958
0.000169948
0.000170715
0.000176765
0.000192957
0.000193852
0.000198597
0.000199432
0.000200398
0.000207716
0.000217126
0.000218177
0.000219246
0.000212836
0.000198182
0.00021398
0.00020997
0.000192337
0.00019326
0.000223594
0.000224671
0.000225764
0.000198492
0.000238696
0.000239875
0.000241069
0.000242248
0.000243402
0.000214732
0.000199554
0.000201968
0.000199055
0.000199997
0.000261694
0.000263438
0.000233562
0.000266641
0.000222542
0.000191892
0.000192785
0.000202104
0.000265841
0.000269872
0.000271178
0.00027032
0.000235525
0.000218306
0.000217952
0.000218982
0.000273723
0.000268377
0.000263677
0.000264891
0.000283095
0.000277139
0.000258365
0.000263023
0.000264194
0.000265364
0.000266568
0.000259127
0.000268889
0.000270037
0.000247299
0.000270069
0.000276642
0.000277824
0.000278976
0.000255135
0.000253987
0.000255014
0.000274645
0.000265736
0.000266831
0.00026792
0.000269009
0.000288849
0.000291301
0.000288978
0.000282054
0.000290141
0.000291699
0.000292842
0.000287105
0.000283318
0.000296564
0.000297678
0.000298829
0.000299949
0.000301105
0.000302228
0.000303422
0.000304264
0.000305342
0.000299637
0.000299502
0.000284254
0.000285251
0.00028624
0.000287251
0.000320809
0.000346347
0.000320911
0.000320697
0.000321769
0.000306787
0.000307663
0.000308719
0.000309744
0.000310767
0.000336388
0.000338766
0.000344815
0.000345907
0.000347001
0.000348088
0.00034921
0.000350327
0.000345824
0.00032427
0.000325245
0.000326233
0.000327217
0.000337031
0.000326174
0.000333355
0.000338591
0.000313073
0.00031397
0.000325768
0.000373313
0.000374432
0.00037552
0.000376552
0.000384144
0.000341206
0.000329245
0.000356373
0.00036676
0.000367755
0.000368766
0.000369704
0.000370728
0.000358358
0.000351951
0.000345456
0.000346329
0.000349996
0.000339252
0.000340085
0.000364565
0.000376611
0.000377517
0.000378453
0.000379328
0.000380249
0.000351843
0.000355163
0.000355984
0.000356353
0.000337619
0.000338387
0.000342551
0.000378447
0.000379283
0.000378174
0.000369788
0.000341894
0.00034265
0.000343359
0.000351247
0.000394114
0.000394955
0.00041535
0.00040532
0.000391622
0.000402948
0.00038745
0.000390808
0.000391539
0.000392314
0.000407945
0.000421788
0.000422594
0.000417647
0.000382824
0.000424965
0.000425862
0.000426636
0.000342525
0.000343172
0.000353524
0.000355654
0.000400512
0.000401195
0.000356564
0.000341629
0.000342333
0.000342918
0.000343513
0.000353342
0.000404252
0.0004197
0.000420367
0.00039875
0.000376758
0.000377317
0.000377881
0.000378424
0.000378981
0.000413929
0.000420818
0.000421424
0.000422973
0.000427305
0.000380627
0.000381186
0.000381717
0.000382238
0.000383652
0.00043205
0.000458494
0.000459133
0.00045969
0.000460375
0.000460878
0.00046155
0.000462049
0.000462678
0.000463159
0.000424221
0.000373303
0.000373814
0.000419504
0.000396485
0.000396949
0.000397395
0.000397836
0.000398277
0.00044524
0.000469558
0.000470083
0.000467189
0.000478279
0.000478765
0.000369593
0.000342849
0.000343391
0.000343708
0.000356747
0.000379202
0.000379569
0.00039429
0.000400607
0.000400981
0.000416522
0.000384808
0.000385109
0.00038556
0.000385903
0.000431133
0.000448813
0.000449246
0.000424627
0.000425044
0.000450417
0.000450866
0.00045122
0.000415666
0.000385962
0.000386279
0.000386586
0.000412148
0.000488714
0.000495037
0.000436132
0.000397092
0.000397361
0.000431028
0.000442798
0.000410067
0.000398422
0.000398837
0.000399012
0.000399403
0.000399667
0.000410619
0.00042739
0.000450261
0.000484851
0.000485171
0.000439496
0.000439778
0.000516502
0.000516832
0.000506437
0.000517465
0.000517891
0.000356941
0.000340299
0.000340777
0.000340949
0.000341917
0.000356069
0.000392112
0.000422025
0.000424873
0.000444618
0.00045363
0.000453849
0.000454095
0.000441498
0.000395508
0.000395628
0.000395895
0.000413792
0.000474504
0.000492117
0.000492345
0.000493667
0.000493878
0.000494288
0.000494336
0.00044086
0.000426059
0.000406356
0.000406641
0.000406762
0.000458257
0.00046268
0.000422137
0.000416533
0.000407581
0.000407691
0.000443945
0.000482799
0.000442482
0.000407111
0.000432702
0.000408322
0.000314789
0.000408654
0.00056286
0.000563119
0.000528441
0.000422588
0.000422574
0.00042282
0.000422878
0.000426148
0.000476411
0.000479748
0.000478587
0.000478755
0.000480087
0.000480257
0.000480316
0.000480453
0.00048053
0.000480654
0.000480732
0.000480946
0.000480929
0.000481261
0.000481115
0.000431267
0.0004313
0.000431409
0.000431437
0.000431539
0.000431597
0.000438145
0.000456572
0.000456651
0.000475175
0.000475247
0.000475307
0.000475366
0.000475415
0.000474235
0.000476006
0.000462331
0.000462368
0.00046252
0.00045265
0.00045369
0.000482996
0.000482995
0.000469416
0.000469643
0.000469661
0.000415397
0.000411876
0.000344496
0.000206182
0.000206275
0.000206306
0.000206322
0.000184437
0.000197882
0.000229963
0.000231023
0.000224387
0.000190538
0.000210177
0.000211175
0.000202064
0.000209761
0.000210785
0.000211801
0.000213206
0.000218149
0.000219233
0.000220294
0.000219365
0.00018946
0.000196988
0.000212615
0.000213651
0.000213308
0.000214338
0.000218727
0.000237565
0.000238705
0.000239858
0.000241036
0.000242229
0.000235657
0.000228092
0.000228626
0.000215067
0.000199058
0.00020001
0.000244727
0.000251369
0.000233549
0.000234615
0.000236378
0.000247756
0.000247142
0.000238101
0.000246642
0.000218561
0.000218886
0.000232421
0.000243943
0.000245065
0.000246249
0.000239089
0.000240186
0.000255197
0.000275429
0.000279237
0.000282023
0.000281445
0.00026328
0.000242734
0.000243815
0.000253451
0.000266531
0.000252603
0.000227935
0.000243036
0.000244107
0.000245175
0.000246214
0.000252602
0.000278992
0.000280142
0.000275817
0.000255012
0.000256039
0.000285412
0.000286596
0.000287787
0.000288953
0.000290157
0.000291325
0.000297461
0.00026576
0.000266392
0.000267421
0.000292841
0.000292323
0.000302952
0.000283119
0.000268199
0.000284632
0.000289407
0.000288281
0.000291816
0.000288144
0.00028921
0.000300339
0.000301938
0.000303029
0.000304125
0.000305215
0.000328458
0.000329617
0.000320821
0.000346357
0.00034755
0.000298353
0.000298733
0.000299734
0.000327671
0.000328785
0.00032989
0.000330966
0.000332047
0.00032888
0.000332661
0.000333715
0.000344921
0.000329084
0.000302861
0.000303832
0.000304774
0.000331226
0.000332859
0.000333869
0.000327877
0.000328874
0.00033877
0.000342594
0.000343602
0.000344595
0.000353116
0.000354164
0.000355183
0.000356251
0.000361529
0.000362512
0.000384146
0.000381033
0.000343429
0.000340153
0.00036675
0.000329194
0.000330049
0.00035906
0.000357227
0.000358168
0.000364857
0.000357734
0.000346306
0.000352254
0.00036281
0.000363694
0.000364551
0.000358969
0.000340404
0.000341217
0.000379343
0.000351264
0.000338133
0.000338912
0.000355981
0.00039114
0.00039208
0.000392951
0.000364825
0.000357234
0.000358026
0.000367687
0.000393442
0.000342233
0.000342583
0.000343383
0.000344012
0.000344793
0.000345471
0.000417351
0.000418184
0.000419044
0.000419854
0.000418952
0.000385617
0.000360593
0.000393298
0.000417998
0.000418772
0.000422574
0.000423406
0.000424171
0.000425086
0.000425834
0.000293701
0.000294259
0.000352677
0.000371208
0.000379986
0.000400542
0.000401229
0.000399585
0.000351756
0.000342313
0.000351445
0.000382423
0.000409343
0.000375016
0.000373034
0.00037362
0.000374202
0.000386535
0.000389473
0.000390048
0.000387391
0.000417059
0.000428086
0.000418547
0.000419166
0.000429922
0.000430527
0.000416241
0.000381182
0.00038171
0.00042782
0.000457288
0.000457887
0.00045853
0.000459092
0.000459742
0.00046029
0.000460918
0.000461464
0.000462128
0.000462603
0.000463184
0.000372816
0.00037335
0.00042771
0.000395821
0.000396286
0.000400581
0.000448988
0.000456462
0.000456979
0.000457481
0.000457978
0.000470094
0.000477855
0.000478326
0.000434204
0.000342414
0.000343011
0.000343289
0.000347475
0.000371228
0.00037587
0.000376234
0.000399671
0.000420198
0.000426111
0.000435482
0.000435869
0.000398385
0.000385536
0.000425538
0.000448403
0.000448829
0.000449212
0.000449642
0.000450009
0.000437363
0.000406986
0.00040738
0.000427111
0.000476862
0.000477259
0.000477643
0.000478536
0.00048951
0.000495077
0.000396779
0.000397008
0.000397382
0.000397579
0.000397975
0.000398193
0.00039856
0.000398823
0.000442903
0.000465353
0.000465679
0.000465993
0.000467903
0.000470468
0.000470774
0.000478158
0.000515771
0.000516271
0.000516495
0.000517085
0.000517171
0.000517686
0.000517817
0.000374596
0.000340643
0.000340772
0.00040599
0.00048316
0.000486525
0.000413027
0.000411607
0.000411821
0.000450201
0.000453615
0.000434151
0.00041616
0.000395323
0.000395447
0.000395709
0.000449311
0.000483835
0.000484061
0.000484282
0.000493417
0.000493628
0.000494032
0.000423172
0.000403519
0.000403672
0.000405943
0.000406495
0.000406633
0.000420611
0.000462505
0.000462697
0.000452122
0.000448289
0.000448131
0.000448509
0.000503545
0.000552666
0.000552873
0.000546201
0.000492033
0.000444447
0.000473034
0.000481471
0.000443184
0.000422263
0.000422466
0.000422432
0.000422706
0.000427263
0.000473416
0.000475295
0.000475448
0.00047368
0.000473862
0.000479434
0.000480097
0.000451696
0.000432137
0.000432259
0.000465842
0.000480627
0.000480834
0.00048083
0.000481008
0.000443523
0.000514985
0.00053644
0.000511405
0.0005608
0.000583376
0.000583422
0.000454996
0.000408669
0.000408882
0.000408791
0.000408983
0.000408985
0.000450888
0.000460941
0.000443171
0.000474253
0.000477835
0.000477814
0.000472542
0.000476742
0.000482963
0.000482982
0.000483005
0.00044419
0.000455884
0.000469644
0.000469662
0.000469676
0.000458017
0.000329862
0.000206183
0.000206298
0.000206313
0.000206329
0.000191699
0.000197283
0.000208988
0.000211166
0.000208735
0.000209231
0.000210196
0.000210246
0.000197289
0.000192601
0.00019351
0.000196212
0.000198304
0.000213097
0.000219218
0.000198416
0.000194356
0.000189459
0.000202987
0.000209323
0.000213648
0.000214688
0.000215103
0.00021871
0.00021746
0.000218501
0.000238179
0.000231211
0.000194075
0.000195757
0.000231625
0.000238809
0.000241888
0.000243799
0.000245006
0.000246174
0.000231545
0.000232611
0.000251839
0.000253039
0.000251328
0.000241451
0.000237551
0.000235468
0.000222277
0.000218861
0.000219864
0.000220861
0.000229412
0.000246246
0.000247408
0.000248598
0.000240403
0.000242065
0.000229884
0.000230905
0.000234903
0.000245648
0.00025855
0.000262635
0.000263789
0.000264958
0.000218747
0.00022793
0.000251976
0.00026819
0.000277005
0.000308467
0.000309775
0.000264369
0.000265475
0.000266885
0.000282161
0.000295969
0.000268121
0.00024382
0.000244793
0.000245784
0.000246783
0.000269822
0.000298393
0.000299609
0.000297368
0.000299355
0.000300565
0.000301767
0.000302952
0.000304138
0.000268183
0.000267282
0.000268289
0.000288281
0.000289353
0.000288144
0.000300398
0.000301151
0.000240763
0.00026577
0.0003041
0.000305207
0.000293302
0.000354436
0.000355657
0.000346367
0.000357159
0.000338447
0.000305137
0.000299735
0.000314872
0.00031053
0.000313077
0.000330946
0.000310772
0.000299478
0.000332252
0.000342505
0.000343578
0.000328471
0.000302877
0.00030383
0.000305808
0.000294062
0.000294102
0.000294991
0.000328281
0.000329279
0.000330318
0.000331268
0.000332441
0.000337219
0.000328676
0.000339295
0.000339792
0.00038891
0.000412298
0.000413416
0.000404487
0.000324339
0.000319204
0.000320004
0.00032089
0.000321712
0.00036452
0.000365479
0.000366494
0.000367411
0.000368409
0.000369283
0.000370193
0.000371092
0.000333178
0.000330438
0.000331226
0.000347255
0.000375859
0.000385712
0.000386621
0.000387564
0.000388443
0.00038935
0.00039023
0.000391173
0.000392052
0.000382074
0.000322278
0.000357249
0.000422454
0.000444312
0.000445338
0.000446227
0.00044727
0.000398862
0.000399666
0.000396474
0.000364061
0.000364796
0.000365539
0.000366264
0.000394746
0.000418218
0.0003488
0.000339248
0.000371469
0.000420128
0.000421764
0.000422581
0.000423361
0.000424278
0.000380712
0.000280376
0.000280911
0.000343088
0.000360678
0.000361335
0.000354593
0.000355216
0.000391535
0.000399564
0.000397272
0.000379909
0.000344607
0.00038227
0.000436005
0.000443005
0.000443713
0.000422841
0.00037493
0.00037431
0.000374872
0.00037544
0.000391355
0.000427446
0.000428069
0.000428719
0.000429321
0.00042994
0.000430533
0.000423864
0.000409007
0.000434449
0.000456665
0.00045727
0.000457899
0.000455488
0.00040034
0.000393157
0.000396076
0.000417702
0.000442275
0.000457731
0.000461369
0.000404545
0.000338673
0.00037556
0.000485322
0.000496571
0.00049715
0.000497721
0.000426169
0.000390543
0.000390982
0.00039683
0.000461063
0.000477431
0.000477901
0.000478397
0.000381396
0.000342623
0.000342894
0.0003434
0.000364466
0.000366419
0.000366788
0.000383262
0.000432684
0.000434628
0.000435085
0.000435455
0.000435947
0.000436297
0.000432609
0.000447979
0.000448413
0.000448796
0.00042724
0.000386497
0.000418427
0.000494141
0.000494586
0.000495008
0.000479242
0.000422931
0.000423285
0.000423604
0.000464106
0.000499031
0.000499519
0.000499825
0.000440094
0.000397317
0.000397684
0.000397961
0.000409204
0.000415878
0.000416206
0.000416485
0.000418914
0.000447327
0.000465989
0.000445994
0.000438246
0.000460972
0.00051543
0.0005159
0.000516117
0.000516692
0.000444015
0.000435233
0.000449455
0.000422101
0.000376874
0.000430729
0.000495951
0.000522298
0.000522571
0.000522888
0.000523141
0.000478463
0.000422372
0.000408114
0.000408332
0.000420272
0.000473928
0.000459566
0.000398063
0.000395688
0.000395907
0.000396074
0.00044238
0.000493127
0.00049337
0.000467054
0.00041091
0.000403332
0.000403479
0.000417055
0.00043896
0.000466799
0.000467357
0.000447915
0.000428836
0.000460301
0.000500354
0.000543794
0.000552073
0.000552359
0.000552478
0.00055287
0.000552858
0.000512976
0.000448298
0.000444462
0.000454714
0.000481535
0.000481636
0.000481834
0.000432619
0.000422587
0.000422656
0.000422817
0.000427311
0.000429084
0.000458334
0.000476073
0.000476184
0.000476307
0.000476412
0.000479595
0.000479787
0.000479807
0.000479991
0.000446995
0.000403525
0.000433886
0.000438995
0.000384267
0.000438274
0.000567955
0.000583153
0.000583279
0.000583339
0.000583457
0.000554759
0.000439841
0.00040875
0.000408932
0.000408882
0.000409028
0.000470762
0.000445112
0.000443125
0.000443214
0.000477776
0.000477905
0.000477863
0.00047799
0.000482971
0.000440027
0.000412497
0.000412563
0.000412567
0.000412601
0.000446473
0.000469676
0.000466507
0.000418984
0.000356152
0.000234808
0.000206328
0.000206332
0.000195172
0.00022046
0.000213622
0.000200419
0.000201023
0.000199273
0.000196855
0.000198322
0.000187479
0.000188348
0.000195333
0.000196191
0.000212876
0.000191728
0.000192673
0.000210428
0.000211436
0.000212471
0.00021351
0.000205588
0.0002066
0.000208003
0.00021111
0.0002133
0.000214327
0.000222328
0.000238161
0.000222472
0.000188262
0.000186111
0.000187009
0.00018789
0.000222283
0.000189682
0.00023488
0.000255429
0.0002566
0.000257795
0.000251859
0.00024505
0.000246215
0.000242777
0.000227525
0.000228573
0.000245522
0.000246956
0.000236598
0.00023768
0.000236373
0.000237497
0.000247417
0.000237949
0.000235366
0.000236415
0.000257159
0.000258321
0.000248676
0.00025101
0.00024908
0.000250175
0.000260631
0.000233747
0.000217454
0.000218394
0.000219319
0.000220276
0.000221255
0.000299047
0.000309803
0.000311114
0.000312388
0.000313662
0.00031494
0.000296161
0.000285787
0.000251385
0.000244816
0.00024579
0.000246775
0.000247766
0.000248762
0.000299613
0.000300793
0.00030197
0.000298625
0.000290202
0.000291344
0.000298605
0.000299756
0.000300906
0.000278404
0.000281065
0.000300406
0.000301514
0.00030111
0.000283093
0.000221645
0.000222428
0.000223191
0.000223979
0.000224793
0.000297719
0.000365794
0.000367013
0.00036831
0.000369533
0.000370827
0.000338374
0.000327853
0.000310516
0.00029298
0.000307715
0.00029781
0.000295571
0.000296508
0.000297461
0.000338985
0.000340049
0.000319507
0.000317584
0.000319987
0.000301508
0.000309236
0.000325946
0.000313174
0.000314141
0.000315062
0.000331441
0.000332427
0.000330972
0.000277655
0.00024684
0.000247543
0.000248267
0.000375971
0.000415501
0.000416595
0.000417693
0.000418794
0.000396472
0.000334962
0.000321731
0.000322576
0.000323442
0.000360537
0.000356595
0.0003575
0.000369274
0.000370181
0.000371108
0.000365547
0.000366039
0.000366914
0.000357429
0.000332078
0.000332842
0.000333667
0.000334423
0.000361431
0.000389311
0.000390267
0.000335917
0.000253514
0.000254097
0.000254643
0.00025521
0.000255772
0.000415837
0.000445305
0.000446316
0.000447172
0.000430896
0.000394905
0.00038818
0.000388969
0.000389716
0.000381087
0.000384519
0.000387641
0.000407467
0.00040821
0.000339211
0.000339793
0.000340409
0.000391042
0.000422541
0.000423479
0.00037726
0.000279807
0.000280335
0.00030219
0.00033679
0.000356571
0.000353984
0.000354615
0.0003552
0.000389182
0.000399528
0.00036851
0.000313697
0.000303123
0.000358761
0.000439281
0.000443011
0.000443703
0.000434225
0.000395065
0.000393304
0.00041054
0.000424202
0.000426778
0.000427407
0.00042108
0.000384637
0.000385194
0.000400713
0.000438701
0.000439991
0.000440597
0.000441226
0.000441817
0.000410069
0.000408544
0.000392216
0.000392651
0.000393159
0.000417913
0.000441861
0.000442413
0.000434293
0.000388925
0.000311704
0.000312086
0.000312465
0.000436658
0.000496589
0.000497163
0.000497727
0.000499805
0.000500355
0.000500991
0.000501446
0.000502067
0.000484204
0.000384028
0.000341724
0.000342258
0.000342497
0.000343034
0.000361219
0.000394873
0.000405291
0.00041293
0.000429727
0.000434201
0.000434653
0.000435039
0.000435484
0.000419624
0.000391952
0.00039234
0.000398068
0.000419715
0.000364805
0.000300328
0.000300607
0.000300881
0.000487431
0.000494602
0.000495031
0.000489762
0.00043473
0.000430677
0.000497844
0.000498641
0.000499141
0.000499434
0.000450284
0.000397056
0.000397398
0.000397681
0.000424498
0.000414087
0.000414394
0.000419455
0.000426832
0.000427139
0.000427444
0.00041515
0.000415428
0.000438246
0.00050566
0.000515532
0.000515771
0.000516284
0.000427233
0.000323978
0.000302398
0.000302624
0.000302795
0.000303
0.00043227
0.000521986
0.000522285
0.000497582
0.000476405
0.000476662
0.000476912
0.000503683
0.000503924
0.000492951
0.000493185
0.000493428
0.000493654
0.00048925
0.000483446
0.000483693
0.000468743
0.00041985
0.000402525
0.000402802
0.000402823
0.000403157
0.000403218
0.000403508
0.000445217
0.000466962
0.000467161
0.000467357
0.000334872
0.000313477
0.000313599
0.000313718
0.000313839
0.00041492
0.000539856
0.000552526
0.000552672
0.000547854
0.000530168
0.000543943
0.000544075
0.000460696
0.00042022
0.000420383
0.000420475
0.000446315
0.000463424
0.00046356
0.00045642
0.000476433
0.000476529
0.000473341
0.000440233
0.000437726
0.000460665
0.000479485
0.000479608
0.000479703
0.000479886
0.000479906
0.000439088
0.000375545
0.000290604
0.000264863
0.000264928
0.000264972
0.000461387
0.000573388
0.000573403
0.000583372
0.000583429
0.000553298
0.000409116
0.000408903
0.00048609
0.000486088
0.000475547
0.000477543
0.00047758
0.000477715
0.000477691
0.000477901
0.000476197
0.000446604
0.000481586
0.000485862
0.000485794
0.000485885
0.000482638
0.000446733
0.000412585
0.000412652
0.000412649
0.000414335
0.000447386
0.000393331
0.000248396
0.000206353
0.000206362
0.000182559
0.000221107
0.000199932
0.000189565
0.000191483
0.000204711
0.000196454
0.000197367
0.0002053
0.000210088
0.000211085
0.000211895
0.000212898
0.000211981
0.00021302
0.000204986
0.000205972
0.000210526
0.000213497
0.000214955
0.000224368
0.000204498
0.000191839
0.000192725
0.000218789
0.000209132
0.000210114
0.000212196
0.000217647
0.000210786
0.000187008
0.000187894
0.000188785
0.000189693
0.000250146
0.000255425
0.000256612
0.000257799
0.000259037
0.000260282
0.000261531
0.000261061
0.00023853
0.000244656
0.000245797
0.000246956
0.000234973
0.000236054
0.000242671
0.000242312
0.000230648
0.0002317
0.000247063
0.000248193
0.000249307
0.000258311
0.000259473
0.000258422
0.00025472
0.00025584
0.000246791
0.000244261
0.00022955
0.000218394
0.000219322
0.000220286
0.000221274
0.000253543
0.000309827
0.000311099
0.000312391
0.000297987
0.00027046
0.000271559
0.000285797
0.000286982
0.000271943
0.000263575
0.000252628
0.000268686
0.000280475
0.00028159
0.000282709
0.000293974
0.000305391
0.000306602
0.0003078
0.000308999
0.000272139
0.000264202
0.000265177
0.00029927
0.000300387
0.00028133
0.000257507
0.000220992
0.000221648
0.000222413
0.000223207
0.000223997
0.000224788
0.000350559
0.000365791
0.000367078
0.000368303
0.000361797
0.000328503
0.000338342
0.000339473
0.000307503
0.000286366
0.000287287
0.000302587
0.000333725
0.000323941
0.000297436
0.00029837
0.000324987
0.000359777
0.00036094
0.000362074
0.000363205
0.000343231
0.000344274
0.000337129
0.000320236
0.000329726
0.000326424
0.000307679
0.000246182
0.000246141
0.000246827
0.000247563
0.000248256
0.000399628
0.000415494
0.000416677
0.000417719
0.000418838
0.000399615
0.000353159
0.000337755
0.000361753
0.00033046
0.000331338
0.000348968
0.000368331
0.000369258
0.000336053
0.000336875
0.000347032
0.000366033
0.000366916
0.000367442
0.000366538
0.00034615
0.000352069
0.000382644
0.000388412
0.000389362
0.000390224
0.000361731
0.00025352
0.000254072
0.000254654
0.000255211
0.000255793
0.000359965
0.000445318
0.000446242
0.000443058
0.000435814
0.000436939
0.000437836
0.000388701
0.000389481
0.000394963
0.00039564
0.000406653
0.000407446
0.000399681
0.000340838
0.00034733
0.000415268
0.000416013
0.000357102
0.000278556
0.000279274
0.000279751
0.000313053
0.000372838
0.000386725
0.000373849
0.000354014
0.00035459
0.000355207
0.00037214
0.000339612
0.000302067
0.000302597
0.000303117
0.00035033
0.000436044
0.000443002
0.00043992
0.000424149
0.000424513
0.000416197
0.000405826
0.000406438
0.000426756
0.000427407
0.00038521
0.000384633
0.000385176
0.000387384
0.000414227
0.000385388
0.0003683
0.000368792
0.000369299
0.000374809
0.00041172
0.000435766
0.000436342
0.000436913
0.000437474
0.000441855
0.000442409
0.00035995
0.000311316
0.000311703
0.000312079
0.000312467
0.000398981
0.000483222
0.000495744
0.000499262
0.000499802
0.000500476
0.000438993
0.000439539
0.000446688
0.000360731
0.00034146
0.000341944
0.000342864
0.000352182
0.000352561
0.000356843
0.000402774
0.00044307
0.000444586
0.000445027
0.000416239
0.00039507
0.000395416
0.000395828
0.000396189
0.00043823
0.000461067
0.000461523
0.000423601
0.00030005
0.000300324
0.000300593
0.000300883
0.000430584
0.000489893
0.000489126
0.000489512
0.000481908
0.000485423
0.000498247
0.000498744
0.000499038
0.000424056
0.000416466
0.000416779
0.000447169
0.000475361
0.000475765
0.000476102
0.000476464
0.000438203
0.000400331
0.000400641
0.000448226
0.00046959
0.000469921
0.000470568
0.000500088
0.000346934
0.000301698
0.000301807
0.000302074
0.000302186
0.000302442
0.000302593
0.000302803
0.000302964
0.000402032
0.000521984
0.000522287
0.000522579
0.000514621
0.000485793
0.000501643
0.000523775
0.000495467
0.000400407
0.000399911
0.000399998
0.000400327
0.000400406
0.000400718
0.000446893
0.000481118
0.000481347
0.000481562
0.000436076
0.000402988
0.000403132
0.000404332
0.000444772
0.000462502
0.000462682
0.00046291
0.000467363
0.000372823
0.000313452
0.000313596
0.000313716
0.000313837
0.000419585
0.000534861
0.000534951
0.000535168
0.000535324
0.000543758
0.000543912
0.000492874
0.000460675
0.000480515
0.000480619
0.000420615
0.000420798
0.000457869
0.000476145
0.000476331
0.000476404
0.000476647
0.000473674
0.000437619
0.000437736
0.000437831
0.000437942
0.000438018
0.000438139
0.000438231
0.000465736
0.000458664
0.000326022
0.000264749
0.000264874
0.000264915
0.000264973
0.0003931
0.000578801
0.000583295
0.000583344
0.000583474
0.000583516
0.000583739
0.00058367
0.000568813
0.000466924
0.000456603
0.000456646
0.000446717
0.000429323
0.000429365
0.000429404
0.000446579
0.000446605
0.000446637
0.000485762
0.000485897
0.000485824
0.000485974
0.000485864
0.000486002
0.000485898
0.000459278
0.000459225
0.000459283
0.000431846
0.000251604
0.000206389
0.000206376
0.000200397
0.000194235
0.000188677
0.000189545
0.000206033
0.0002047
0.000196461
0.000207787
0.000209139
0.00021011
0.000211087
0.000211307
0.000194921
0.000195882
0.000202614
0.000203587
0.000213376
0.000216255
0.000219207
0.000223226
0.000224359
0.000204494
0.00020919
0.00022393
0.000224996
0.000226104
0.000219957
0.000219156
0.000217664
0.00021899
0.000187004
0.000187916
0.000188801
0.000189696
0.000254203
0.000255409
0.000256611
0.000257843
0.00025788
0.000260261
0.000261504
0.000262321
0.000238527
0.000242128
0.000233601
0.000234703
0.000237755
0.000241553
0.000242678
0.000243821
0.000244984
0.000244078
0.000247054
0.000248189
0.000248688
0.00025831
0.000259465
0.000243203
0.000242748
0.000243815
0.000244873
0.000253316