/*--------------------------------*- C++ -*----------------------------------*\
  =========                 |
  \\      /  F ield         | OpenFOAM: The Open Source CFD Toolbox
   \\    /   O peration     | Website:  https://openfoam.org
    \\  /    A nd           | Version:  7
     \\/     M anipulation  |
\*---------------------------------------------------------------------------*/
FoamFile
{
    version     2.0;
    format      ascii;
    class       volScalarField;
    location    "2000";
    object      nuTotal;
}
// * * * * * * * * * * * * * * * * * * * * * * * * * * * * * * * * * * * * * //

dimensions      [0 2 -1 0 0 0 0];

internalField   nonuniform List<scalar> 
160000
(
3.99328e-07
4.0105e-07
4.12808e-07
4.11478e-07
4.16427e-07
4.19351e-07
4.13375e-07
4.08081e-07
4.16753e-07
4.19066e-07
4.22282e-07
4.26155e-07
4.29626e-07
4.25244e-07
4.28383e-07
4.33414e-07
4.35418e-07
4.34135e-07
4.30521e-07
4.33355e-07
4.45856e-07
4.4793e-07
4.43456e-07
4.46933e-07
4.58344e-07
4.60477e-07
4.50048e-07
4.52181e-07
4.54318e-07
4.56438e-07
4.58517e-07
4.70643e-07
4.72923e-07
4.75205e-07
4.77386e-07
4.78842e-07
4.69982e-07
4.72161e-07
4.74285e-07
4.76416e-07
4.94102e-07
4.96393e-07
4.94103e-07
4.86147e-07
4.88339e-07
4.90618e-07
4.92866e-07
5.05303e-07
5.07577e-07
5.09906e-07
5.11675e-07
5.03997e-07
5.06288e-07
5.08534e-07
5.10814e-07
5.13402e-07
5.22763e-07
5.2509e-07
5.2691e-07
5.25951e-07
5.28303e-07
5.30684e-07
5.32947e-07
5.35191e-07
5.37383e-07
5.42955e-07
5.47023e-07
5.49373e-07
5.51653e-07
5.48354e-07
5.5056e-07
5.52853e-07
5.55084e-07
5.57319e-07
5.59535e-07
5.61796e-07
5.64062e-07
5.66303e-07
5.68552e-07
5.70809e-07
5.73064e-07
5.75605e-07
5.79079e-07
5.81294e-07
5.83402e-07
5.8565e-07
5.88796e-07
5.91215e-07
5.93371e-07
5.96576e-07
5.98769e-07
5.98024e-07
6.003e-07
6.02574e-07
6.05326e-07
6.07432e-07
6.08316e-07
6.10472e-07
6.12624e-07
6.14738e-07
6.16861e-07
6.20241e-07
6.22317e-07
6.24465e-07
6.25706e-07
6.29791e-07
6.31867e-07
6.30759e-07
6.32883e-07
6.35004e-07
6.37135e-07
6.39171e-07
6.41182e-07
6.44881e-07
6.46858e-07
6.50041e-07
6.52041e-07
6.50453e-07
6.52502e-07
6.54585e-07
6.56625e-07
6.58593e-07
6.6035e-07
6.62335e-07
6.64315e-07
6.6677e-07
6.72594e-07
6.74542e-07
6.76441e-07
6.79966e-07
6.81886e-07
6.83744e-07
6.79126e-07
6.81082e-07
6.87492e-07
6.90669e-07
6.92492e-07
6.94321e-07
6.96123e-07
6.97858e-07
6.97607e-07
7.01127e-07
7.02932e-07
7.00787e-07
7.02662e-07
7.04498e-07
7.06272e-07
7.08035e-07
7.11908e-07
7.14156e-07
7.14688e-07
7.1639e-07
7.18062e-07
7.21375e-07
7.23077e-07
7.21882e-07
7.23571e-07
7.25281e-07
7.28317e-07
7.3182e-07
7.33482e-07
7.34784e-07
7.37124e-07
7.40384e-07
7.42009e-07
7.39339e-07
7.40969e-07
7.42545e-07
7.44086e-07
7.45621e-07
7.4717e-07
7.48795e-07
7.52251e-07
7.53917e-07
7.5547e-07
7.56802e-07
7.55738e-07
7.58131e-07
7.5978e-07
7.61304e-07
7.62725e-07
7.63379e-07
7.64821e-07
7.66186e-07
7.66132e-07
7.66689e-07
7.69603e-07
7.74045e-07
7.75454e-07
7.76888e-07
7.82112e-07
7.83833e-07
7.85147e-07
7.86541e-07
7.87963e-07
7.89263e-07
7.84655e-07
7.92023e-07
7.94087e-07
7.95573e-07
7.9696e-07
7.9827e-07
7.99493e-07
7.97572e-07
7.94103e-07
7.9532e-07
7.96578e-07
7.97812e-07
8.00451e-07
8.0098e-07
8.02152e-07
8.05775e-07
8.06924e-07
8.0666e-07
8.07791e-07
8.08918e-07
8.10006e-07
8.10013e-07
8.11154e-07
8.12294e-07
8.13408e-07
8.17003e-07
8.18034e-07
8.1472e-07
8.14684e-07
8.15711e-07
8.16771e-07
8.19843e-07
8.24584e-07
8.25634e-07
8.26619e-07
8.23312e-07
8.24509e-07
8.2552e-07
8.26524e-07
8.28769e-07
8.31526e-07
8.31893e-07
8.32819e-07
8.33197e-07
8.34112e-07
8.33882e-07
8.33166e-07
8.34052e-07
8.34856e-07
8.37261e-07
8.38594e-07
8.43647e-07
8.50253e-07
8.51313e-07
8.52268e-07
8.53173e-07
8.54008e-07
8.53335e-07
8.48791e-07
8.48821e-07
8.49612e-07
8.52212e-07
8.52972e-07
8.54898e-07
8.55796e-07
8.56606e-07
8.5735e-07
8.55301e-07
8.53112e-07
8.53865e-07
8.54633e-07
8.55348e-07
8.56062e-07
8.56823e-07
8.57995e-07
8.60753e-07
8.61501e-07
8.64273e-07
8.64848e-07
8.60232e-07
8.58669e-07
8.59355e-07
8.63408e-07
8.68675e-07
8.69316e-07
8.65874e-07
8.66502e-07
8.67258e-07
8.71854e-07
8.72465e-07
8.73089e-07
8.7367e-07
8.71531e-07
8.70701e-07
8.71271e-07
8.71815e-07
8.69524e-07
8.7008e-07
8.70639e-07
8.71198e-07
8.74151e-07
8.74687e-07
8.72084e-07
8.75236e-07
8.87996e-07
8.88866e-07
8.89504e-07
8.90023e-07
8.90567e-07
8.91011e-07
8.9147e-07
8.91543e-07
8.91233e-07
8.84599e-07
8.82036e-07
8.8247e-07
8.82396e-07
8.8283e-07
8.88137e-07
8.89071e-07
8.89518e-07
8.8992e-07
8.87484e-07
8.84121e-07
8.84963e-07
8.85338e-07
8.83775e-07
8.84162e-07
8.84553e-07
8.90127e-07
8.92515e-07
8.92874e-07
8.93255e-07
8.93593e-07
8.93939e-07
8.94263e-07
8.94604e-07
8.94919e-07
8.95243e-07
8.9555e-07
8.94936e-07
8.91098e-07
9.04045e-07
9.09785e-07
9.10054e-07
9.10331e-07
9.10609e-07
9.10888e-07
8.88848e-07
8.87529e-07
8.87773e-07
8.8803e-07
8.88275e-07
8.90679e-07
8.94956e-07
8.96625e-07
8.94272e-07
8.94493e-07
8.94705e-07
8.9492e-07
8.95121e-07
8.9533e-07
8.97774e-07
8.98012e-07
8.98195e-07
8.961e-07
8.9626e-07
8.96437e-07
8.966e-07
8.98198e-07
8.9857e-07
8.98729e-07
8.98888e-07
8.99031e-07
8.99597e-07
9.00078e-07
9.00642e-07
9.01294e-07
9.01414e-07
9.01007e-07
9.01116e-07
8.99039e-07
8.99137e-07
8.99023e-07
8.99113e-07
8.99197e-07
8.99241e-07
8.99318e-07
8.99386e-07
8.99457e-07
9.01304e-07
9.01932e-07
9.01984e-07
9.01686e-07
9.01705e-07
9.02932e-07
9.03018e-07
9.10095e-07
9.12981e-07
9.2308e-07
9.47276e-07
9.47251e-07
9.47259e-07
9.47249e-07
4.05158e-07
4.07659e-07
3.99469e-07
4.1529e-07
4.17101e-07
4.17295e-07
4.14992e-07
4.16859e-07
4.17791e-07
4.19716e-07
4.21684e-07
4.22226e-07
4.22444e-07
4.2442e-07
4.26446e-07
4.29926e-07
4.35377e-07
4.34129e-07
4.37307e-07
4.43829e-07
4.459e-07
4.41416e-07
4.43484e-07
4.45585e-07
4.5378e-07
4.47826e-07
4.49967e-07
4.52159e-07
4.54301e-07
4.56427e-07
4.6415e-07
4.7009e-07
4.71951e-07
4.75198e-07
4.77387e-07
4.67933e-07
4.70106e-07
4.77264e-07
4.74204e-07
4.8412e-07
4.94156e-07
4.964e-07
4.96392e-07
4.86521e-07
4.8832e-07
4.90629e-07
4.93186e-07
5.01218e-07
5.07222e-07
5.09914e-07
5.12269e-07
5.05057e-07
5.08226e-07
5.11404e-07
5.13676e-07
5.13477e-07
5.1676e-07
5.22048e-07
5.23744e-07
5.26013e-07
5.28308e-07
5.30635e-07
5.34302e-07
5.35178e-07
5.37421e-07
5.43728e-07
5.42407e-07
5.43881e-07
5.46155e-07
5.48372e-07
5.5459e-07
5.57253e-07
5.5947e-07
5.58637e-07
5.62419e-07
5.64688e-07
5.66964e-07
5.69206e-07
5.68667e-07
5.70749e-07
5.73516e-07
5.76951e-07
5.78222e-07
5.80366e-07
5.82598e-07
5.85871e-07
5.88806e-07
5.89257e-07
5.91437e-07
5.93635e-07
5.95866e-07
5.98073e-07
6.00311e-07
6.0257e-07
6.04759e-07
6.06864e-07
6.09898e-07
6.12212e-07
6.16732e-07
6.1885e-07
6.20968e-07
6.23112e-07
6.2081e-07
6.20206e-07
6.25275e-07
6.2749e-07
6.29551e-07
6.33698e-07
6.35832e-07
6.37938e-07
6.40059e-07
6.42097e-07
6.41133e-07
6.42998e-07
6.44454e-07
6.46461e-07
6.48457e-07
6.50462e-07
6.525e-07
6.54567e-07
6.57222e-07
6.61811e-07
6.63771e-07
6.6575e-07
6.67729e-07
6.68679e-07
6.72092e-07
6.73285e-07
6.74715e-07
6.79954e-07
6.81869e-07
6.82303e-07
6.79134e-07
6.8113e-07
6.83085e-07
6.8491e-07
6.86135e-07
6.9246e-07
6.95777e-07
6.94514e-07
6.95337e-07
6.972e-07
6.99031e-07
7.00837e-07
7.02687e-07
7.05852e-07
7.08408e-07
7.11012e-07
7.12749e-07
7.1411e-07
7.1718e-07
7.18911e-07
7.17923e-07
7.18493e-07
7.20208e-07
7.21915e-07
7.23606e-07
7.25296e-07
7.30023e-07
7.31403e-07
7.33066e-07
7.34772e-07
7.38733e-07
7.40384e-07
7.4158e-07
7.39342e-07
7.40969e-07
7.42739e-07
7.45208e-07
7.50004e-07
7.51577e-07
7.53162e-07
7.53818e-07
7.50985e-07
7.52512e-07
7.52272e-07
7.54661e-07
7.57442e-07
7.57959e-07
7.60932e-07
7.62116e-07
7.63548e-07
7.64968e-07
7.64986e-07
7.65269e-07
7.66684e-07
7.68573e-07
7.73224e-07
7.70931e-07
7.72394e-07
7.73919e-07
7.83948e-07
7.85347e-07
7.85539e-07
7.86724e-07
7.834e-07
7.84686e-07
7.90793e-07
7.94172e-07
7.95581e-07
7.96937e-07
7.98222e-07
7.98294e-07
7.94199e-07
7.94096e-07
7.95341e-07
7.98578e-07
8.02052e-07
8.03235e-07
8.04415e-07
8.056e-07
8.06764e-07
8.04593e-07
8.05185e-07
8.06323e-07
8.07355e-07
8.08136e-07
8.13653e-07
8.14798e-07
8.15925e-07
8.17015e-07
8.17976e-07
8.14605e-07
8.1365e-07
8.14677e-07
8.15725e-07
8.16775e-07
8.17805e-07
8.18819e-07
8.19855e-07
8.2084e-07
8.21817e-07
8.25891e-07
8.31953e-07
8.32942e-07
8.29423e-07
8.32552e-07
8.33498e-07
8.34418e-07
8.35327e-07
8.3624e-07
8.33061e-07
8.32191e-07
8.3309e-07
8.34196e-07
8.34339e-07
8.35254e-07
8.45889e-07
8.5035e-07
8.51359e-07
8.523e-07
8.51521e-07
8.4977e-07
8.50581e-07
8.49849e-07
8.50041e-07
8.50819e-07
8.50143e-07
8.54091e-07
8.54956e-07
8.55795e-07
8.56574e-07
8.53048e-07
8.52373e-07
8.53111e-07
8.55949e-07
8.56691e-07
8.55338e-07
8.56069e-07
8.56844e-07
8.60599e-07
8.64274e-07
8.64973e-07
8.65652e-07
8.63767e-07
8.58408e-07
8.58669e-07
8.637e-07
8.68019e-07
8.68675e-07
8.66197e-07
8.65872e-07
8.69411e-07
8.71228e-07
8.71856e-07
8.72486e-07
8.73077e-07
8.73663e-07
8.7319e-07
8.72257e-07
8.7094e-07
8.68979e-07
8.69525e-07
8.73532e-07
8.74088e-07
8.69276e-07
8.69845e-07
8.71039e-07
8.70903e-07
8.71419e-07
8.86077e-07
8.88973e-07
8.89508e-07
8.90041e-07
8.90429e-07
8.89015e-07
8.85271e-07
8.82809e-07
8.83021e-07
8.81792e-07
8.81531e-07
8.81966e-07
8.82396e-07
8.83873e-07
8.88632e-07
8.89089e-07
8.89506e-07
8.8814e-07
8.8353e-07
8.82716e-07
8.83097e-07
8.83399e-07
8.83778e-07
8.84164e-07
8.84583e-07
8.8896e-07
8.90633e-07
8.92881e-07
8.93238e-07
8.93593e-07
8.89437e-07
8.89448e-07
8.93177e-07
8.94037e-07
8.95239e-07
8.95557e-07
8.92593e-07
8.89956e-07
8.93342e-07
8.96869e-07
8.94779e-07
8.97335e-07
9.0977e-07
8.97891e-07
8.87266e-07
8.87521e-07
8.89661e-07
8.97645e-07
8.97906e-07
8.98136e-07
8.98375e-07
8.98315e-07
8.94498e-07
8.94492e-07
8.94801e-07
8.95007e-07
8.95126e-07
8.95326e-07
8.95528e-07
8.95716e-07
8.95902e-07
8.96081e-07
8.96262e-07
8.96429e-07
8.96613e-07
8.96768e-07
8.96947e-07
9.01052e-07
9.01209e-07
9.01346e-07
9.01482e-07
9.01608e-07
9.01734e-07
9.01293e-07
8.99905e-07
9.00018e-07
8.98732e-07
8.98834e-07
8.98931e-07
8.99023e-07
8.99114e-07
8.99287e-07
8.99241e-07
9.00341e-07
9.00411e-07
9.00469e-07
9.01308e-07
9.01285e-07
8.99149e-07
8.99199e-07
9.00224e-07
9.00247e-07
9.00281e-07
9.04892e-07
9.05258e-07
9.13214e-07
9.4728e-07
9.47253e-07
9.47249e-07
9.47247e-07
4.05134e-07
4.03747e-07
3.99477e-07
4.01256e-07
4.04377e-07
4.13538e-07
4.11114e-07
4.13004e-07
4.17021e-07
4.17448e-07
4.19421e-07
4.2138e-07
4.23206e-07
4.24375e-07
4.26412e-07
4.28425e-07
4.30811e-07
4.39965e-07
4.40334e-07
4.39071e-07
4.41151e-07
4.43511e-07
4.45594e-07
4.4696e-07
4.45761e-07
4.47839e-07
4.49948e-07
4.52087e-07
4.54282e-07
4.57772e-07
4.61464e-07
4.63722e-07
4.68896e-07
4.75196e-07
4.77415e-07
4.70556e-07
4.71863e-07
4.77244e-07
4.79366e-07
4.81451e-07
4.81952e-07
4.84512e-07
4.88535e-07
4.89438e-07
4.97337e-07
4.99814e-07
4.99431e-07
4.99683e-07
5.01926e-07
5.04301e-07
5.08173e-07
5.10458e-07
5.10272e-07
5.09658e-07
5.11578e-07
5.13614e-07
5.16136e-07
5.21222e-07
5.27226e-07
5.29525e-07
5.30245e-07
5.30584e-07
5.35372e-07
5.4265e-07
5.42012e-07
5.44347e-07
5.46686e-07
5.48947e-07
5.50196e-07
5.48406e-07
5.5063e-07
5.53633e-07
5.59456e-07
5.61671e-07
5.59447e-07
5.6172e-07
5.63992e-07
5.66243e-07
5.6854e-07
5.70797e-07
5.72362e-07
5.79478e-07
5.81837e-07
5.84042e-07
5.8259e-07
5.8507e-07
5.86034e-07
5.91176e-07
5.95914e-07
5.95662e-07
5.97344e-07
5.99906e-07
6.01738e-07
6.04626e-07
6.06798e-07
6.07488e-07
6.09548e-07
6.1171e-07
6.13879e-07
6.1604e-07
6.15467e-07
6.17596e-07
6.20843e-07
6.20212e-07
6.22306e-07
6.30415e-07
6.32607e-07
6.3469e-07
6.33323e-07
6.3544e-07
6.37537e-07
6.39582e-07
6.41623e-07
6.44108e-07
6.4579e-07
6.47803e-07
6.4867e-07
6.52586e-07
6.58173e-07
6.60236e-07
6.62257e-07
6.60956e-07
6.62866e-07
6.64853e-07
6.67658e-07
6.69648e-07
6.70578e-07
6.72202e-07
6.74145e-07
6.76064e-07
6.77136e-07
6.79049e-07
6.81025e-07
6.8298e-07
6.84442e-07
6.86278e-07
6.86125e-07
6.88326e-07
6.9406e-07
6.96307e-07
6.9533e-07
7.01508e-07
7.03366e-07
7.01936e-07
7.04059e-07
7.05877e-07
7.07043e-07
7.09634e-07
7.12727e-07
7.13854e-07
7.14535e-07
7.16249e-07
7.17908e-07
7.20288e-07
7.24257e-07
7.25956e-07
7.23616e-07
7.28333e-07
7.31648e-07
7.33305e-07
7.33051e-07
7.31257e-07
7.32934e-07
7.34593e-07
7.39061e-07
7.41584e-07
7.43195e-07
7.43811e-07
7.42913e-07
7.49986e-07
7.51619e-07
7.53162e-07
7.547e-07
7.56209e-07
7.57691e-07
7.52071e-07
7.53563e-07
7.55066e-07
7.56529e-07
7.58111e-07
7.62593e-07
7.667e-07
7.64818e-07
7.64106e-07
7.65504e-07
7.66663e-07
7.68073e-07
7.69499e-07
7.70955e-07
7.72486e-07
7.89796e-07
7.91258e-07
7.84243e-07
7.83566e-07
7.84057e-07
7.83443e-07
7.84781e-07
7.86369e-07
7.92901e-07
7.95548e-07
7.95826e-07
7.93719e-07
7.92445e-07
7.97063e-07
7.98573e-07
7.99812e-07
8.01037e-07
8.01008e-07
8.01961e-07
8.03158e-07
8.04659e-07
8.031e-07
8.03373e-07
8.05378e-07
8.06511e-07
8.06774e-07
8.07882e-07
8.10258e-07
8.14798e-07
8.15902e-07
8.12734e-07
8.11562e-07
8.12608e-07
8.13646e-07
8.14697e-07
8.15746e-07
8.1679e-07
8.17801e-07
8.1883e-07
8.19849e-07
8.20843e-07
8.21825e-07
8.30944e-07
8.31958e-07
8.27713e-07
8.31631e-07
8.32587e-07
8.33137e-07
8.29932e-07
8.30319e-07
8.31241e-07
8.32139e-07
8.33028e-07
8.33081e-07
8.33457e-07
8.34345e-07
8.38605e-07
8.49407e-07
8.50443e-07
8.5141e-07
8.5178e-07
8.49753e-07
8.50108e-07
8.50926e-07
8.49295e-07
8.48196e-07
8.48495e-07
8.48517e-07
8.49325e-07
8.53592e-07
8.55762e-07
8.52711e-07
8.51612e-07
8.52361e-07
8.53122e-07
8.5388e-07
8.54623e-07
8.564e-07
8.59891e-07
8.60633e-07
8.59571e-07
8.56438e-07
8.57134e-07
8.57807e-07
8.58422e-07
8.58355e-07
8.58674e-07
8.67335e-07
8.68022e-07
8.68667e-07
8.6932e-07
8.6995e-07
8.70599e-07
8.71229e-07
8.71855e-07
8.68491e-07
8.6738e-07
8.67968e-07
8.68548e-07
8.69008e-07
8.69411e-07
8.69964e-07
8.70009e-07
8.68153e-07
8.68698e-07
8.69284e-07
8.69852e-07
8.70406e-07
8.70922e-07
8.71488e-07
8.8399e-07
8.88965e-07
8.89513e-07
8.82329e-07
8.76496e-07
8.76762e-07
8.83148e-07
8.83767e-07
8.84217e-07
8.81329e-07
8.81524e-07
8.83582e-07
8.85657e-07
8.8819e-07
8.88647e-07
8.89074e-07
8.84601e-07
8.82456e-07
8.82852e-07
8.83241e-07
8.83023e-07
8.83406e-07
8.83786e-07
8.89701e-07
8.91998e-07
8.92378e-07
8.92535e-07
8.92863e-07
8.93227e-07
8.92256e-07
8.89105e-07
8.89446e-07
8.90615e-07
8.91262e-07
8.9161e-07
8.91906e-07
8.88268e-07
8.85738e-07
8.86036e-07
8.86692e-07
8.90239e-07
8.94071e-07
8.92145e-07
8.91831e-07
8.95037e-07
8.97143e-07
8.97395e-07
8.97665e-07
8.97897e-07
8.97728e-07
8.94238e-07
8.9434e-07
8.94565e-07
8.94928e-07
8.95141e-07
8.94958e-07
8.95124e-07
8.97476e-07
8.99328e-07
8.99515e-07
8.96971e-07
8.9608e-07
8.96254e-07
8.96441e-07
8.96614e-07
8.99668e-07
8.94728e-07
8.93632e-07
8.95267e-07
8.92622e-07
8.91648e-07
8.91779e-07
8.99774e-07
9.04009e-07
9.04113e-07
9.04242e-07
9.04336e-07
9.04443e-07
9.00797e-07
9.00101e-07
9.01624e-07
8.99285e-07
8.9911e-07
8.99193e-07
8.9965e-07
8.99413e-07
8.99035e-07
8.99094e-07
8.99148e-07
9.02166e-07
9.01262e-07
9.00247e-07
9.00282e-07
9.00311e-07
9.01225e-07
9.15391e-07
9.4728e-07
9.47244e-07
9.47246e-07
9.47244e-07
4.03277e-07
4.03888e-07
4.03313e-07
4.04859e-07
4.07369e-07
4.09318e-07
4.11147e-07
4.13203e-07
4.18152e-07
4.21426e-07
4.23353e-07
4.24801e-07
4.2645e-07
4.25377e-07
4.26394e-07
4.33107e-07
4.36359e-07
4.39962e-07
4.38894e-07
4.39793e-07
4.41145e-07
4.43233e-07
4.45444e-07
4.46928e-07
4.49522e-07
4.51617e-07
4.50214e-07
4.5378e-07
4.64395e-07
4.66341e-07
4.60813e-07
4.61901e-07
4.63771e-07
4.65906e-07
4.68155e-07
4.70331e-07
4.75274e-07
4.77407e-07
4.764e-07
4.78631e-07
4.81391e-07
4.85506e-07
4.88634e-07
4.91425e-07
4.9652e-07
4.9976e-07
5.01997e-07
5.04223e-07
5.04925e-07
5.0429e-07
5.0662e-07
5.08977e-07
5.12851e-07
5.14957e-07
5.19823e-07
5.22083e-07
5.23727e-07
5.24169e-07
5.24444e-07
5.26261e-07
5.28523e-07
5.3081e-07
5.42224e-07
5.42641e-07
5.40405e-07
5.40254e-07
5.41469e-07
5.39851e-07
5.42071e-07
5.50682e-07
5.52904e-07
5.55007e-07
5.55087e-07
5.55599e-07
5.62017e-07
5.68842e-07
5.71095e-07
5.73337e-07
5.75649e-07
5.73981e-07
5.72251e-07
5.74539e-07
5.77228e-07
5.79302e-07
5.81506e-07
5.83784e-07
5.8603e-07
5.88278e-07
5.95898e-07
5.98447e-07
6.00661e-07
5.99881e-07
6.02089e-07
6.04602e-07
6.05167e-07
6.07351e-07
6.19976e-07
6.17396e-07
6.13834e-07
6.16026e-07
6.20008e-07
6.15062e-07
6.17141e-07
6.2024e-07
6.21365e-07
6.25487e-07
6.31734e-07
6.34691e-07
6.34878e-07
6.37675e-07
6.39544e-07
6.39534e-07
6.44204e-07
6.47917e-07
6.45855e-07
6.46831e-07
6.48812e-07
6.52661e-07
6.58195e-07
6.60244e-07
6.62092e-07
6.65914e-07
6.68049e-07
6.70016e-07
6.67586e-07
6.69596e-07
6.71583e-07
6.73531e-07
6.7541e-07
6.76872e-07
6.79914e-07
6.80716e-07
6.82758e-07
6.79907e-07
6.79988e-07
6.8181e-07
6.84385e-07
6.94441e-07
6.97027e-07
6.98815e-07
7.0065e-07
7.0249e-07
6.99438e-07
7.0126e-07
7.0308e-07
7.04908e-07
7.06698e-07
7.08443e-07
7.10142e-07
7.11862e-07
7.17915e-07
7.2007e-07
7.21764e-07
7.21617e-07
7.20395e-07
7.21242e-07
7.22938e-07
7.24645e-07
7.26293e-07
7.27921e-07
7.2958e-07
7.31246e-07
7.32937e-07
7.35627e-07
7.44228e-07
7.416e-07
7.37211e-07
7.3725e-07
7.38815e-07
7.40401e-07
7.41959e-07
7.47365e-07
7.48862e-07
7.50731e-07
7.55526e-07
7.57012e-07
7.58509e-07
7.59992e-07
7.58667e-07
7.58127e-07
7.66536e-07
7.69232e-07
7.66954e-07
7.63892e-07
7.65225e-07
7.66638e-07
7.6807e-07
7.69539e-07
7.75096e-07
7.90807e-07
7.92299e-07
7.84036e-07
7.83333e-07
7.84687e-07
7.86892e-07
7.88217e-07
7.85724e-07
7.86368e-07
7.8802e-07
7.91178e-07
7.96645e-07
7.93713e-07
7.90214e-07
7.90957e-07
7.92194e-07
7.95129e-07
8.00926e-07
8.0225e-07
8.03446e-07
8.04639e-07
8.04228e-07
8.02193e-07
8.0336e-07
8.04523e-07
8.05663e-07
8.06781e-07
8.07891e-07
8.09603e-07
8.12062e-07
8.11041e-07
8.10477e-07
8.11546e-07
8.12602e-07
8.13871e-07
8.1957e-07
8.21372e-07
8.22169e-07
8.21231e-07
8.20262e-07
8.20151e-07
8.20929e-07
8.26644e-07
8.35185e-07
8.31712e-07
8.23482e-07
8.23771e-07
8.24714e-07
8.25643e-07
8.31767e-07
8.3604e-07
8.36955e-07
8.37306e-07
8.32794e-07
8.3257e-07
8.33462e-07
8.34389e-07
8.43705e-07
8.49506e-07
8.5051e-07
8.51393e-07
8.49621e-07
8.5028e-07
8.51122e-07
8.50123e-07
8.4627e-07
8.46938e-07
8.47727e-07
8.48529e-07
8.49334e-07
8.50148e-07
8.51274e-07
8.50826e-07
8.51583e-07
8.52349e-07
8.54921e-07
8.59634e-07
8.57285e-07
8.52299e-07
8.53045e-07
8.53774e-07
8.5555e-07
8.60677e-07
8.61371e-07
8.62028e-07
8.59436e-07
8.57738e-07
8.58403e-07
8.59089e-07
8.6408e-07
8.68677e-07
8.69319e-07
8.69958e-07
8.69511e-07
8.69538e-07
8.70157e-07
8.70771e-07
8.71174e-07
8.6936e-07
8.68538e-07
8.70679e-07
8.71904e-07
8.70674e-07
8.67593e-07
8.68139e-07
8.68727e-07
8.69303e-07
8.7495e-07
8.76252e-07
8.75657e-07
8.78565e-07
8.83771e-07
8.78957e-07
8.74593e-07
8.73492e-07
8.73987e-07
8.74466e-07
8.74935e-07
8.78264e-07
8.83212e-07
8.85028e-07
8.8548e-07
8.84816e-07
8.80924e-07
8.8245e-07
8.88372e-07
8.89068e-07
8.8948e-07
8.89885e-07
8.8599e-07
8.8264e-07
8.83031e-07
8.85283e-07
8.90454e-07
8.91618e-07
8.92005e-07
8.91073e-07
8.89504e-07
8.87674e-07
8.88006e-07
8.89884e-07
8.91866e-07
8.89624e-07
8.87157e-07
8.84928e-07
8.84821e-07
8.85131e-07
8.8544e-07
8.85732e-07
8.86042e-07
8.88605e-07
8.93463e-07
8.94069e-07
8.93529e-07
8.91822e-07
8.92099e-07
8.92363e-07
8.96485e-07
8.97647e-07
8.97896e-07
8.98129e-07
8.97963e-07
8.98045e-07
8.95845e-07
8.94752e-07
8.94971e-07
8.95181e-07
8.95388e-07
8.95371e-07
8.95563e-07
8.95761e-07
8.95939e-07
8.9864e-07
9.02798e-07
9.00125e-07
8.99871e-07
9.05416e-07
9.00286e-07
8.91965e-07
8.91376e-07
8.91514e-07
8.91651e-07
8.91779e-07
8.93339e-07
9.01147e-07
9.04124e-07
9.04226e-07
9.04345e-07
9.04436e-07
8.99259e-07
9.01367e-07
9.01629e-07
9.01708e-07
8.99114e-07
8.99188e-07
8.99266e-07
8.99324e-07
8.99034e-07
9.0241e-07
9.04971e-07
9.05015e-07
9.05061e-07
9.05097e-07
9.02098e-07
9.00311e-07
9.00574e-07
9.04598e-07
9.11633e-07
9.36689e-07
9.4724e-07
9.47243e-07
4.0244e-07
3.99159e-07
4.02389e-07
4.07153e-07
4.09041e-07
4.11491e-07
4.1409e-07
4.15816e-07
4.20644e-07
4.22533e-07
4.22896e-07
4.24756e-07
4.23159e-07
4.30305e-07
4.32361e-07
4.30417e-07
4.32415e-07
4.34469e-07
4.3653e-07
4.4061e-07
4.42719e-07
4.44699e-07
4.46287e-07
4.48067e-07
4.50168e-07
4.50817e-07
4.50184e-07
4.55408e-07
4.65934e-07
4.68986e-07
4.71196e-07
4.73353e-07
4.67395e-07
4.7775e-07
4.69965e-07
4.68896e-07
4.71002e-07
4.7314e-07
4.76429e-07
4.8e-07
4.82228e-07
4.8526e-07
4.9057e-07
4.92775e-07
4.92065e-07
4.94274e-07
4.98553e-07
5.0078e-07
5.03569e-07
5.05912e-07
5.06634e-07
5.10852e-07
5.13816e-07
5.16056e-07
5.1484e-07
5.17116e-07
5.21174e-07
5.2322e-07
5.26054e-07
5.2832e-07
5.28997e-07
5.36332e-07
5.42484e-07
5.4479e-07
5.4704e-07
5.49376e-07
5.51765e-07
5.41046e-07
5.42135e-07
5.44362e-07
5.46577e-07
5.48739e-07
5.50961e-07
5.55604e-07
5.59392e-07
5.67398e-07
5.71122e-07
5.7336e-07
5.75602e-07
5.77884e-07
5.80149e-07
5.74532e-07
5.76754e-07
5.78955e-07
5.81747e-07
5.85323e-07
5.87582e-07
5.88978e-07
5.9121e-07
5.93438e-07
5.99014e-07
6.00934e-07
6.00516e-07
6.02708e-07
6.05036e-07
6.09888e-07
6.2449e-07
6.26647e-07
6.28765e-07
6.30924e-07
6.33156e-07
6.21737e-07
6.16239e-07
6.18279e-07
6.20365e-07
6.22451e-07
6.2454e-07
6.29906e-07
6.33277e-07
6.37649e-07
6.42307e-07
6.42379e-07
6.45916e-07
6.4846e-07
6.50546e-07
6.52534e-07
6.49315e-07
6.5133e-07
6.55965e-07
6.58367e-07
6.60191e-07
6.64817e-07
6.65849e-07
6.65771e-07
6.69528e-07
6.71556e-07
6.73517e-07
6.73481e-07
6.75383e-07
6.77592e-07
6.87391e-07
6.95647e-07
6.97652e-07
6.99621e-07
6.83108e-07
6.81681e-07
6.83478e-07
6.85255e-07
6.87049e-07
6.90717e-07
6.98854e-07
7.02457e-07
7.04288e-07
7.0612e-07
7.0369e-07
7.06018e-07
7.07807e-07
7.08415e-07
7.10142e-07
7.11874e-07
7.14238e-07
7.15977e-07
7.17679e-07
7.20483e-07
7.25272e-07
7.26987e-07
7.28689e-07
7.30365e-07
7.28941e-07
7.27888e-07
7.29546e-07
7.37134e-07
7.52933e-07
7.5462e-07
7.56232e-07
7.57813e-07
7.59466e-07
7.39508e-07
7.38897e-07
7.40432e-07
7.4196e-07
7.44703e-07
7.49267e-07
7.51467e-07
7.5297e-07
7.54478e-07
7.56873e-07
7.58083e-07
7.59304e-07
7.59006e-07
7.60444e-07
7.69189e-07
7.70608e-07
7.71988e-07
7.6788e-07
7.66609e-07
7.68127e-07
7.74022e-07
7.89489e-07
7.90987e-07
7.8856e-07
7.84879e-07
7.83835e-07
7.85563e-07
7.86902e-07
7.88213e-07
7.8593e-07
7.86338e-07
7.90903e-07
7.99516e-07
8.02658e-07
7.96271e-07
7.89958e-07
7.90952e-07
7.92185e-07
7.94191e-07
7.98858e-07
8.00277e-07
7.99922e-07
7.99987e-07
8.01001e-07
8.0218e-07
8.03938e-07
8.08551e-07
8.09691e-07
8.09335e-07
8.07229e-07
8.08286e-07
8.094e-07
8.105e-07
8.11585e-07
8.15355e-07
8.166e-07
8.19265e-07
8.20329e-07
8.21371e-07
8.20141e-07
8.19227e-07
8.20241e-07
8.21936e-07
8.27112e-07
8.38145e-07
8.39151e-07
8.40154e-07
8.27012e-07
8.23796e-07
8.2473e-07
8.25647e-07
8.2646e-07
8.27371e-07
8.28287e-07
8.29199e-07
8.30081e-07
8.32125e-07
8.41443e-07
8.47574e-07
8.48579e-07
8.49591e-07
8.50499e-07
8.49093e-07
8.46264e-07
8.46123e-07
8.46278e-07
8.45651e-07
8.46119e-07
8.46922e-07
8.47728e-07
8.48527e-07
8.50728e-07
8.54218e-07
8.54996e-07
8.55216e-07
8.5396e-07
8.60461e-07
8.70808e-07
8.71571e-07
8.72336e-07
8.52768e-07
8.53082e-07
8.53804e-07
8.54868e-07
8.59661e-07
8.60707e-07
8.56444e-07
8.57075e-07
8.57737e-07
8.58421e-07
8.62576e-07
8.68023e-07
8.68675e-07
8.69317e-07
8.67434e-07
8.69042e-07
8.69668e-07
8.69843e-07
8.69816e-07
8.70421e-07
8.71021e-07
8.72746e-07
8.73319e-07
8.7189e-07
8.67609e-07
8.67578e-07
8.68166e-07
8.68755e-07
8.75806e-07
8.88576e-07
8.9283e-07
8.93376e-07
8.93926e-07
8.94471e-07
8.78825e-07
8.72989e-07
8.73487e-07
8.75509e-07
8.77437e-07
8.77904e-07
8.78359e-07
8.7704e-07
8.77495e-07
8.78675e-07
8.79131e-07
8.79586e-07
8.8004e-07
8.80789e-07
8.81622e-07
8.82031e-07
8.83512e-07
8.87956e-07
8.90046e-07
8.90437e-07
8.90853e-07
8.91235e-07
8.91636e-07
8.92002e-07
8.88596e-07
8.87278e-07
8.87639e-07
8.87996e-07
9.02307e-07
9.061e-07
9.06437e-07
9.06772e-07
9.07111e-07
8.94546e-07
8.85813e-07
8.85442e-07
8.85747e-07
8.86309e-07
8.87584e-07
8.87105e-07
8.87386e-07
8.93062e-07
8.96772e-07
8.97043e-07
8.9731e-07
8.9532e-07
8.94229e-07
8.94473e-07
8.95271e-07
8.94014e-07
8.94249e-07
8.94717e-07
8.97547e-07
8.97987e-07
8.96344e-07
8.95169e-07
8.95371e-07
8.95569e-07
8.95754e-07
8.95944e-07
8.993e-07
9.0586e-07
9.19204e-07
9.25168e-07
9.25342e-07
9.25512e-07
8.98581e-07
8.91851e-07
8.91993e-07
8.91651e-07
8.91782e-07
8.93418e-07
9.03966e-07
9.04109e-07
8.97841e-07
8.97954e-07
8.98808e-07
8.98765e-07
8.98862e-07
8.98948e-07
8.99039e-07
8.99108e-07
8.99311e-07
9.01668e-07
8.99068e-07
8.98832e-07
8.98898e-07
8.98948e-07
8.99225e-07
9.02001e-07
9.05099e-07
9.05128e-07
9.05159e-07
9.05021e-07
9.02099e-07
9.07197e-07
9.32577e-07
9.4723e-07
9.4723e-07
4.05616e-07
3.99002e-07
4.05183e-07
4.0972e-07
4.11281e-07
4.10294e-07
4.14234e-07
4.16097e-07
4.16376e-07
4.17418e-07
4.19338e-07
4.21262e-07
4.23199e-07
4.2565e-07
4.27673e-07
4.31652e-07
4.3367e-07
4.34884e-07
4.36503e-07
4.38514e-07
4.39003e-07
4.45474e-07
4.50953e-07
4.52977e-07
4.49216e-07
4.536e-07
4.55673e-07
4.5754e-07
4.5872e-07
4.62603e-07
4.71196e-07
4.7337e-07
4.75551e-07
4.77778e-07
4.67375e-07
4.68893e-07
4.71003e-07
4.73151e-07
4.75352e-07
4.77604e-07
4.7984e-07
4.8234e-07
4.88457e-07
4.89773e-07
4.92006e-07
4.94272e-07
4.98864e-07
5.01106e-07
5.0237e-07
5.04983e-07
5.09788e-07
5.1206e-07
5.11626e-07
5.13913e-07
5.16169e-07
5.17095e-07
5.19372e-07
5.2201e-07
5.25063e-07
5.27321e-07
5.31352e-07
5.34247e-07
5.39692e-07
5.44779e-07
5.47054e-07
5.494e-07
5.51802e-07
5.47759e-07
5.42153e-07
5.44365e-07
5.46558e-07
5.50613e-07
5.56895e-07
5.59143e-07
5.59428e-07
5.61721e-07
5.66408e-07
5.70187e-07
5.74526e-07
5.74164e-07
5.74754e-07
5.77011e-07
5.79232e-07
5.79999e-07
5.80889e-07
5.83146e-07
5.8538e-07
5.87615e-07
5.95255e-07
5.99006e-07
6.01175e-07
5.98285e-07
6.00491e-07
6.05578e-07
6.11905e-07
6.22298e-07
6.24489e-07
6.26615e-07
6.288e-07
6.3098e-07
6.33157e-07
6.15501e-07
6.16239e-07
6.18332e-07
6.20415e-07
6.23175e-07
6.28791e-07
6.29855e-07
6.31937e-07
6.38038e-07
6.43329e-07
6.45352e-07
6.45245e-07
6.43511e-07
6.4685e-07
6.52511e-07
6.54483e-07
6.53071e-07
6.51437e-07
6.53503e-07
6.55515e-07
6.57524e-07
6.61681e-07
6.63652e-07
6.66587e-07
6.70741e-07
6.71627e-07
6.74077e-07
6.7858e-07
6.9162e-07
6.93719e-07
6.95702e-07
6.97689e-07
6.99627e-07
6.81017e-07
6.81681e-07
6.83499e-07
6.85293e-07
6.87074e-07
6.90465e-07
6.96772e-07
7.00432e-07
6.9969e-07
7.05195e-07
7.07027e-07
7.06829e-07
7.06644e-07
7.08403e-07
7.13917e-07
7.15639e-07
7.16243e-07
7.15981e-07
7.17695e-07
7.19456e-07
7.21359e-07
7.2539e-07
7.2647e-07
7.25051e-07
7.26233e-07
7.27879e-07
7.2957e-07
7.34171e-07
7.52937e-07
7.54605e-07
7.56248e-07
7.57884e-07
7.59534e-07
7.44829e-07
7.3893e-07
7.40438e-07
7.42238e-07
7.44313e-07
7.4578e-07
7.47294e-07
7.52985e-07
7.54477e-07
7.55514e-07
7.56997e-07
7.57535e-07
7.58983e-07
7.61187e-07
7.68955e-07
7.69618e-07
7.6421e-07
7.65615e-07
7.73008e-07
7.86586e-07
7.88196e-07
7.89685e-07
7.85418e-07
7.79223e-07
7.79208e-07
7.81921e-07
7.85551e-07
7.86889e-07
7.88198e-07
7.87656e-07
7.92901e-07
7.99902e-07
8.01287e-07
8.02644e-07
7.97271e-07
7.902e-07
7.9094e-07
7.92454e-07
7.94979e-07
7.96202e-07
7.98151e-07
8.00319e-07
8.0151e-07
8.0099e-07
8.02166e-07
8.07254e-07
8.08528e-07
8.09667e-07
8.10619e-07
8.09244e-07
8.13149e-07
8.16169e-07
8.17278e-07
8.18353e-07
8.18857e-07
8.16308e-07
8.15376e-07
8.16433e-07
8.17477e-07
8.18505e-07
8.19219e-07
8.20227e-07
8.29257e-07
8.37142e-07
8.3814e-07
8.39134e-07
8.40161e-07
8.30371e-07
8.24664e-07
8.24823e-07
8.25554e-07
8.26468e-07
8.27382e-07
8.32631e-07
8.33524e-07
8.33883e-07
8.43162e-07
8.46665e-07
8.47648e-07
8.4855e-07
8.48323e-07
8.49234e-07
8.49614e-07
8.45461e-07
8.42803e-07
8.4355e-07
8.44374e-07
8.47657e-07
8.50533e-07
8.51344e-07
8.52143e-07
8.52942e-07
8.49947e-07
8.48984e-07
8.49755e-07
8.53602e-07
8.70028e-07
8.70797e-07
8.71566e-07
8.7236e-07
8.57078e-07
8.53424e-07
8.54201e-07
8.54887e-07
8.56099e-07
8.56556e-07
8.56406e-07
8.57065e-07
8.57748e-07
8.64064e-07
8.65454e-07
8.66115e-07
8.64197e-07
8.62761e-07
8.63393e-07
8.64024e-07
8.64646e-07
8.68202e-07
8.72303e-07
8.72906e-07
8.69278e-07
8.68268e-07
8.68841e-07
8.69376e-07
8.67947e-07
8.82769e-07
8.90562e-07
8.91187e-07
8.91742e-07
8.92307e-07
8.92844e-07
8.93397e-07
8.93933e-07
8.94478e-07
8.81641e-07
8.72989e-07
8.73483e-07
8.73967e-07
8.74929e-07
8.77256e-07
8.76688e-07
8.7581e-07
8.78024e-07
8.8625e-07
8.86783e-07
8.87252e-07
8.8769e-07
8.88137e-07
8.88543e-07
8.84776e-07
8.82625e-07
8.83027e-07
8.8343e-07
8.87353e-07
8.90842e-07
8.91238e-07
8.9152e-07
8.88243e-07
8.87228e-07
8.87598e-07
8.87957e-07
8.87992e-07
8.97246e-07
9.06101e-07
9.06437e-07
9.06772e-07
9.07112e-07
8.9411e-07
8.86094e-07
8.86403e-07
8.86702e-07
8.86996e-07
8.86824e-07
8.87106e-07
8.90473e-07
8.93065e-07
8.91891e-07
8.92165e-07
8.97293e-07
8.97544e-07
8.94651e-07
8.93538e-07
8.93776e-07
8.94018e-07
8.9424e-07
8.94692e-07
8.9777e-07
8.97987e-07
8.98198e-07
8.98405e-07
8.9861e-07
8.98805e-07
8.98996e-07
8.96979e-07
8.97706e-07
9.12648e-07
9.25003e-07
9.25167e-07
9.25348e-07
9.25515e-07
9.0479e-07
8.91589e-07
8.91517e-07
8.91654e-07
8.91782e-07
8.91909e-07
8.92024e-07
8.92147e-07
8.92982e-07
8.99333e-07
9.00236e-07
9.00335e-07
9.01233e-07
9.02823e-07
9.0291e-07
9.0299e-07
9.01594e-07
9.01667e-07
9.01732e-07
8.98839e-07
8.98891e-07
8.98952e-07
8.98993e-07
8.99046e-07
8.99077e-07
8.99119e-07
9.01103e-07
9.01132e-07
9.01148e-07
9.03441e-07
9.31675e-07
9.47215e-07
9.47225e-07
4.01235e-07
4.04548e-07
4.07868e-07
4.09676e-07
4.07902e-07
4.10272e-07
4.14248e-07
4.13807e-07
4.15591e-07
4.17461e-07
4.1934e-07
4.21381e-07
4.27273e-07
4.29319e-07
4.2996e-07
4.31965e-07
4.32066e-07
4.3371e-07
4.35354e-07
4.36829e-07
4.3898e-07
4.45471e-07
4.4669e-07
4.45901e-07
4.4797e-07
4.50112e-07
4.53622e-07
4.56114e-07
4.58755e-07
4.60856e-07
4.71189e-07
4.73416e-07
4.7559e-07
4.77783e-07
4.66703e-07
4.68842e-07
4.71018e-07
4.73197e-07
4.75556e-07
4.77566e-07
4.79803e-07
4.82148e-07
4.8845e-07
4.90201e-07
4.94215e-07
4.96495e-07
4.98351e-07
5.00109e-07
5.0239e-07
5.04696e-07
5.07058e-07
5.09703e-07
5.1161e-07
5.13907e-07
5.16289e-07
5.17093e-07
5.19355e-07
5.24617e-07
5.27153e-07
5.29421e-07
5.31671e-07
5.32596e-07
5.39418e-07
5.44828e-07
5.47165e-07
5.39328e-07