/*--------------------------------*- C++ -*----------------------------------*\
  =========                 |
  \\      /  F ield         | OpenFOAM: The Open Source CFD Toolbox
   \\    /   O peration     | Website:  https://openfoam.org
    \\  /    A nd           | Version:  7
     \\/     M anipulation  |
\*---------------------------------------------------------------------------*/
FoamFile
{
    version     2.0;
    format      ascii;
    class       volScalarField;
    location    "2000";
    object      p;
}
// * * * * * * * * * * * * * * * * * * * * * * * * * * * * * * * * * * * * * //

dimensions      [1 -1 -2 0 0 0 0];

internalField   nonuniform List<scalar> 
160000
(
133357
133356
133354
133352
133350
133347
133343
133338
133332
133327
133322
133316
133309
133303
133295
133286
133277
133267
133259
133250
133240
133227
133213
133200
133186
133172
133160
133148
133134
133117
133097
133078
133066
133052
133033
133014
132996
132978
132956
132932
132913
132894
132876
132854
132830
132811
132789
132761
132736
132715
132692
132671
132648
132623
132600
132572
132548
132525
132488
132453
132432
132413
132382
132344
132303
132275
132250
132224
132194
132146
132115
132085
132049
132011
131972
131936
131901
131863
131828
131795
131763
131736
131706
131667
131631
131598
131561
131513
131465
131427
131387
131348
131319
131289
131249
131195
131142
131095
131048
130994
130943
130890
130841
130801
130752
130698
130644
130593
130549
130506
130463
130407
130352
130302
130239
130183
130126
130068
130024
129984
129936
129872
129809
129754
129703
129664
129625
129569
129505
129448
129384
129314
129263
129226
129181
129117
129053
128988
128902
128803
128738
128693
128636
128567
128517
128460
128390
128323
128252
128173
128091
128013
127924
127854
127784
127703
127630
127569
127508
127445
127381
127307
127229
127157
127081
127009
126955
126890
126808
126719
126640
126571
126487
126432
126383
126299
126211
126125
126063
126006
125920
125839
125768
125664
125566
125483
125404
125327
125251
125196
125156
125117
125082
125057
125033
125003
124959
124925
124896
124872
124854
124832
124811
124789
124761
124722
124666
124624
124594
124562
124527
124493
124455
124404
124357
124310
124247
124192
124144
124089
124042
123996
123936
123870
123799
123725
123650
123563
123479
123397
123275
123173
123097
123021
122935
122849
122752
122647
122535
122429
122334
122229
122139
122044
121934
121842
121757
121667
121599
121546
121504
121473
121435
121375
121310
121256
121193
121109
121026
120966
120916
120866
120811
120744
120672
120600
120523
120445
120368
120294
120200
120088
119992
119896
119812
119728
119642
119554
119439
119334
119249
119163
119079
118993
118899
118792
118702
118610
118536
118476
118405
118297
118156
118026
117904
117805
117715
117594
117464
117347
117220
117118
117049
116992
116927
116848
116768
116689
116595
116522
116449
116349
116251
116154
116031
115898
115792
115693
115597
115495
115363
115212
115078
114964
114837
114716
114640
114568
114467
114356
114250
114125
113983
113864
113745
113617
113506
113400
113309
113208
113033
112871
112741
112603
112467
112307
112060
111858
111683
111536
111404
111272
111159
111039
110877
110712
110570
110422
110243
110043
109848
109679
109524
109355
109195
109033
108852
108733
108610
108393
108102
107818
107579
107425
107262
107063
106874
106634
106372
106097
105860
105605
105364
105138
104892
104668
104466
104260
104030
103774
103502
103223
102974
102719
102402
102191
102004
101735
101547
101402
133356
133355
133353
133351
133349
133346
133342
133338
133332
133327
133322
133315
133308
133300
133293
133285
133275
133267
133259
133251
133240
133227
133214
133201
133186
133170
133158
133146
133132
133117
133099
133081
133066
133051
133032
133012
132996
132976
132950
132931
132914
132894
132874
132851
132829
132811
132789
132759
132734
132715
132696
132672
132645
132622
132599
132569
132545
132520
132489
132459
132432
132408
132379
132343
132306
132278
132249
132218
132185
132150
132119
132087
132050
132010
131970
131936
131902
131864
131829
131796
131764
131734
131701
131660
131626
131597
131562
131516
131469
131427
131390
131352
131319
131287
131244
131188
131138
131091
131045
130993
130943
130894
130839
130796
130754
130699
130644
130596
130550
130507
130464
130409
130352
130294
130234
130179
130123
130069
130022
129981
129936
129879
129816
129760
129708
129664
129619
129562
129503
129445
129378
129308
129265
129227
129178
129105
129048
128993
128899
128802
128735
128687
128635
128573
128520
128460
128388
128319
128243
128155
128089
128022
127923
127851
127785
127711
127639
127573
127505
127439
127373
127305
127235
127157
127076
127005
126950
126887
126810
126733
126653
126576
126487
126431
126373
126289
126215
126136
126064
125998
125914
125830
125746
125641
125555
125480
125402
125321
125245
125194
125154
125118
125086
125060
125036
125005
124964
124930
124904
124881
124861
124841
124816
124788
124759
124725
124677
124636
124604
124570
124534
124498
124462
124413
124359
124312
124257
124199
124147
124095
124043
123988
123926
123860
123790
123721
123648
123565
123480
123393
123274
123166
123095
123030
122949
122856
122753
122648
122534
122426
122326
122216
122134
122051
121939
121842
121760
121673
121599
121549
121511
121477
121441
121389
121320
121261
121194
121117
121041
120973
120916
120863
120806
120735
120668
120604
120526
120444
120369
120292
120190
120092
120001
119898
119809
119721
119639
119556
119440
119336
119247
119162
119078
118995
118910
118815
118719
118619
118534
118462
118382
118280
118159
118038
117911
117798
117700
117582
117461
117350
117233
117139
117070
117007
116941
116864
116781
116696
116604
116524
116442
116342
116248
116153
116046
115923
115803
115694
115592
115484
115354
115207
115073
114965
114851
114728
114645
114572
114476
114354
114254
114143
113991
113875
113763
113627
113517
113414
113305
113177
113013
112862
112736
112605
112455
112286
112091
111893
111708
111548
111408
111267
111149
111035
110884
110712
110569
110426
110250
110041
109842
109675
109525
109365
109213
109048
108879
108744
108593
108372
108122
107857
107615
107426
107246
107044
106827
106600
106349
106091
105866
105603
105388
105196
104924
104676
104465
104244
104009
103777
103510
103226
102987
102730
102424
102203
101998
101753
101558
101400
133354
133353
133351
133349
133347
133344
133340
133336
133331
133326
133321
133314
133306
133297
133291
133283
133274
133267
133259
133249
133239
133227
133215
133200
133185
133170
133155
133142
133130
133116
133098
133079
133064
133049
133032
133012
132994
132972
132947
132929
132912
132893
132872
132848
132829
132811
132786
132756
132732
132715
132697
132675
132646
132620
132594
132566
132540
132515
132490
132463
132431
132402
132376
132344
132307
132280
132253
132219
132184
132152
132116
132081
132046
132007
131969
131936
131900
131864
131832
131797
131764
131733
131699
131659
131621
131590
131554
131517
131475
131431
131394
131357
131318
131281
131235
131181
131132
131084
131038
130992
130942
130895
130843
130793
130749
130701
130649
130597
130547
130504
130457
130404
130351
130290
130231
130176
130119
130070
130026
129981
129931
129874
129818
129764
129711
129664
129613
129557
129499
129435
129369
129315
129270
129226
129174
129104
129040
128977
128893
128801
128731
128684
128634
128572
128519
128462
128389
128312
128232
128152
128085
128010
127916
127849
127791
127717
127644
127579
127507
127436
127366
127298
127231
127155
127075
127004
126944
126877
126804
126737
126663
126585
126508
126433
126351
126274
126210
126140
126062
125988
125909
125814
125715
125624
125544
125468
125390
125312
125242
125190
125153
125127
125100
125069
125040
125010
124978
124948
124922
124896
124872
124852
124828
124797
124759
124722
124678
124646
124617
124573
124537
124507
124469
124413
124360
124314
124264
124206
124147
124092
124043
123985
123918
123851
123781
123713
123640
123556
123480
123395
123279
123174
123095
123025
122950
122867
122762
122645
122521
122418
122322
122212
122129
122049
121945
121844
121761
121683
121609
121562
121524
121487
121444
121392
121333
121268
121199
121127
121054
120981
120919
120863
120799
120727
120659
120598
120534
120457
120373
120284
120191
120093
119994
119895
119808
119715
119634
119553
119440
119340
119247
119167
119090
119002
118911
118823
118732
118626
118534
118447
118361
118269
118153
118028
117904
117791
117688
117572
117470
117369
117265
117174
117101
117033
116961
116881
116793
116696
116605
116527
116437
116341
116256
116159
116046
115927
115815
115698
115585
115470
115344
115213
115089
114977
114861
114753
114660
114572
114471
114345
114246
114150
114015
113893
113781
113642
113529
113426
113301
113157
113000
112841
112716
112597
112443
112279
112120
111946
111742
111556
111412
111264
111145
111031
110868
110701
110563
110429
110271
110055
109840
109668
109528
109394
109255
109083
108906
108752
108559
108346
108130
107884
107644
107433
107238
107038
106810
106558
106304
106091
105878
105607
105401
105226
104983
104687
104447
104237
104019
103792
103523
103246
103000
102734
102454
102214
101973
101752
101572
101405
133351
133350
133349
133347
133345
133342
133338
133334
133330
133325
133319
133311
133302
133295
133289
133281
133273
133265
133256
133247
133236
133226
133214
133197
133184
133170
133153
133140
133128
133113
133095
133077
133060
133046
133030
133011
132991
132967
132943
132926
132910
132892
132871
132847
132826
132806
132781
132754
132732
132713
132695
132674
132646
132618
132594
132566
132538
132511
132485
132458
132427
132399
132373
132341
132305
132279
132253
132220
132186
132155
132120
132075
132036
131999
131968
131940
131904
131867
131833
131795
131764
131732
131695
131650
131615
131584
131549
131514
131474
131434
131396
131355
131316
131273
131221
131175
131132
131078
131028
130988
130948
130898
130845
130793
130745
130699
130651
130597
130546
130500
130447
130394
130346
130290
130233
130172
130113
130068
130028
129979
129925
129869
129816
129759
129712
129667
129614
129556
129492
129430
129368
129319
129274
129226
129173
129103
129032
128963
128886
128806
128738
128679
128622
128565
128510
128457
128392
128306
128219
128149
128082
128006
127925
127849
127782
127709
127643
127579
127500
127429
127363
127293
127227
127156
127074
127001
126940
126874
126805
126742
126670
126581
126502
126427
126347
126270
126202
126129
126046
125973
125900
125805
125696
125607
125528
125454
125380
125304
125236
125193
125165
125144
125121
125085
125048
125021
124998
124973
124947
124917
124888
124864
124840
124809
124766
124724
124682
124650
124619
124572
124540
124511
124468
124411
124360
124312
124264
124208
124146
124091
124036
123975
123912
123845
123772
123704
123633
123549
123469
123379
123285
123193
123099
123027
122951
122858
122758
122651
122529
122422
122320
122203
122118
122034
121936
121843
121769
121702
121636
121589
121546
121500
121447
121397
121344
121270
121201
121138
121069
120994
120923
120859
120793
120722
120649
120587
120528
120462
120372
120285
120206
120103
119989
119896
119808
119714
119628
119543
119447
119347
119251
119168
119087
119004
118919
118827
118732
118625
118537
118448
118342
118247
118139
118016
117893
117777
117675
117578
117489
117400
117309
117225
117147
117068
116975
116884
116792
116695
116607
116523
116425
116343
116266
116165
116051
115939
115821
115684
115579
115476
115349
115224
115105
114990
114875
114778
114678
114581
114482
114341
114230
114138
114028
113908
113795
113663
113540
113435
113299
113140
112993
112839
112696
112582
112451
112282
112120
111961
111779
111584
111432
111279
111139
111012
110851
110695
110552
110413
110268
110082
109867
109674
109526
109398
109284
109139
108953
108774
108557
108353
108151
107913
107671
107439
107218
107010
106786
106502
106261
106081
105887
105613
105415
105250
105023
104708
104442
104241
104030
103805
103569
103292
103020
102746
102461
102201
101958
101750
101565
101400
133349
133348
133347
133345
133342
133339
133336
133332
133328
133322
133315
133306
133299
133293
133287
133279
133271
133262
133252
133244
133235
133224
133211
133195
133181
133165
133149
133136
133123
133108
133094
133076
133058
133044
133029
133009
132984
132961
132942
132926
132908
132890
132870
132845
132822
132800
132774
132750
132731
132713
132693
132671
132644
132617
132591
132564
132536
132509
132482
132453
132423
132393
132366
132335
132301
132276
132252
132222
132187
132153
132115
132071
132036
132000
131967
131939
131907
131867
131829
131796
131766
131729
131689
131646
131611
131579
131545
131510
131474
131434
131392
131348
131309
131267
131214
131170
131127
131076
131025
130985
130948
130902
130844
130793
130743
130694
130646
130592
130543
130498
130442
130383
130334
130290
130241
130173
130105
130062
130024
129973
129919
129866
129812
129759
129715
129668
129609
129549
129486
129426
129365
129320
129277
129226
129172
129106
129029
128951
128878
128805
128737
128672
128615
128560
128503
128447
128380
128299
128220
128146
128070
127996
127923
127851
127779
127709
127640
127569
127486
127419
127357
127288
127223
127156
127074
127000
126945
126886
126809
126740
126661
126572
126496
126418
126339
126260
126183
126108
126029
125956
125884
125798
125700
125599
125507
125434
125364
125298
125246
125219
125194
125167
125144
125109
125064
125040
125020
124996
124968
124936
124904
124877
124850
124818
124776
124728
124685
124650
124615
124574
124542
124508
124457
124405
124351
124306
124265
124211
124150
124089
124024
123961
123903
123840
123765
123692
123618
123537
123455
123357
123275
123198
123106
123033
122955
122853
122750
122642
122521
122420
122323
122210
122110
122012
121924
121849
121793
121735
121669
121621
121574
121519
121464
121405
121345
121276
121202
121139
121075
121005
120933
120854
120783
120713
120639
120577
120526
120468
120381
120287
120198
120083
119982
119906
119816
119712
119627
119539
119450
119352
119258
119177
119091
118997
118908
118824
118740
118643
118539
118435
118330
118229
118115
117989
117869
117778
117692
117589
117497
117423
117350
117275
117189
117091
116992
116893
116782
116696
116611
116514
116415
116345
116275
116169
116048
115936
115824
115692
115577
115476
115360
115241
115123
115001
114891
114800
114699
114593
114492
114348
114219
114125
114039
113938
113810
113680
113552
113424
113273
113128
112992
112838
112692
112576
112441
112265
112109
111959
111791
111605
111453
111308
111152
111003
110841
110695
110551
110404
110253
110081
109881
109681
109518
109395
109293
109169
108997
108805
108586
108371
108162
107940
107711
107472
107191
106950
106744
106493
106245
106066
105884
105652
105439
105262
105028
104697
104437
104252
104055
103815
103577
103317
103059
102777
102433
102176
101971
101778
101574
101397
133346
133345
133343
133341
133338
133335
133332
133328
133323
133317
133310
133302
133296
133291
133284
133277
133269
133258
133248
133239
133230
133221
133208
133191
133176
133161
133146
133132
133116
133104
133092
133075
133057
133041
133025
133004
132980
132958
132940
132922
132904
132886
132865
132839
132817
132796
132771
132747
132727
132710
132692
132667
132640
132615
132588
132559
132533
132506
132476
132447
132416
132384
132358
132331
132299
132275
132252
132222
132184
132148
132109
132072
132040
132003
131966
131938
131907
131869
131830
131793
131759
131723
131683
131642
131608
131574
131538
131505
131473
131433
131385
131339
131303
131263
131212
131164
131120
131074
131029
130984
130943
130897
130845
130796
130744
130690
130634
130580
130538
130497
130443
130381
130328
130284
130234
130167
130100
130053
130014
129969
129914
129863
129808
129760
129717
129660
129601
129545
129484
129424
129367
129321
129275
129219
129162
129104
129036
128955
128876
128801
128731
128663
128607
128554
128493
128430
128365
128295
128219
128137
128063
127991
127922
127855
127782
127703
127621
127547
127474
127412
127355
127288
127214
127150
127084
127009
126949
126888
126810
126733
126650
126557
126484
126414
126332
126241
126163
126087
126010
125945
125875
125782
125682
125584
125497
125420
125359
125312
125269
125247
125227
125198
125173
125143
125096
125062
125038
125013
124984
124951
124916
124886
124858
124825
124781
124738
124696
124653
124614
124575
124538
124495
124447
124400
124345
124298
124260
124214
124152
124077
124009
123947
123889
123828
123758
123683
123602
123523
123444
123351
123256
123174
123107
123037
122949
122844
122742
122637
122526
122419
122311
122202
122103
122009
121931
121862
121813
121771
121700
121646
121598
121542
121481
121415
121350
121281
121207
121139
121068
121008
120944
120851
120771
120702
120638
120582
120526
120462
120377
120288
120192
120079
119977
119904
119821
119711
119624
119537
119455
119361
119265
119182
119094
119004
118907
118815
118725
118636
118540
118428
118322
118220
118101
117973
117869
117787
117706
117610
117512
117446
117378
117297
117213
117112
117005
116903
116785
116706
116625
116513
116414
116344
116273
116169
116048
115936
115825
115703
115587
115478
115367
115249
115122
115005
114909
114820
114717
114603
114496
114365
114223
114129
114046
113944
113823
113701
113565
113405
113250
113127
113000
112825
112677
112566
112436
112255
112086
111941
111801
111644
111465
111310
111167
111008
110845
110703
110550
110396
110240
110071
109884
109700
109522
109398
109302
109185
109019
108818
108602
108387
108172
107943
107724
107494
107190
106913
106717
106508
106257
106062
105879
105676
105449
105251
105028
104707
104457
104267
104061
103828
103596
103340
103070
102755
102390
102169
101986
101798
101588
101398
133341
133340
133339
133336
133333
133331
133328
133324
133318
133313
133306
133299
133293
133288
133281
133273
133263
133254
133244
133234
133226
133216
133202
133185
133170
133157
133143
133130
133114
133101
133088
133072
133054
133037
133018
132998
132978
132957
132936
132916
132898
132880
132859
132834
132813
132793
132768
132745
132725
132706
132687
132662
132636
132612
132585
132554
132527
132500
132469
132439
132409
132377
132353
132331
132302
132273
132249
132222
132186
132143
132103
132071
132040
132003
131967
131936
131903
131866
131827
131788
131753
131716
131674
131640
131608
131571
131534
131501
131467
131427
131378
131333
131296
131256
131206
131154
131111
131073
131033
130982
130940
130895
130846
130797
130738
130685
130628
130570
130532
130493
130433
130374
130322
130276
130223
130156
130094
130050
130008
129965
129918
129862
129803
129758
129716
129650
129591
129540
129486
129427
129366
129313
129263
129210
129158
129101
129036
128965
128872
128794
128725
128658
128597
128542
128485
128422
128355
128281
128203
128119
128058
127994
127920
127860
127783
127694
127603
127531
127462
127404
127354
127289
127205
127144
127082
127009
126942
126880
126810
126726
126645
126560
126478
126405
126322
126227
126148
126071
125995
125928
125856
125760
125663
125578
125497
125417
125368
125338
125306
125275
125250
125222
125199
125173
125128
125085
125054
125029
125000
124963
124925
124894
124865
124831
124791
124751
124707
124652
124614
124578
124530
124480
124439
124395
124338
124288
124248
124204
124143
124064
123998
123936
123871
123809
123747
123676
123592
123510
123425
123337
123238
123163
123099
123021
122931
122832
122734
122634
122527
122417
122310
122203
122110
122032
121964
121898
121829
121782
121725
121671
121619
121558
121491
121422
121359
121290
121217
121148
121078
121010
120934
120836
120765
120708
120645
120581
120519
120451
120380
120294
120193
120079
119975
119899
119814
119707
119623
119544
119462
119366
119264
119177
119092
119005
118906
118815
118719
118622
118525
118411
118312
118225
118113
117976
117872
117794
117719
117630
117542
117475
117404
117306
117217
117124
117024
116921
116808
116724
116642
116522
116411
116332
116256
116163
116055
115943
115823
115702
115594
115481
115377
115270
115132
115012
114916
114823
114725
114617
114494
114368
114253
114148
114049
113943
113828
113712
113577
113389
113234
113126
113007
112833
112674
112553
112419
112248
112072
111927
111801
111665
111501
111318
111159
111001
110851
110715
110560
110386
110221
110062
109898
109728
109543
109404
109300
109180
109029
108856
108645
108393
108167
107947
107730
107501
107212
106902
106681
106487
106283
106075
105863
105648
105430
105231
105014
104736
104494
104301
104092
103852
103607
103354
103081
102746
102428
102195
101984
101776
101561
101391
133335
133334
133333
133331
133329
133326
133323
133319
133314
133308
133301
133294
133289
133283
133276
133266
133257
133250
133240
133229
133220
133208
133194
133180
133165
133151
133140
133129
133112
133098
133084
133067
133049
133032
133016
132995
132973
132949
132928
132910
132892
132873
132852
132828
132809
132788
132765
132743
132723
132705
132682
132656
132631
132607
132578
132548
132520
132490
132459
132433
132405
132375
132350
132327
132300
132272
132246
132220
132185
132141
132101
132071
132040
132001
131964
131933
131899
131860
131817
131780
131746
131708
131673
131640
131604
131564
131527
131496
131463
131421
131371
131326
131287
131244
131197
131153
131107
131066
131028
130986
130941
130893
130845
130791
130731
130677
130618
130564
130524
130478
130422
130372
130316
130264
130207
130146
130095
130052
130006
129961
129914
129855
129797
129757
129716
129648
129579
129527
129480
129426
129359
129302
129255
129210
129158
129094
129031
128960
128859
128785
128725
128660
128587
128532
128479
128410
128332
128264
128194
128116
128051
127973
127911
127855
127777
127688
127600
127523
127451
127395
127343
127274
127198
127143
127084
127004
126926
126869
126811
126732
126635
126556
126484
126400
126302
126210
126133
126057
125974
125895
125821
125740
125660
125578
125504
125438
125394
125371
125348
125317
125283
125245
125222
125196
125156
125110
125072
125043
125016
124978
124937
124902
124870
124834
124795
124759
124717
124661
124614
124569
124518
124476
124434
124385
124329
124280
124237
124187
124128
124055
123982
123919
123861
123801
123733
123649
123575
123502
123412
123323
123231
123155
123085
123004
122916
122824
122727
122627
122522
122415
122322
122223
122130
122061
121998
121936
121865
121809
121756
121691
121630
121572
121504
121433
121371
121293
121220
121161
121091
121012
120927
120833
120762
120708
120648
120578
120511
120448
120383
120293
120189
120081
119983
119900
119805
119703
119619
119539
119463
119372
119263
119171
119086
118996
118895
118814
118727
118622
118515
118395
118303
118224
118132
118005
117888
117802
117734
117654
117573
117503
117425
117324
117222
117125
117033
116940
116841
116745
116647
116529
116407
116325
116251
116169
116068
115935
115814
115702
115598
115492
115384
115280
115149
115023
114927
114830
114730
114624
114488
114356
114264
114172
114054
113947
113834
113711
113570
113380
113232
113116
112987
112833
112674
112550
112415
112239
112064
111931
111807
111660
111510
111343
111152
110990
110859
110728
110572
110399
110223
110046
109898
109756
109592
109433
109301
109166
109016
108856
108659
108406
108174
107953
107733
107495
107216
106928
106678
106481
106291
106065
105829
105624
105430
105210
104986
104782
104563
104340
104111
103858
103610
103355
103069
102719
102462
102253
102016
101757
101537
101387
133329
133329
133328
133327
133324
133322
133319
133314
133309
133302
133296
133289
133283
133277
133269
133260
133252
133244
133233
133221
133210
133199
133188
133175
133161
133149
133137
133122
133106
133092
133077
133060
133043
133028
133011
132987
132965
132939
132921
132906
132889
132868
132845
132824
132804
132783
132761
132740
132720
132701
132676
132647
132624
132601
132571
132541
132513
132482
132453
132428
132401
132371
132346
132322
132298
132273
132245
132217
132184
132139
132098
132066
132032
131994
131961
131931
131895
131850
131808
131774
131742
131705
131669
131636
131598
131557
131520
131489
131454
131413
131366
131321
131279
131234
131188
131146
131101
131059
131023
130982
130936
130890
130842
130782
130727
130673
130614
130561
130513
130453
130408
130364
130310
130260
130202
130143
130095
130050
130001
129957
129910
129851
129798
129752
129703
129646
129580
129521
129466
129405
129350
129300
129253
129207
129154
129091
129023
128935
128847
128780
128725
128663
128584
128520
128457
128386
128319
128251
128174
128106
128043
127962
127899
127836
127762
127687
127600
127520
127443
127382
127324
127258
127201
127146
127079
126999
126921
126857
126794
126726
126643
126555
126475
126382
126280
126197
126121
126035
125936
125872
125808
125733
125659
125587
125528
125477
125437
125410
125381
125351
125319
125282
125249
125215
125175
125134
125093
125059
125030
124994
124949
124910
124876
124838
124797
124759
124719
124667
124614
124564
124516
124475
124428
124372
124314
124272
124227
124174
124113
124037
123968
123912
123854
123780
123708
123633
123561
123486
123396
123308
123226
123151
123068
122985
122908
122823
122723
122631
122538
122429
122333
122237
122150
122085
122027
121968
121900
121829
121769
121709
121645
121587
121518
121436
121373
121295
121222
121167
121105
121024
120933
120840
120767
120701
120627
120576
120525
120453
120369
120260
120180
120099
120000
119904
119795
119700
119616
119539
119464
119367
119258
119163
119084
119002
118908
118812
118713
118608
118502
118404
118304
118210
118128
118023
117915
117831
117759
117678
117587
117514
117442
117362
117261
117139
117031
116937
116854
116766
116658
116539
116416
116328
116247
116168
116074
115942
115825
115708
115595
115495
115392
115286
115171
115044
114938
114834
114727
114621
114501
114361
114264
114177
114066
113961
113856
113717
113538
113358
113215
113082
112959
112830
112675
112550
112421
112245
112067
111929
111797
111657
111520
111375
111190
110990
110854
110724
110566
110410
110233
110033
109887
109756
109617
109474
109315
109168
109018
108846
108636
108415
108204
107987
107741
107459
107181
106945
106710
106482
106275
106055
105848
105642
105437
105208
104971
104795
104614
104375
104130
103869
103603
103349
103073
102757
102493
102273
102031
101769
101561
101397
133323
133323
133323
133322
133319
133317
133313
133309
133303
133296
133290
133284
133278
133271
133263
133254
133244
133236
133224
133212
133201
133193
133184
133170
133157
133143
133129
133114
133100
133084
133069
133055
133039
133022
133000
132979
132959
132937
132915
132899
132882
132860
132838
132817
132796
132775
132756
132736
132717
132697
132670
132639
132617
132595
132565
132536
132507
132475
132448
132423
132395
132367
132342
132318
132296
132274
132245
132212
132177
132132
132090
132056
132022
131988
131956
131925
131887
131846
131807
131771
131734
131695
131663
131632
131594
131551
131514
131481
131446
131403
131360
131319
131274
131226
131176
131134
131092
131054
131019
130978
130931
130887
130838
130773
130721
130669
130612
130559
130503
130445
130398
130347
130304
130261
130201
130139
130090
130047
129999
129950
129898
129844
129795
129748
129695
129639
129575
129514
129455
129397
129346
129295
129245
129197
129142
129081
129006
128913
128849
128792
128722
128642
128562
128501
128439
128373
128308
128234
128153
128097
128039
127953
127885
127814
127750
127686
127592
127508
127434
127375
127317
127250
127194
127140
127073
126991
126917
126850
126777
126710
126635
126543
126459
126370
126266
126182
126102
126017
125932
125860
125787
125725
125667
125607
125558
125519
125485
125453
125410
125374
125344
125312
125280
125246
125197
125151
125112
125078
125043
125005
124963
124921
124882
124842
124798
124758
124718
124665
124611
124560
124513
124472
124426
124367
124308
124264
124214
124160
124099
124020
123953
123897
123832
123757
123695
123626
123544
123462
123388
123310
123218
123139
123056
122977
122908
122829
122731
122635
122540
122440
122355
122271
122179
122102
122038
121983
121920
121845
121782
121727
121669
121596
121518
121443
121377
121296
121225
121163
121102
121039
120958
120849
120765
120698
120631
120577
120518
120435
120350
120254
120184
120109
120002
119901
119795
119700
119611
119534
119456
119361
119264
119173
119093
119006
118906
118793
118695
118603
118510
118415
118306
118206
118126
118040
117936
117846
117771
117689
117605
117533
117450
117367
117282
117177
117057
116953
116857
116765
116655
116537
116437
116347
116256
116166
116065
115945
115834
115719
115592
115500
115403
115280
115177
115074
114957
114834
114724
114623
114506
114363
114266
114185
114077
113967
113862
113706
113507
113351
113197
113041
112945
112843
112689
112551
112412
112242
112081
111943
111802
111666
111525
111374
111205
110981
110844
110716
110565
110422
110234
110025
109883
109759
109626
109493
109341
109184
109027
108844
108650
108442
108212
107973
107704
107418
107173
106961
106733
106485
106270
106069
105878
105679
105458
105205
104959
104791
104621
104408
104173
103890
103603
103341
103060
102784
102528
102264
101997
101769
101587
101415
133317
133317
133316
133315
133313
133310
133306
133301
133294
133288
133282
133277
133271
133264
133256
133246
133237
133228
133216
133204
133195
133188
133178
133163
133149
133134
133120
133107
133092
133077
133064
133050
133034
133013
132991
132972
132954
132933
132911
132891
132871
132850
132829
132808
132789
132770
132752
132733
132712
132691
132664
132635
132611
132586
132558
132531
132501
132469
132444
132418
132387
132361
132339
132314
132293
132272
132239
132204
132166
132121
132082
132047
132012
131980
131950
131918
131881
131845
131809
131770
131728
131690
131660
131628
131585
131545
131509
131474
131438
131398
131355
131309
131262
131217
131166
131125
131088
131051
131014
130974
130926
130881
130832
130767
130713
130659
130605
130553
130501
130447
130394
130340
130295
130251
130196
130132
130081
130041
129996
129944
129889
129831
129789
129748
129690
129628
129567
129508
129451
129393
129338
129283
129230
129184
129134
129071
128984
128904
128845
128784
128704
128622
128549
128483
128422
128365
128304
128229
128151
128083
128013
127944
127872
127797
127735
127668
127580
127499
127426
127368
127312
127238
127181
127134
127074
126985
126908
126832
126761
126701
126626
126517
126446
126372
126254
126164
126083
125997
125929
125866
125786
125724
125677
125636
125593
125554
125519