/*--------------------------------*- C++ -*----------------------------------*\
  =========                 |
  \\      /  F ield         | OpenFOAM: The Open Source CFD Toolbox
   \\    /   O peration     | Website:  https://openfoam.org
    \\  /    A nd           | Version:  7
     \\/     M anipulation  |
\*---------------------------------------------------------------------------*/
FoamFile
{
    version     2.0;
    format      ascii;
    class       surfaceScalarField;
    location    "2000";
    object      phi;
}
// * * * * * * * * * * * * * * * * * * * * * * * * * * * * * * * * * * * * * //

dimensions      [0 3 -1 0 0 0 0];

internalField   nonuniform List<scalar> 
319200
(
6.14631e-17
1.38976e-16
1.79758e-16
9.68604e-17
2.86694e-16
1.27181e-16
4.04681e-16
1.27126e-16
4.89268e-16
1.84581e-16
5.6222e-16
1.61215e-16
6.03502e-16
2.01364e-16
6.6846e-16
1.15251e-16
8.43959e-16
4.47803e-17
9.78445e-16
1.19729e-16
1.08103e-15
1.4166e-16
1.23279e-15
7.9323e-17
1.25625e-15
2.42034e-16
1.05402e-15
4.40789e-16
9.15827e-16
3.32755e-16
9.50557e-16
1.8744e-16
9.35113e-16
2.22095e-16
1.05147e-15
8.22568e-17
1.29408e-15
-3.66675e-17
1.53959e-15
-3.97549e-17
1.77372e-15
3.7045e-18
1.97312e-15
2.92481e-17
2.30182e-15
-1.11971e-16
2.68724e-15
-1.47817e-16
2.92551e-15
1.78782e-17
2.7778e-15
4.18911e-16
2.38131e-15
6.235e-16
2.17106e-15
4.16539e-16
2.10716e-15
2.77725e-16
2.19719e-15
9.97228e-17
2.57722e-15
-1.91874e-16
3.1175e-15
-2.98728e-16
3.36573e-15
2.94476e-17
3.37208e-15
2.37125e-16
3.42971e-15
1.77694e-16
3.44514e-15
2.2949e-16
3.52366e-15
1.27443e-16
3.33633e-15
4.06986e-16
2.81409e-15
6.93205e-16
2.78542e-15
2.17757e-16
3.11056e-15
-8.49021e-17
3.29449e-15
5.556e-17
3.25658e-15
2.78876e-16
3.14086e-15
2.94391e-16
3.14837e-15
1.93596e-16
3.34921e-15
-1.64104e-18
3.50648e-15
3.49357e-17
3.46837e-15
2.42298e-16
3.2718e-15
4.28255e-16
3.51442e-15
-3.46986e-17
4.28897e-15
-5.51617e-16
4.67012e-15
-1.66675e-16
4.35093e-15
5.15858e-16
4.26805e-15
2.67317e-16
4.34928e-15
1.25703e-16
4.15458e-15
3.64187e-16
3.68782e-15
7.03133e-16
3.28962e-15
5.83664e-16
3.5588e-15
-9.23375e-17
4.43103e-15
-6.89994e-16
4.59866e-15
7.00991e-17
4.03653e-15
7.5131e-16
3.86826e-15
3.54716e-16
3.93132e-15
1.13616e-16
4.46021e-15
-3.63998e-16
5.19657e-15
-5.09315e-16
5.18506e-15
2.26426e-16
4.23966e-15
1.16864e-15
3.22515e-15
1.18387e-15
3.89956e-15
-5.452e-16
4.8273e-15
-7.20772e-16
5.21695e-15
-2.24981e-16
5.58682e-15
-1.70206e-16
5.58055e-15
1.78984e-16
5.53196e-15
2.39083e-16
5.66224e-15
5.10585e-17
5.88907e-15
-3.44605e-17
6.1229e-15
-5.7873e-17
6.43237e-15
-1.10057e-16
6.81346e-15
-2.0148e-16
7.33928e-15
-3.25114e-16
7.22258e-15
3.27063e-16
6.52421e-15
8.88461e-16
5.59821e-15
1.10525e-15
4.74417e-15
1.0311e-15
4.6305e-15
2.86315e-16
4.82359e-15
-1.77537e-17
5.19738e-15
-2.14386e-16
5.75169e-15
-3.81003e-16
5.99813e-15
-5.3055e-17
6.67426e-15
-5.17448e-16
7.59284e-15
-7.27999e-16
7.83695e-15
-4.78829e-17
7.65093e-15
3.75636e-16
7.09578e-15
7.32866e-16
6.44628e-15
8.00803e-16
6.0356e-15
5.76888e-16
5.5778e-15
6.13868e-16
5.36803e-15
3.67374e-16
5.41089e-15
9.9688e-17
5.57446e-15
-2.38423e-18
6.21854e-15
-5.09315e-16
6.16646e-15
2.2936e-16
5.53197e-15
7.91557e-16
5.9261e-15
-2.55415e-16
6.19228e-15
-9.40758e-17
6.3504e-15
-1.76877e-17
7.03217e-15
-5.23521e-16
7.48578e-15
-2.89258e-16
7.84237e-15
-1.93645e-16
8.03891e-15
-2.49388e-17
8.42067e-15
-2.45341e-16
8.61016e-15
-2.14399e-17
7.98508e-15
7.76312e-16
7.64245e-15
4.86714e-16
7.39022e-15
4.10107e-16
7.25097e-15
2.80596e-16
7.62891e-15
-2.37374e-16
7.53846e-15
2.49884e-16
7.00333e-15
6.85412e-16
7.12512e-15
2.18473e-17
8.04747e-15
-7.90444e-16
9.38843e-15
-1.1947e-15
1.07134e-14
-1.17415e-15
1.19094e-14
-1.04125e-15
1.21645e-14
-8.64634e-17
1.12092e-14
1.12961e-15
1.05381e-14
8.15975e-16
1.04814e-14
2.08556e-16
1.03104e-14
3.28478e-16
9.81136e-15
6.44553e-16
9.53814e-15
4.08437e-16
1.02402e-14
-5.7073e-16
1.09524e-14
-5.58736e-16
1.06916e-14
4.15826e-16
9.28532e-15
1.55781e-15
8.38254e-15
1.03789e-15
9.05843e-15
-5.30738e-16
9.03507e-15
1.54229e-16
9.25018e-15
-9.80357e-17
9.02881e-15
3.61439e-16
8.13215e-15
1.05108e-15
8.17713e-15
6.45525e-17
9.40465e-15
-1.09503e-15
1.02663e-14
-7.11346e-16
1.04105e-14
-1.19325e-17
1.03558e-14
1.86978e-16
1.00053e-14
4.80312e-16
8.9815e-15
1.15523e-15
7.50231e-15
1.59855e-15
7.39588e-15
2.15912e-16
8.44584e-15
-9.26934e-16
8.59016e-15
-3.48087e-17
8.38399e-15
3.42654e-16
8.68655e-15
-1.93578e-16
9.9155e-15
-1.10617e-15
1.13357e-14
-1.2977e-15
1.24504e-14
-9.78332e-16
1.23363e-14
2.43049e-16
1.13601e-14
1.11205e-15
1.03224e-14
1.15776e-15
1.00344e-14
4.12446e-16
1.08483e-14
-6.95505e-16
1.09972e-14
-6.94411e-18
1.059e-14
5.15755e-16
1.00197e-14
6.91774e-16
9.25798e-15
8.82689e-16
9.10672e-15
2.58256e-16
9.47338e-15
-2.52624e-16
1.11173e-14
-1.53852e-15
1.33215e-14
-2.07485e-15
1.43264e-14
-8.69608e-16
1.46543e-14
-2.10988e-16
1.44353e-14
3.57226e-16
1.31268e-14
1.4329e-15
1.18049e-14
1.42846e-15
1.25427e-14
-6.29914e-16
1.4348e-14
-1.69348e-15
1.49144e-14
-4.38336e-16
1.3719e-14
1.32025e-15
1.33063e-14
5.04989e-16
1.18958e-14
1.52621e-15
9.77252e-15
2.22008e-15
8.124e-15
1.73783e-15
7.03902e-15
1.17286e-15
6.90697e-15
2.20102e-16
6.8369e-15
1.65515e-16
6.4407e-15
4.95932e-16
5.96045e-15
5.72271e-16
5.60192e-15
4.64827e-16
5.30736e-15
4.14092e-16
5.25471e-15
1.64957e-16
5.61056e-15
-2.37201e-16
6.13269e-15
-3.95759e-16
5.87178e-15
4.00372e-16
6.42047e-15
-4.5829e-16
8.2429e-15
-1.7272e-15
9.84706e-15
-1.46413e-15
1.14462e-14
-1.44413e-15
1.2485e-14
-8.85014e-16
1.29668e-14
-3.38334e-16
1.27911e-14
3.03552e-16
1.24696e-14
4.33812e-16
1.19777e-14
5.87579e-16
1.19671e-14
1.00732e-16
1.26823e-14
-6.10249e-16
1.30115e-14
-2.21886e-16
1.37629e-14
-6.48704e-16
1.42724e-14
-4.06046e-16
1.4583e-14
-2.11729e-16
1.46111e-14
7.11216e-17
1.42781e-14
4.37249e-16
1.42139e-14
1.5809e-16
1.45499e-14
-2.47177e-16
1.40844e-14
5.60476e-16
1.3554e-14
6.20621e-16
1.46289e-14
-9.94613e-16
1.6151e-14
-1.43482e-15
1.62751e-14
-2.36297e-17
1.58696e-14
5.03377e-16
1.48365e-14
1.12914e-15
1.27604e-14
2.16909e-15
1.11089e-14
1.72257e-15
1.02181e-14
9.5556e-16
9.41584e-15
8.68103e-16
9.07811e-15
4.07707e-16
8.73619e-15
4.20372e-16
8.90375e-15
-1.00092e-16
9.17175e-15
-1.78955e-16
8.67492e-15
5.79798e-16
8.62169e-15
1.16237e-16
8.10436e-15
5.89492e-16
7.94728e-15
2.24654e-16
9.21758e-15
-1.19265e-15
1.07099e-14
-1.41643e-15
1.16934e-14
-9.02754e-16
1.19914e-14
-2.26658e-16
1.22468e-14
-1.76155e-16
1.23606e-14
-4.58772e-17
1.22327e-14
2.03249e-16
1.16916e-14
6.11023e-16
1.05705e-14
1.18456e-15
1.00294e-14
6.07476e-16
1.10037e-14
-9.11863e-16
1.18289e-14
-7.57102e-16
1.20971e-14
-1.99443e-16
1.27065e-14
-5.35175e-16
1.36305e-14
-8.4235e-16
1.31272e-14
6.13555e-16
1.22806e-14
9.55599e-16
1.14825e-14
9.04747e-16
1.02656e-14
1.31441e-15
9.58188e-15
7.66513e-16
9.69723e-15
-4.15921e-17
1.05054e-14
-7.43052e-16
1.12446e-14
-6.65635e-16
1.11474e-14
1.65657e-16
1.285e-14
-1.643e-15
1.6444e-14
-3.52378e-15
1.79891e-14
-1.45012e-15
1.61143e-14
1.97452e-15
1.37961e-14
2.39707e-15
1.21183e-14
1.74468e-15
1.12491e-14
9.24094e-16
1.16096e-14
-3.02985e-16
1.24841e-14
-8.06301e-16
1.31124e-14
-5.61571e-16
1.38208e-14
-6.55035e-16
1.47922e-14
-9.10155e-16
1.39187e-14
9.48878e-16
1.21234e-14
1.85675e-15
1.22748e-14
-9.15494e-17
1.29163e-14
-5.76431e-16
1.29245e-14
5.57256e-17
1.29665e-14
1.58622e-17
1.30358e-14
-2.0688e-17
1.35165e-14
-4.2739e-16
1.36376e-14
-5.65997e-17
1.2769e-14
9.30845e-16
1.23644e-14
4.7009e-16
1.20988e-14
3.24767e-16
1.21959e-14
-4.13918e-17
1.22733e-14
-1.94239e-17
1.24987e-14
-1.64245e-16
1.34753e-14
-9.10121e-16
1.58976e-14
-2.3593e-15
1.82926e-14
-2.32688e-15
1.96009e-14
-1.25083e-15
1.96484e-14
8.59804e-18
1.68094e-14
2.89524e-15
1.35604e-14
3.30475e-15
1.24695e-14
1.13183e-15
1.36868e-14
-1.17088e-15
1.56236e-14
-1.8869e-15
1.69188e-14
-1.24339e-15
1.59903e-14
9.81258e-16
1.38249e-14
2.22334e-15
1.28572e-14
1.01086e-15
1.27869e-14
1.18996e-16
1.33152e-14
-4.80484e-16
1.50843e-14
-1.69519e-15
1.86275e-14
-3.45737e-15
2.20763e-14
-3.35839e-15
2.35911e-14
-1.42788e-15
2.40069e-14
-3.35282e-16
2.37702e-14
3.09623e-16
2.35468e-14
2.89999e-16
2.26382e-14
9.7197e-16
2.22692e-14
4.26716e-16
2.20516e-14
2.69625e-16
2.0659e-14
1.44308e-15
1.96341e-14
1.07083e-15
1.96973e-14
-1.73473e-17
1.98342e-14
-8.36667e-17
2.08184e-14
-9.23744e-16
2.2082e-14
-1.20079e-15
2.13769e-14
7.66794e-16
2.02094e-14
1.21705e-15
1.94697e-14
7.8182e-16
1.84889e-14
1.0224e-15
1.83022e-14
2.25794e-16
1.86735e-14
-3.30946e-16
1.88003e-14
-8.86451e-17
1.98165e-14
-9.68609e-16
2.10565e-14
-1.18948e-15
2.20754e-14
-9.6144e-16
2.23001e-14
-1.6655e-16
2.2245e-14
1.11977e-16
2.20697e-14
2.30191e-16
2.04107e-14
1.71076e-15
2.01253e-14
3.32206e-16
2.14828e-14
-1.30702e-15
2.16045e-14
-7.31148e-17
2.32139e-14
-1.56216e-15
2.53545e-14
-2.09241e-15
2.67711e-14
-1.36961e-15
2.92436e-14
-2.42716e-15
3.25699e-14
-3.28186e-15
3.08296e-14
1.80617e-15
2.50355e-14
5.8546e-15
2.24646e-14
2.61726e-15
2.12931e-14
1.22227e-15
2.07675e-14
5.79869e-16
2.1437e-14
-6.18855e-16
2.00159e-14
1.46263e-15
1.81751e-14
1.87298e-15
2.015e-14
-1.9414e-15
2.32205e-14
-3.03325e-15
2.51714e-14
-1.91387e-15
2.63461e-14
-1.13485e-15
2.63682e-14
2.09846e-17
2.55651e-14
8.421e-16
2.39126e-14
1.69247e-15
2.33437e-14
6.06723e-16
2.39497e-14
-5.6628e-16
2.3794e-14
1.94787e-16
2.35367e-14
2.98243e-16
2.36061e-14
-2.90486e-17
2.37773e-14
-1.29374e-16
2.33504e-14
4.64784e-16
2.28351e-14
5.52682e-16
2.2821e-14
4.96655e-17
2.34325e-14
-5.72644e-16
2.50435e-14
-1.57465e-15
2.86746e-14
-3.58938e-15
3.08526e-14
-2.13417e-15
3.57023e-14
-4.80989e-15
3.91169e-14
-3.3646e-15
3.58302e-14
3.33367e-15
3.28639e-14
3.00625e-15
3.45239e-14
-1.62198e-15
3.86288e-14
-4.06371e-15
4.36093e-14
-4.9391e-15
4.37892e-14
-1.29569e-16
4.13478e-14
2.48043e-15
3.77782e-14
3.6155e-15
3.1215e-14
6.60146e-15
2.65319e-14
4.71955e-15
2.43664e-14
2.19953e-15
2.36996e-14
7.02036e-16
2.4418e-14
-6.82202e-16
2.42208e-14
2.33019e-16
2.83293e-14
-4.073e-15
3.57742e-14
-7.40578e-15
3.97753e-14
-3.96063e-15
4.13352e-14
-1.51892e-15
4.13581e-14
2.13593e-17
3.89384e-14
2.46359e-15
3.602e-14
2.95915e-15
3.65047e-14
-4.45987e-16
3.74727e-14
-9.27211e-16
3.802e-14
-5.07772e-16
4.03225e-14
-2.25933e-15
4.19394e-14
-1.57088e-15
4.47509e-14
-2.76879e-15
4.8242e-14
-3.43098e-15
4.72354e-14
1.06828e-15
5.0099e-14
-2.81582e-15
5.34551e-14
-3.28494e-15
6.55279e-16
1.09277e-16
3.11119e-16
1.87703e-16
2.29584e-16
2.22708e-16
2.9362e-16
3.07527e-16
2.73575e-16
3.92322e-16
3.23282e-16
5.44449e-16
2.4303e-16
6.93052e-16
2.98985e-16
7.61927e-16
2.77028e-16
8.56999e-16
1.79839e-16
9.53462e-16
2.59368e-16
1.03131e-15
3.06491e-16
1.08419e-15
2.40547e-16
1.20179e-15
3.4009e-16
1.32476e-15
5.40653e-16
1.30608e-15
5.92375e-16
1.35709e-15
3.41363e-16
1.65275e-15
1.43908e-16
1.95849e-15
3.8176e-17
1.95862e-15
2.2271e-16
1.84548e-15
3.27081e-16
1.85268e-15
2.22949e-16
2.04636e-15
4.89734e-17
2.20842e-15
-4.26099e-17
2.08523e-15
2.04973e-16
2.12965e-15
1.79701e-16
2.6463e-15
1.0539e-16
2.98622e-15
5.28726e-16
2.87479e-15
7.64482e-16
2.87967e-15
4.79156e-16
3.06163e-15
1.41449e-16
2.87669e-15
2.26186e-16
2.55071e-15
2.51785e-16
2.41244e-15
4.03048e-16
2.51135e-15
3.62924e-16
2.84116e-15
5.62597e-17
3.14732e-15
1.30352e-16
3.09086e-15
4.04543e-16
3.23239e-15
4.17553e-16
3.66178e-15
4.631e-16
3.58053e-15
5.53005e-16
3.29101e-15
4.48083e-16
3.29101e-15
2.76993e-16
3.3448e-15
4.72257e-16
3.30518e-15
5.03666e-16
3.58445e-15
1.1436e-16
3.76299e-15
3.70106e-17
3.55264e-15
4.36356e-16
3.60385e-15
3.77908e-16
3.89937e-15
3.59527e-16
3.90207e-15
2.12484e-16
3.67477e-15
-1.09993e-16
3.91954e-15
-2.18551e-16
4.5651e-15
5.39497e-17
4.49699e-15
5.68746e-16
4.07258e-15
7.12411e-16
4.00721e-15
6.1536e-16
3.91602e-15
9.9302e-16
3.80098e-15
8.80192e-16
3.85351e-15
4.32976e-17
3.81776e-15
-4.63942e-16
3.84095e-15
2.38831e-16
3.92446e-15
8.68215e-16
3.97372e-15
4.87458e-16
4.25406e-15
6.39599e-18
4.09267e-15
-9.37134e-18
4.04747e-15
-2.64158e-16
4.88222e-15
-4.41133e-16
6.38519e-15
-1.28649e-16
7.64299e-15
1.28553e-16
7.65673e-15
-3.42662e-16
6.70506e-15
4.5737e-16
5.5893e-15
1.10009e-15
5.03224e-15
5.59669e-16
5.0377e-15
3.57318e-16
5.24909e-15
2.12778e-16
5.42879e-15
7.33062e-17
5.29115e-15
2.86758e-16
5.3799e-15
3.74541e-17
6.05468e-15
-6.14386e-16
6.31417e-15
-2.64933e-16
5.99164e-15
1.88389e-16
6.18344e-15
3.18832e-16
6.9463e-15
3.06377e-16
8.00933e-15
2.21323e-16
8.13858e-15
1.10993e-15
7.06803e-15
1.5682e-15
6.00277e-15
1.215e-15
6.1007e-15
-1.43793e-16
6.63337e-15
-7.40629e-16
7.36255e-15
-5.97706e-16
7.73899e-15
-7.00983e-16
7.90756e-15
-7.1663e-16
7.92453e-15
1.36064e-16
7.40938e-15
1.07792e-15
7.47402e-15
8.2499e-16
7.57921e-15
8.70685e-16
7.57592e-15
7.49592e-16
7.36614e-15
1.00032e-15
6.95851e-15
9.55301e-16
7.13056e-15
8.69996e-17
7.36656e-15
-5.42461e-17
7.16947e-15
-1.38207e-16
8.11487e-15
-5.76994e-16
8.55591e-15
5.22728e-16
7.70511e-15
7.61248e-16
8.09091e-15
-3.32948e-16
9.01648e-15
-7.72128e-16
8.85805e-15
-1.78205e-16
8.273e-15
4.67619e-16
7.70651e-15
5.47387e-16
6.98308e-15
8.66543e-16
6.29217e-15
5.87919e-16
6.41763e-15
-5.51959e-18
7.04089e-15
2.90415e-16
7.46762e-15
2.01593e-16
7.81672e-15
2.05184e-16
7.98296e-15
2.58166e-16
8.26513e-15
-3.68926e-16
9.46515e-15
-7.96317e-16
1.04586e-14
-1.40717e-16
9.93204e-15
7.15431e-16
8.8869e-15
4.09582e-16
8.276e-15
-4.30706e-16
7.7933e-15
-5.38513e-16
7.48924e-15
-5.87981e-16
7.77795e-15
-2.25841e-16
8.50002e-15
5.58328e-16
9.08189e-15
3.70899e-16
9.00444e-15
4.33238e-16
8.63388e-15
8.45431e-16
8.72937e-15
6.91365e-16
1.06975e-14
-1.44432e-15
1.21403e-14
-1.86386e-15
1.17168e-14
2.08697e-17
1.16967e-14
5.76606e-16
1.34019e-14
-3.45416e-17
1.27057e-14
1.88158e-15
1.03126e-14
1.99704e-15
1.01205e-14
4.697e-16
1.02879e-14
-1.40925e-16
1.04085e-14
3.73928e-16
1.07176e-14
8.81692e-16
1.09827e-14
-6.5264e-17
1.00853e-14
-5.75404e-17
9.25022e-15
2.64586e-16
9.63945e-15
-2.79576e-16
1.01291e-14
-1.65567e-16
9.97996e-15
7.60099e-16
1.01724e-14
1.08868e-15
1.16976e-14
1.85739e-16
1.14716e-14
5.952e-16
9.68444e-15
9.77595e-16
9.139e-15
6.23235e-16
9.44272e-15
1.59183e-16
1.04398e-14
-1.06883e-15
1.04729e-14
-1.00683e-15
1.01544e-14
-8.62313e-16
1.03254e-14
-1.02061e-15
1.09928e-14
-3.06241e-16
1.18444e-14
3.92503e-16
1.2342e-14
7.8794e-16
1.17774e-14
1.11115e-15
1.07182e-14
4.95847e-16
1.06432e-14
1.94028e-16
1.13699e-14
-9.09835e-17
1.22764e-14
-9.41293e-17
1.23045e-14
9.84771e-16
1.14646e-14
1.21126e-15
1.06286e-14
7.05109e-16
9.94244e-15
-7.24552e-16
9.53704e-15
-1.54077e-15
1.01877e-14
-1.39549e-15
1.25602e-14
-2.47905e-15
1.37259e-14
-6.82423e-16
1.32928e-14
1.97552e-15
1.25771e-14
2.24944e-15
1.14538e-14
6.03566e-16
1.0683e-14
-8.16332e-16
1.03711e-14
-1.79716e-17
1.08145e-14
9.81957e-16
1.12829e-14
1.37631e-16
1.13182e-14
1.59793e-15
1.05448e-14
3.08873e-15
1.066e-14
1.70202e-15
1.04475e-14
1.48467e-15
9.25123e-15
1.5114e-15
8.27919e-15
1.23479e-15
7.95574e-15
9.10637e-16
8.23458e-15
3.87956e-16
8.04635e-15
7.6756e-16
7.46869e-15
1.11309e-15
7.96681e-15
-1.94914e-16
9.30903e-15
-1.45359e-15
1.02281e-14
-1.18093e-15
1.05698e-14
1.71637e-16
1.11564e-14
-9.35649e-16
1.20132e-14
-2.44954e-15
1.37914e-14
-3.08716e-15
1.50373e-14
-2.53945e-15
1.56812e-14
-1.39363e-15
1.62091e-14
-7.42034e-16
1.69489e-14
-3.23073e-16
1.82381e-14
-7.53141e-16
1.9897e-14
-9.76758e-16
1.97555e-14
3.47668e-16
1.78967e-14
1.36253e-15
1.68688e-14
9.17317e-16
1.70987e-14
-7.75452e-16
1.73718e-14
-5.83172e-16
1.67045e-14
5.53597e-16
1.61602e-14
7.13167e-16
1.67888e-14
-1.032e-16
1.6902e-14
1.24836e-16
1.59039e-14
8.36793e-16
1.59165e-14
6.31331e-16
1.64306e-14
1.8462e-16
1.60966e-14
-5.79992e-16
1.52914e-14
-5.33581e-16
1.43284e-14
1.03583e-15
1.33662e-14
1.54958e-15
1.32854e-14
1.28505e-15
1.44431e-14
1.07507e-15
1.51527e-14
1.07653e-15
1.54535e-14
7.19278e-16
1.53395e-14
1.05523e-15
1.45854e-14
1.23888e-15
1.35124e-14
1.57455e-15
1.23504e-14
1.13115e-15
1.22674e-14
-1.78338e-17
1.28785e-14
4.15838e-17
1.35967e-14
-5.28819e-16
1.54184e-14
-1.16003e-15
1.58808e-14
-1.4428e-16
1.39271e-14
8.64902e-16
1.28474e-14
-2.57275e-16
1.35321e-14
-1.51487e-15
1.44822e-14
-1.09582e-15
1.43554e-14
3.27944e-17
1.34369e-14
9.43576e-16
1.28726e-14
8.42348e-16
1.32913e-14
2.61013e-16
1.44913e-14
4.51577e-17
1.46981e-14
4.69994e-16
1.41158e-14
-2.5949e-16
1.47395e-14
-1.32424e-15
1.54615e-14
-8.50526e-16
1.55225e-14
-5.20705e-16
1.57774e-14
-9.87519e-16
1.63236e-14
1.87797e-16
1.70309e-14
3.6226e-16
1.76352e-14
4.00002e-16
1.86972e-14
3.3953e-16
1.80613e-14
1.48655e-15
1.69463e-14
1.15183e-15
1.70914e-14
-8.16525e-16
1.7167e-14
-6.65846e-16
1.80539e-14
-6.55162e-16
1.8842e-14
-2.36367e-15
1.76877e-14
-2.28195e-15
1.62819e-14
4.9596e-17
1.6766e-14
1.56565e-15
1.76735e-14
1.55054e-15
1.80602e-14
1.41451e-15
1.81861e-14
8.55563e-16
1.69357e-14
1.0129e-15
1.55126e-14
6.89397e-16
1.66579e-14
-1.65152e-15
1.93294e-14
-3.27027e-15
1.93638e-14
-8.70347e-16
1.80986e-14
2.28861e-15
1.88823e-14
1.13726e-15
1.84499e-14
4.10195e-16
1.65225e-14
1.42313e-15
1.61746e-14
4.63887e-16
1.69993e-14
-7.52948e-16
1.79055e-14
-8.76674e-16
1.75828e-14
-4.51837e-17
1.64658e-14
1.13146e-15
1.59542e-14
1.50924e-15
1.62306e-14
2.54543e-16
1.64378e-14
1.7704e-16
1.75239e-14
-1.06743e-15
1.93428e-14
-1.77063e-15
1.97756e-14
-5.23461e-16
1.85075e-14
4.28826e-16
1.70709e-14
-8.58805e-16
1.6264e-14
-1.46232e-15
1.63173e-14
-1.25085e-15
1.71659e-14
-7.87955e-16
1.81508e-14
1.96224e-15
1.81863e-14
3.31153e-15
1.90036e-14
3.59648e-16
1.86075e-14
-7.24236e-16
1.64659e-14
3.12042e-16
1.50312e-14
2.35544e-16
1.50865e-14
9.72371e-16
1.51486e-14
2.21194e-15
1.512e-14
1.08766e-15
1.73436e-14
-2.05788e-15
1.9546e-14
-2.62343e-15
2.18977e-14
-3.95891e-15
2.27447e-14
-4.21536e-15
2.29355e-14
-3.4696e-15
2.41688e-14
-2.59174e-15
2.49959e-14
-1.10064e-15
2.53925e-14
-3.18446e-17
2.52239e-14
5.08284e-16
2.43579e-14
1.88711e-15
2.36279e-14
1.20488e-15
2.35013e-14
4.43386e-16
2.39046e-14
1.08641e-15
2.48692e-14
1.52265e-16
2.62536e-14
-1.35196e-15
2.65891e-14
-3.63707e-16
2.40621e-14
1.66467e-15
2.11384e-14
1.77984e-15
2.13638e-14
5.87654e-16
2.22341e-14
3.87045e-16
2.24087e-14
6.46735e-16
2.25132e-14
9.57207e-16
2.25217e-14
2.56397e-16
2.45696e-14
-2.33973e-15
2.83942e-14
-3.86657e-15
2.97891e-14
-2.30759e-15
2.87189e-14
-6.37116e-17
3.0663e-14
-2.85052e-15
3.26075e-14
-2.0579e-15
3.15088e-14
1.26857e-15
2.96976e-14
2.09593e-15
2.87674e-14
2.68851e-15
2.65085e-14
2.63523e-15
2.52216e-14
2.50082e-17
2.66293e-14
-1.43571e-15
2.75473e-14
-2.43286e-15
2.72937e-14
-1.78878e-15
2.7673e-14
-1.70274e-15
2.78392e-14
-2.55042e-15
2.6562e-14
-1.96119e-15
2.71187e-14
1.29486e-15
2.94893e-14
3.52733e-15
3.01344e-14
2.01454e-15
2.83647e-14
3.04142e-15
2.5339e-14
3.65988e-15
2.3743e-14
1.02478e-15
2.38598e-14
1.38072e-15
2.43563e-14
1.41239e-15
2.52213e-14
-2.76806e-15
2.67065e-14
-4.4711e-15
2.69036e-14
-2.06551e-15
2.6172e-14
-3.58401e-16
2.64059e-14
-1.72612e-16
2.6772e-14
5.16126e-16
2.76246e-14
8.76647e-16
2.75644e-14
7.07772e-16
2.51956e-14
1.84116e-15
2.37344e-14
1.69195e-15
2.30175e-14
1.05175e-15
2.30456e-14
-1.9768e-17
2.42021e-14
-1.24938e-15
2.55939e-14
-8.90626e-16
2.6175e-14
7.79171e-18
2.57174e-14
5.45371e-16
2.62373e-14
-1.0547e-15
2.92003e-14
-4.49923e-15
3.26472e-14
-6.99195e-15
3.40759e-14
-3.52075e-15
3.38593e-14
-4.55077e-15
3.17834e-14
-1.24026e-15
3.09638e-14
4.19391e-15
3.04144e-14
3.59308e-15
2.94623e-14
-6.31284e-16
2.83297e-14
-2.89521e-15
2.71909e-14
-3.76119e-15
2.803e-14
-9.31933e-16
2.92574e-14
1.29268e-15
3.1899e-14
1.00913e-15
3.62335e-14
2.30405e-15
3.53304e-14
5.66211e-15
3.25481e-14
5.01652e-15
3.33435e-14
-5.58277e-17
3.4212e-14
-1.50845e-15
3.49375e-14
-4.61945e-16
3.35479e-14
-2.63956e-15
3.02423e-14
-4.06163e-15
3.17744e-14
-5.45998e-15
3.17855e-14
-1.48849e-15
2.93769e-14
2.46871e-15
3.09991e-14
8.77719e-16
3.55299e-14
-1.53454e-15
3.74936e-14
-2.3687e-15
3.80518e-14
-1.44968e-15
4.075e-14
-3.16653e-15
4.09572e-14
-2.42439e-15
3.99534e-14
-5.25933e-16
4.15677e-14
-4.34379e-15
4.05742e-14
-2.38295e-15
3.84604e-14
3.23128e-15
3.55302e-14
1.73694e-16
3.51834e-14
-2.88691e-15
-1.15934e-15
1.09425e-16
4.00454e-16
1.78422e-16
3.42369e-16
2.58801e-16
4.28025e-16
3.37005e-16
3.69378e-16
4.43373e-16
4.49099e-16
5.2482e-16
3.59746e-16
7.17281e-16
3.24917e-16
8.47075e-16
3.8891e-16
9.95735e-16
2.37662e-16
1.25877e-15
2.38801e-16
1.45412e-15
3.75639e-16
1.42684e-15
5.0464e-16
1.44952e-15
5.3097e-16
1.73738e-15
4.92833e-16
2.03061e-15
5.61598e-16
2.19234e-15
4.0758e-16
2.14147e-15
4.5502e-16
1.92403e-15
5.22748e-16
1.82188e-15
5.4936e-16
1.83652e-15
5.55891e-16
1.85271e-15
4.28039e-16
1.7733e-15
3.56864e-16
1.70012e-15
2.39426e-16
1.62307e-15
4.75349e-16
1.71752e-15
2.70556e-16
1.95351e-15
6.85983e-17
2.25389e-15
4.34656e-16
2.72057e-15
5.05931e-16
2.89974e-15
5.44584e-16
2.70959e-15
5.45283e-16
2.77e-15
3.75097e-16
2.82436e-15
4.22134e-16
2.80708e-15
6.5325e-16
2.692e-15
7.2833e-16
2.58683e-15
3.66027e-16
2.68183e-15
2.30065e-16
2.69099e-15
5.97325e-16
2.72039e-15
5.87275e-16
2.73774e-15
6.42923e-16
2.87341e-15
6.20563e-16
3.10731e-15
4.20371e-16
3.3671e-15
2.22765e-16
3.82381e-15
2.27514e-16
4.32875e-15
1.97788e-16
4.03999e-15
6.68679e-16
3.36384e-15
9.21899e-16
3.25012e-15
7.39377e-16
3.52678e-15
2.86202e-16
4.0376e-15
6.22666e-17
4.00191e-15
4.9029e-16
3.46064e-15
6.43081e-16
3.2755e-15
1.55984e-16
3.41975e-15
9.35879e-17
3.87591e-15
2.95837e-16
4.56217e-15
2.1724e-16
5.36593e-15
2.8914e-18
6.1335e-15
4.39541e-16
6.51399e-15
7.15241e-16
5.8077e-15
9.96895e-16
4.56532e-15
9.74065e-16
4.32068e-15
6.73359e-16
4.69285e-15
6.836e-16
4.82461e-15
5.75085e-16
4.59048e-15
4.31719e-16
4.49413e-15
2.75348e-16
4.12641e-15
3.26976e-16
3.67972e-15
1.9002e-16
3.71311e-15
1.83182e-17
4.0432e-15
-4.30673e-17
4.21707e-15
-3.34573e-16
4.97401e-15
-1.49473e-16
5.44784e-15
8.23279e-16
4.91659e-15
1.29355e-15
4.39279e-15
1.04312e-15
4.63229e-15
1.36073e-16
5.5008e-15
-6.13301e-16
6.39043e-15
-4.21112e-16
7.18616e-15
-5.67255e-16
6.96528e-15
-1.85949e-16
6.56577e-15
3.15718e-16
6.94279e-15
-1.48541e-18
7.33922e-15
1.31176e-16
7.08725e-15
7.67029e-16
6.45314e-15
1.02905e-15
6.31067e-15
1.43594e-15
6.88794e-15
1.15837e-15
7.31972e-15
9.66726e-16
6.70066e-15
6.71619e-16
5.91933e-15
2.17617e-16
6.04779e-15
-5.68169e-16
5.82088e-15
-2.86351e-16
5.00157e-15
2.71124e-16
5.02834e-15
2.57018e-16
5.24871e-15
1.03006e-15
5.04519e-15
1.17511e-15
5.31337e-15
7.37858e-16
6.20178e-15
1.89539e-17
6.70588e-15
6.59546e-16
6.43384e-15
1.39311e-15
6.16934e-15
5.0732e-16
6.98404e-15
-7.2588e-16
7.54308e-15
-5.32866e-16
7.42906e-15
-3.12286e-16
8.15938e-15
-5.7998e-17
8.35852e-15
7.23191e-16
7.71248e-15
4.85322e-16
7.28556e-15
-1.74431e-16
7.27958e-15
-1.95352e-17
7.77316e-15
1.27983e-16
7.91306e-15
5.75503e-16
7.69511e-15
1.2344e-15
6.92618e-15
1.50957e-15
6.51433e-15
5.51914e-16
7.1475e-15
-2.09834e-16
7.83548e-15
-3.34571e-16
7.96451e-15
2.20416e-16
7.7726e-15
5.93825e-16
7.37039e-15
1.9032e-16
7.08496e-15
-3.45599e-16
6.95765e-15
1.45722e-16
7.15206e-15
6.66738e-16
7.28772e-15
4.10777e-16
6.84699e-15
1.5405e-16
6.29189e-15
1.56746e-16
6.13487e-15
-2.93724e-16
6.57355e-15
-5.25973e-16
7.48343e-15
-2.23196e-16
8.02974e-15
-3.74822e-17
8.10039e-15
5.03301e-16
8.77415e-15
2.9876e-16
9.79025e-15
-1.94155e-16
9.57754e-15
-1.08035e-15
8.91923e-15
-1.05128e-15
9.34405e-15
-2.66439e-16
1.00618e-14
-7.1596e-18
1.01968e-14
-4.05096e-17
1.1129e-14
1.07469e-15
1.14978e-14
1.75791e-15
1.15593e-14
5.40147e-16
1.25231e-14
-9.72425e-16
1.47089e-14
-1.67343e-15
1.50566e-14
7.06047e-16
1.32089e-14
1.92974e-15
1.21922e-14
1.0937e-15
1.09113e-14
1.69108e-15
1.01313e-14
6.3137e-16
1.05783e-14
-4.8557e-16
1.09229e-14
5.45839e-16
1.08506e-14
1.29165e-15
1.08972e-14
2.60466e-16
1.14294e-14
1.94988e-16
1.22665e-14
2.60444e-16
1.43805e-14
-1.36734e-15
1.49478e-14
-2.61245e-16
1.27871e-14
1.24472e-15
1.09961e-14
9.0392e-16
1.02219e-14
3.4901e-17
9.52763e-15
-1.9838e-16
8.80062e-15
5.46319e-16
8.52076e-15
7.95854e-16
9.1935e-15
2.24327e-16
9.75037e-15
6.71572e-16
9.85377e-15
5.08343e-16
1.03545e-14
-1.91736e-16
1.04921e-14
-1.07977e-16
1.03179e-14
2.02113e-16
1.11037e-14
3.19342e-16
1.23344e-14
9.37624e-17
1.34538e-14
-2.98058e-16
1.40658e-14
-1.19547e-15
1.37839e-14
-1.12254e-15
1.21314e-14
3.90841e-16
9.27127e-15
5.08895e-16
8.2538e-15
4.493e-16
1.02338e-14
9.16393e-17
1.22018e-14
3.78554e-16
1.18825e-14
1.03353e-15
1.01959e-14
9.79226e-16
9.06677e-15
1.20622e-15
8.68379e-15
1.46151e-15
8.42111e-15
4.99315e-16
9.93381e-15
1.80194e-16
1.16713e-14
1.44411e-15
1.13829e-14
2.08748e-15
1.09681e-14
1.99118e-15
1.07218e-14
1.85169e-15
1.09465e-14
1.10518e-15
1.0805e-14
1.15634e-15
1.03468e-14
9.68102e-16
1.07609e-14
4.89031e-16
1.2026e-14
2.04714e-17
1.35999e-14
-1.62691e-15
1.45817e-14
-2.31467e-15
1.48452e-14
-1.32316e-15
1.56636e-14
-5.29313e-16
1.63015e-14
-1.4544e-15
1.65491e-14
-2.57481e-15
1.70017e-14
-3.42518e-15
1.73272e-14
-2.74467e-15
1.75072e-14
-1.45691e-15
1.76494e-14
-7.76981e-16
1.79512e-14
-5.26638e-16
1.79971e-14
-7.03873e-16
1.80248e-14
-8.96664e-16
1.84787e-14
6.24376e-19
1.92762e-14
6.66984e-16
1.95524e-14
7.34564e-16
1.86839e-14
1.79634e-16
1.74561e-14
7.36343e-16
1.70674e-14
1.03437e-15
1.74983e-14
3.6617e-16
1.74285e-14
4.26844e-17
1.68668e-14
7.6705e-16
1.68367e-14
9.4849e-16
1.67694e-14
7.7565e-16
1.63957e-14
6.3476e-16
1.57335e-14
1.63631e-16
1.51067e-14
1.77667e-16
1.54086e-14
8.17416e-16
1.58812e-14
1.1526e-15
1.55754e-14
1.66018e-15
1.51695e-14
1.55087e-15
1.57029e-14
6.14685e-16
1.61875e-14
3.10432e-16
1.62397e-14
1.07965e-15
1.57926e-14
1.76356e-15
1.62677e-14
1.17059e-15
1.63475e-14
1.12282e-15
1.46713e-14
1.7385e-15
1.32074e-14
1.57818e-15
1.32958e-14
-5.50858e-16
1.40925e-14
-1.88362e-15
1.48329e-14
-7.89904e-16
1.6438e-14
-6.63007e-16
1.67186e-14
-4.65117e-16
1.45407e-14
7.4776e-16
1.34411e-14
7.76967e-17
1.44921e-14
-9.49832e-16
1.67935e-14
-1.29341e-15
1.87911e-14
-1.08312e-15
1.94821e-14
-3.54542e-16
1.93591e-14
2.37778e-16
1.84395e-14
1.46112e-15
1.69952e-14
1.24762e-15
1.52787e-14
4.61153e-16
1.50363e-14
-5.36887e-16
1.60448e-14
-1.43207e-15
1.61675e-14
-9.88468e-16
1.68418e-14
-3.74182e-16
1.8146e-14
-8.48686e-16
1.86875e-14
-5.78135e-17
1.90142e-14
9.19632e-17
1.9051e-14
1.52862e-15
1.97642e-14
5.11732e-16
1.97852e-14
-7.70269e-16
1.92928e-14
-1.07923e-16
1.93194e-14
-6.18783e-16
1.90792e-14
-2.05795e-15
1.83902e-14
-1.52162e-15
1.85593e-14
-4.75385e-17
1.9251e-14
9.38506e-16
1.93731e-14
1.48994e-15
1.99304e-14
9.1701e-16
2.0482e-14
3.65625e-16
2.05662e-14
9.9226e-16
1.9681e-14
1.63458e-15
1.83763e-14
-2.87178e-16
1.71568e-14
-1.98235e-15
1.60648e-14
2.95744e-16
1.73218e-14
1.09513e-15
1.95165e-14
-1.00134e-15
2.02395e-14
-2.55857e-16
2.03964e-14
1.32565e-15
2.11975e-14
-2.80895e-16
2.17174e-14
-1.21604e-15
2.26151e-14
-1.71926e-15
2.27113e-14
-8.19086e-17
2.16787e-14
2.23889e-15
2.26201e-14
6.33781e-16
2.30048e-14
-6.31317e-17
2.31432e-14
1.0705e-16
2.21396e-14
6.72769e-18
1.96974e-14
7.40247e-16
1.91929e-14
4.40036e-17
2.02365e-14
-5.59794e-16
1.9805e-14
-3.75915e-16
1.87396e-14
-3.46145e-16
1.82442e-14
-7.05584e-16
1.94676e-14
-1.96071e-15
2.30973e-14
-1.61744e-15
2.40468e-14
2.41263e-15
2.19303e-14
2.52416e-15
2.16659e-14
-4.16142e-16
2.1917e-14
1.02012e-16
2.14217e-14
7.81484e-16
1.97841e-14
2.67049e-15
1.91882e-14
2.8664e-15
2.09621e-14
-6.36063e-16
2.26438e-14
-3.68047e-15
2.30975e-14
-3.01519e-15
2.41027e-14
-4.88474e-15
2.48175e-14
-4.85794e-15
2.73712e-14
-5.96149e-15
2.83698e-14
-3.53846e-15
2.76419e-14
-3.26621e-16
2.63179e-14
1.33979e-15
2.50966e-14
1.78509e-15
2.53985e-14
1.63727e-15
2.57073e-14
9.4475e-16
2.48778e-14
1.32028e-15
2.43549e-14
1.65814e-15
2.46176e-14
-6.04586e-17
2.45689e-14
-1.25102e-15
2.40331e-14
2.27912e-16
2.45108e-14
1.2391e-15
2.57527e-14
5.83872e-16
2.55763e-14
8.06199e-16
2.39747e-14
2.03212e-15
2.41532e-14
5.12291e-16
2.70219e-14
-1.86912e-15
2.94469e-14
-2.12615e-15
2.96228e-14
-2.46761e-15
2.82988e-14
-2.4894e-15
2.68298e-14
-7.77023e-16
2.69877e-14
-1.65979e-16
2.64744e-14
-2.28759e-15
2.53533e-14
-8.87657e-16
2.67559e-14
-8.57278e-17
2.90364e-14
-1.38163e-16
3.01687e-14
1.60062e-15
2.8582e-14
4.26502e-15
2.61662e-14
2.48595e-15
2.57734e-14
-1.00148e-15
2.52816e-14
-1.90031e-15
2.55935e-14
-2.06005e-15
2.61489e-14
-2.21902e-15
2.62693e-14
-2.63365e-15
2.58244e-14
-1.48064e-15
2.63047e-14
8.49512e-16
2.72056e-14
2.66177e-15
2.79534e-14
1.30646e-15
3.06731e-14
3.63556e-16
3.09431e-14
3.43202e-15
2.93003e-14
2.71174e-15
3.15102e-14
-7.8392e-16
3.29931e-14
-2.36517e-17
2.95524e-14
7.2171e-16
2.57442e-14
-6.15665e-16
2.54539e-14
-1.73522e-15
2.71302e-14
-1.99808e-15
2.9252e-14
-2.25618e-15
3.15154e-14
-1.70758e-15
3.15717e-14
8.63149e-16
2.93319e-14
2.99049e-15
2.93195e-14
1.89067e-15
3.01383e-14
9.09282e-16
2.9386e-14
1.84332e-15
2.60619e-14
3.34728e-15
2.39605e-14
8.92449e-16
2.56836e-14
-2.57908e-15
2.86647e-14
-2.938e-15
3.0742e-14
-1.49359e-15
2.97644e-14
-3.53958e-17
2.63267e-14
-1.01969e-15
2.37604e-14
-4.38423e-15
2.40426e-14
-3.76615e-15
2.55018e-14
-5.97646e-15
2.67121e-14
-2.41647e-15
3.07304e-14
2.08343e-16
3.52349e-14
-8.8108e-16
3.73085e-14
-2.67363e-15
3.76202e-14
-3.1746e-15
3.7369e-14
-3.46777e-15
3.72693e-14
-7.86305e-16
3.515e-14
3.45719e-15
3.2268e-14
3.93445e-15
3.20105e-14
2.6033e-15
3.27039e-14
5.00676e-15
3.17725e-14
5.98341e-15
3.01954e-14
1.56087e-15
2.98196e-14
-1.09664e-15
3.0008e-14
-6.14113e-16
3.06701e-14
-3.26312e-15
3.09959e-14
-4.3473e-15
2.98073e-14
-4.23501e-15
3.0515e-14
-2.16267e-15
3.25016e-14
5.2086e-16
3.41092e-14
-6.9082e-16
3.4177e-14
-1.56275e-15
3.39671e-14
-2.11882e-15
3.76989e-14
-5.14621e-15
4.07135e-14
-6.14e-15
4.10593e-14
-2.72935e-15
4.22968e-14
-1.72505e-15
3.90474e-14
-1.05257e-15
3.49393e-14
1.7744e-15
3.66425e-14
1.57847e-15
3.65721e-14
3.04636e-16
3.22551e-14
1.48964e-15
1.17805e-15
2.27066e-16
4.40031e-16
3.73632e-16
4.53519e-16
4.61687e-16
5.92199e-16
5.76101e-16
5.09957e-16
7.35114e-16
5.50526e-16
8.05655e-16
5.46409e-16
9.50055e-16
4.18878e-16
1.07652e-15
5.21001e-16
1.14771e-15
4.13723e-16
1.15307e-15
5.00657e-16
1.18922e-15
5.66491e-16
1.30126e-15
6.2366e-16
1.29973e-15
7.66042e-16
1.47474e-15