/*--------------------------------*- C++ -*----------------------------------*\
  =========                 |
  \\      /  F ield         | OpenFOAM: The Open Source CFD Toolbox
   \\    /   O peration     | Website:  https://openfoam.org
    \\  /    A nd           | Version:  7
     \\/     M anipulation  |
\*---------------------------------------------------------------------------*/
FoamFile
{
    version     2.0;
    format      ascii;
    class       volScalarField;
    location    "2000";
    object      rho;
}
// * * * * * * * * * * * * * * * * * * * * * * * * * * * * * * * * * * * * * //

dimensions      [1 -3 0 0 0 0 0];

internalField   nonuniform List<scalar> 
160000
(
23.2846
23.2888
15.3268
17.1111
15.3288
14.7995
19.8986
29.5051
20.1489
19.8035
18.7726
17.3623
16.4136
21.4968
20.3428
17.8422
17.8452
20.5841
28.2162
26.8995
16.4232
16.4259
21.6731
20.2653
14.2634
14.2658
23.9662
23.9709
23.9733
23.9779
23.9796
15.5245
15.5267
15.5294
15.5316
15.9403
26.7793
26.783
26.7865
26.7901
13.8039
13.806
16.0708
25.7863
25.7896
25.793
25.7964
16.0298
16.0319
16.0341
16.3521
26.3518
26.3545
26.3603
26.3604
25.7792
18.0808
18.0833
18.3793
21.2582
21.2621
21.2632
21.2674
21.2679
21.2714
18.3002
17.0793
17.0813
17.0832
21.7739
21.8009
21.8017
21.8059
21.8065
21.8111
21.8113
21.8149
21.8164
21.8198
21.8208
21.8235
21.5903
20.3611
20.3631
20.4814
20.4831
19.6132
19.3912
19.3932
18.5754
18.5781
21.319
21.325
21.3229
20.7389
20.7392
22.0894
22.0907
22.0931
22.0942
22.0972
20.6918
20.709
20.7106
21.5906
19.5687
19.5703
22.9979
23.0026
23.002
23.0061
23.0057
23.008
21.0709
21.0724
19.8885
19.89
24.0078
24.0093
24.0121
24.0132
24.0153
24.2957
24.2973
24.2988
23.6755
19.4581
19.4591
19.4601
18.1274
18.1286
18.1297
25.3582
25.3597
19.8895
18.7304
18.7338
18.7333
18.7361
18.7366
20.6288
19.0858
19.087
23.3102
23.3069
23.3126
23.3094
23.3182
20.798
20.2497
21.4727
21.4742
21.4756
19.8077
19.8092
23.0089
23.0143
23.0112
21.3956
19.5376
19.5385
19.8597
19.2113
17.8921
17.8931
21.9618
21.9643
21.9638
21.9683
21.9657
21.9725
21.9673
19.901
19.7652
19.766
19.8886
22.6701
21.5345
21.3525
21.3534
21.3542
22.2512
22.2484
22.2536
24.1692
25.4649
23.2404
19.8064
19.8078
19.8124
16.8
16.6296
16.6893
16.6906
16.692
16.6933
21.9031
16.5586
16.1834
16.1774
16.1849
16.1831
16.1881
18.426
23.3673
23.368
23.3688
23.3611
21.5447
22.3286
22.3301
19.6605
19.662
21.0839
21.0845
21.0855
21.0865
22.3594
22.357
22.3621
22.3582
19.6194
19.6203
24.8991
26.6751
26.6831
26.6767
23.4285
19.244
19.2456
19.2436
24.2343
23.9391
23.9387
23.9381
22.2353
20.2049
20.8061
20.8048
21.3996
21.4016
22.7663
25.0821
25.0812
25.1992
22.9674
22.4146
18.2284
14.6218
14.6142
14.6226
14.6228
14.6267
15.4212
19.2825
20.0041
20.0016
18.322
18.318
17.4572
17.4526
17.458
17.457
19.8223
23.1833
23.1881
23.185
23.1891
23.1859
23.1922
22.6235
20.2368
20.1789
18.2671
18.3365
24.1853
28.0198
28.0179
22.5724
17.9145
17.9149
21.901
21.9007
21.7559
17.9061
17.9135
17.9049
17.9148
20.3776
21.9627
21.9661
21.9645
26.1031
26.105
26.1069
26.1085
22.522
22.5228
27.4669
23.1581
13.6601
13.5381
13.5203
13.5385
13.5261
13.5427
13.544
13.7119
14.0587
18.5472
21.5587
21.558
22.1618
22.1638
17.4602
17.1048
17.0996
17.1054
19.4304
23.8172
23.1651
23.1648
26.1861
26.1863
26.2057
19.4779
17.7523
17.7651
17.7537
17.7658
17.7594
17.7665
17.7602
17.7673
17.7637
17.7679
18.5163
22.9416
13.3929
11.4538
11.4573
11.4558
11.4569
11.4566
30.7079
35.2065
35.224
35.2065
35.2266
29.3478
22.4694
20.7637
24.0401
24.0406
24.0483
24.0416
24.051
24.0427
21.133
21.0808
21.0814
24.0211
24.0478
24.0461
24.0609
22.1204
21.861
21.8619
21.8611
21.8609
21.346
20.9453
20.4695
19.9293
19.9301
20.4658
20.466
23.0842
23.0824
23.367
23.3676
23.3681
23.4188
23.418
23.424
23.4177
21.1638
20.538
20.5386
20.9144
20.9412
19.7033
19.652
14.6571
13.3225
10.1797
6.72542
6.72865
6.72866
6.72985
17.8712
17.3435
28.3731
14.9844
14.9872
15.833
18.5334
18.5365
19.2749
19.2593
19.2629
20.5226
22.3135
22.3181
22.321
20.7573
17.8451
20.5841
19.6111
16.4207
16.4235
21.6698
21.6732
21.6765
16.672
23.9622
23.9672
23.9697
23.9746
23.9763
18.338
15.8668
16.0756
15.5293
15.5318
26.4815
26.5943
20.2786
26.7865
18.1252
13.804
13.806
14.8425
25.1797
25.7894
25.7929
25.337
18.8302
16.2164
16.0341
16.0364
24.7352
23.4549
22.368
22.3735
25.6319
24.1954
20.6801
21.2558
21.2593
21.2607
21.2648
19.9156
21.2682
21.2702
17.7754
20.9052
21.7682
21.7708
21.7732
18.1253
17.8364
17.8378
20.4101
18.9913
18.9936
18.9945
18.9975
21.698
21.8978
21.3656
20.1921
21.1961
21.2616
21.2636
20.2784
19.6128
21.3119
21.3133
21.3184
21.3172
21.3222
21.321
21.3276
21.2923
21.294
20.3653
20.2064
18.1696
18.1715
18.1725
18.1745
22.4082
26.2549
22.1105
21.9312
21.9329
19.8183
19.7994
19.8032
19.8025
19.8062
23.0793
23.269
24.0015
24.0031
24.0058
24.0069
24.0104
24.011
23.205
20.2506
20.2518
20.2534
20.2546
21.3441
19.8978
20.6418
21.1673
18.1273
18.1286
19.3192
25.3582
25.3603
25.3613
25.3645
26.3604
20.4548
19.0124
22.0784
23.3019
23.3028
23.3079
23.3055
23.3109
21.6299
20.7657
19.9314
19.9342
20.2501
18.9973
18.9985
21.6357
23.0074
23.0077
23.0121
23.0102
23.0139
19.6396
19.9075
19.9087
19.862
17.8912
17.8922
18.2214
21.9629
21.9628
21.7402
20.7119
17.8123
17.8156
17.8143
18.4972
23.0526
23.0567
25.5634
24.1452
22.3881
23.6511
21.7377
22.0339
22.0332
22.0379
23.7965
25.465
25.4677
24.7249
20.6207
25.47
25.481
25.4719
16.5916
16.5943
17.427
17.5596
21.9024
21.9047
17.4824
16.1759
16.1834
16.1835
16.1867
16.9493
21.7172
23.3672
23.368
20.9447
18.7562
18.7564
18.7571
18.7559
18.7566
22.1631
22.8531
22.8541
22.9614
23.384
18.6199
18.6219
18.6221
18.623
18.7049
23.526
26.6745
26.6817
26.6771
26.6885
26.6784
26.6905
26.6797
26.6884
26.6794
22.0926
17.3387
17.3439
21.4511
19.2128
19.2138
19.2144
19.2151
19.2155
23.8864
26.7438
26.7457
26.3179
27.6824
27.6771
16.5912
14.6099
14.6188
14.6148
15.5078
17.1794
17.1797
18.3529
18.8607
18.8612
20.2183
17.4578
17.451
17.4565
17.4559
21.4177
23.1816
23.186
20.6861
20.6904
23.1854
23.1918
23.1862
19.701
17.2006
17.2009
17.2012
19.2768
27.2607
28.0246
21.3808
17.9142
17.9117
20.8026
21.9004
18.8865
17.9035
17.9133
17.9045
17.9138
17.9135
18.7874
20.2192
22.3625
26.0986
26.1003
21.234
21.2342
30.0069
30.0056
28.5551
30.0057
30.0216
14.5922
13.5182
13.5342
13.5323
13.5802
14.4648
16.9679
19.3401
19.5652
21.3201
22.1621
22.1616
22.1638
20.9482
17.1045
17.0985
17.1043
18.4856
24.1101
26.0501
26.0519
26.1816
26.1814
26.2032
26.1821
20.6705
19.3634
17.7566
17.7657
17.7627
22.2131
22.6296
18.9532
18.485
17.7678
17.7653
20.7811
24.6087
20.6227
17.6786
19.742
17.752
11.715
17.7579
35.2041
35.2197
29.9758
18.823
18.8123
18.8231
18.8188
19.0777
23.7074
24.0428
23.9089
23.9147
24.0426
24.0489
24.0439
24.0475
24.0451
24.0479
24.046
24.0586
24.0468
24.0719
24.0474
19.3808
19.3774
19.3809
19.3779
19.3812
19.3811
19.9293
21.5689
21.5709
23.3634
23.3651
23.366
23.367
23.3671
23.2433
23.4181
22.0699
22.0699
22.0812
21.1592
21.2515
24.1176
24.1147
22.7347
22.7551
22.7551
18.0197
17.7482
13.2337
6.72503
6.72841
6.72953
6.73009
17.8711
20.401
28.3731
28.378
26.147
18.2408
22.0972
22.1009
19.9592
21.365
21.3689
21.3728
21.4643
22.3171
22.3219
22.3246
21.9008
16.2524
17.3198
19.9159
19.9192
19.6664
19.6696
20.2997
23.9585
23.9625
23.9658
23.971
23.9729
22.3435
20.669
20.5695
18.0625
15.5297
15.5319
22.785
23.9079
20.2781
20.2812
20.3983
22.2609
21.9252
20.1192
21.4168
16.7864
16.6888
18.5118
20.1751
20.1779
20.1803
18.8685
18.8706
21.0974
24.5853
25.0986
25.4126
25.0421
21.4932
18.1578
18.16
19.3998
21.2631
18.9533
15.5841
17.3504
17.3528
17.3545
17.3569
18.0632
21.773
21.7747
20.9225
17.8383
17.8399
21.8856
21.888
21.8915
21.8929
21.8964
21.8978
22.6819
18.0223
17.9694
17.9711
21.2641
21.0232
22.44
19.446
17.4482
19.3671
19.8558
19.5633
19.8892
19.2721
19.2752
20.6049
20.678
20.6798
20.6818
20.6836
23.8905
23.8929
22.4075
26.256
26.2584
19.0288
18.9544
18.9559
22.4559
22.4575
22.4595
22.461
22.4635
21.8855
22.2608
22.2622
23.7002
21.369
18.1115
18.1134
18.1144
21.1159
21.1962
21.1972
20.3338
20.3355
21.4371
21.7994
21.8009
21.8022
22.7894
22.7951
22.7929
22.7984
23.3721
23.3732
26.3614
25.7314
20.6133
20.1323
23.3011
18.7336
18.7316
21.9442
21.6049
21.6066
22.3172
21.3402
19.9329
20.5046
21.6327
21.6338
21.6351
20.8839
18.7823
18.7835
23.0115
19.6636
18.2383
18.2394
19.9091
23.9526
23.9575
23.9548
20.5136
19.62
19.6214
20.5661
23.4752
17.8432
17.808
17.8164
17.8099
17.818
17.8182
25.8384
25.8386
25.8414
25.8406
25.6097
21.4534
18.7996
22.1528
25.0697
25.0704
25.4667
25.4731
25.4699
25.4836
25.471
12.9527
12.9537
17.4051
19.0396
19.8296
21.9031
21.9032
21.6483
17.0138
16.183
16.8853
19.6203
22.3405
18.8094
18.5743
18.5748
18.5755
19.6744
19.9024
19.9016
19.5917
22.5703
23.7496
22.6019
22.6048
23.7513
23.7527
22.1004
18.6216
18.6225
23.1766
26.6716
26.6725
26.6793
26.6751
26.6822
26.6767
26.6836
26.679
26.6898
26.6789
26.682
17.3361
17.3422
22.3489
19.1934
19.1942
19.5434
24.4829
25.3073
25.3083
25.309
25.3097
26.7477
27.6931
27.6879
22.4336
14.6063
14.6181
14.6109
14.8758
16.5872
16.9182
16.9184
18.8124
20.634
21.1635
22.0538
22.051
18.5427
17.4559
20.9154
23.1808
23.1839
23.182
23.1849
23.1823
21.8452
19.0025
19.006
20.7474
25.9874
25.9883
25.9892
26.0525
27.3616
28.0292
17.9141
17.9076
17.9136
17.9058
17.9141
17.908
17.914
17.9122
21.7841
24.0633
24.0643
24.0645
24.2386
24.4867
24.4873
25.2834
29.9989
30.0223
30.0053
30.0391
30.006
30.034
30.006
15.7916
13.5385
13.5338
18.0926
25.4394
25.7963
18.6078
18.4743
18.4746
21.8518
22.161
20.3218
18.7615
17.1053
17.0996
17.1048
21.6164
25.1544
25.1553
25.156
26.1772
26.1767
26.1982
19.1668
17.5769
17.5754
17.7377
17.7675
17.7655
18.8672
22.63
22.6314
21.5937
21.2209
21.1913
21.2115
26.9978
33.754
33.757
32.6951
25.5771
20.7608
23.4967
24.3654
20.6107
18.8161
18.8228
18.8101
18.823
19.1881
23.4247
23.6049
23.6081
23.4146
23.4214
23.9858
24.0437
21.2451
19.5172
19.5198
22.5578
24.0452
24.0568
24.0461
24.0548
20.4444
27.9114
30.7237
27.4491
34.3397
38.2048
38.1975
21.4343
17.5562
17.5682
17.5574
17.5682
17.5649
21.0279
21.9541
20.3334
23.2451
23.6045
23.5982
23.0614
23.4812
24.1204
24.1192
24.1185
20.3966
21.4462
22.7551
22.7552
22.755
21.6381
12.395
6.72505
6.72928
6.72981
6.73037
19.2901
20.273
22.7023
22.9969
22.2005
22.094
22.0975
21.8919
19.018
17.9784
17.9816
18.311
18.5274
21.2325
22.3208
18.0455
17.1938
16.2525
18.3431
19.301
19.9191
19.9224
19.81
20.2995
19.8717
19.8746
23.5978
21.9047
15.4742
15.5841
21.3345
22.529
22.9209
23.0686
23.0722
23.0755
20.1125
20.1154
23.5334
23.535
22.9498
20.8908
20.0265
19.5031
17.3161
16.6885
16.691
16.693
17.7556
20.1808
20.1831
20.1878
18.7441
18.8359
16.9571
16.9591
17.3635
18.7316
20.5306
21.0042
21.0068
21.0096
14.6261
15.584
18.5595
20.7888
22.0123
27.6705
27.676
19.5448
19.5493
19.6016
21.7356
23.8374
19.3213
16.0963
16.0968
16.0997
16.1002
18.8175
22.8309
22.8329
22.2933
22.4263
22.4355
22.438
22.4404
22.4428
17.4472
17.2235
17.2251
19.5646
19.5655
19.2735
20.7605
20.7173
13.7984
16.203
20.6815
20.6835
19.0167
28.1294
28.1317
26.2551
27.965
24.5682
19.7368
18.9559
20.7174
20.0302
20.2228
22.4617
19.6893
18.2537
22.2033
23.5024
23.5049
21.2892
18.1121
18.1128
18.2285
16.8917
16.8059
16.8078
20.384
20.3846
20.3911
20.3897
20.4174
20.8809
19.755
20.8984
20.8382
27.6243
31.598
31.5989
29.7424
18.58
17.9575
17.9555
17.9597
17.9575
22.7543
22.7549
22.7623
22.7574
22.7648
22.7599
22.7623
22.7621
18.3724
18.0187
18.0195
19.5864
22.7976
23.9471
23.9467
23.9499
23.9492
23.953
23.9515
23.9575
23.9538
22.5923
16.3522
19.6208
27.7033
31.0977
31.1103
31.0981
31.1142
23.8395
23.8396
23.3426
19.6288
19.6304
19.6323
19.6332
22.6654
25.5144
17.7565
16.8489
19.8098
25.3515
25.4651
25.4693
25.4677
25.4807
20.3207
12.1047
12.1052
16.6332
18.1177
18.1204
17.465
17.4671
20.8675
21.6462
21.3266
19.5017
16.3226
19.6065
25.5138
26.3366
26.3381
23.6559
18.6432
18.5359
18.5362
18.5371
19.9743
23.7486
23.7484
23.7515
23.7506
23.7529
23.7529
22.9304
21.2849
24.0003
26.6705
26.6704
26.6744
26.2853
20.1111
19.3885
19.6126
21.6821
24.3188
26.1283
26.5201
20.1784
14.7385
17.5239
29.4681
31.0619
31.0631
31.0642
21.9856
18.5725
18.5733
19.0491
25.6834
27.7043
27.6986
27.6937
17.5562
14.6174
14.6087
14.6185
16.1036
16.2228
16.2232
17.4764
21.8945
22.0498
22.0547
22.0506
22.0581
22.0515
21.6421
23.18
23.1834
23.1812
20.9699
17.3965
20.0781
28.3813
28.3827
28.3824
26.3224
20.3268
20.3279
20.3275
24.3854
28.6023
28.6151
28.6029
21.7319
17.9083
17.9139
17.9127
18.813
19.3572
19.3598
19.3585
19.5443
22.1599
24.0646
21.9692
21.1951
23.4319
29.9979
30.0174
29.9993
30.0304
21.5813
20.7311
22.0541
19.5135
15.9516
20.2235
27.0205
30.4507
30.4473
30.4512
30.4472
24.8245
19.3526
18.1598
18.1605
19.1206
24.1957
22.6812
17.2975
17.1034
17.106
17.1051
20.9325
26.1687
26.1713
23.2657
18.182
17.5758
17.5737
18.6325
20.4835
23.1167
23.1541
21.2494
19.5408
22.3956
26.7018
32.5025
33.7513
33.7654
33.7538
33.7858
33.7542
28.0971
21.1236
20.7622
21.694
24.3725
24.3674
24.3731
19.6676
18.8229
18.8191
18.8231
19.1831
19.3213
21.9156
23.6603
23.6598
23.6609
23.6603
23.9796
23.9885
23.9798
23.9888
20.7843
17.226
19.6276
20.0568
15.8311
19.9803
35.5426
38.1969
38.2031
38.1978
38.2038
33.3506
20.0752
17.5583
17.5682
17.5607
17.5683
22.9107
20.5078
20.3293
20.3335
23.5986
23.6074
23.5991
23.6086
24.1214
20.0395
17.8033
17.8066
17.8054
17.8067
20.5925
22.7551
22.4446
18.2978
13.9338
7.8489
6.73037
6.73047
20.0082
25.8979
23.8359
20.5625
20.4981
19.9445
19.2815
19.3938
17.2223
17.2254
18.3125
18.3109
21.4053
17.2077
17.2108
20.2778
20.2814
20.285
20.2886
18.6289
18.6321
18.7068
19.0843
19.3014
19.3042
20.5906
23.5973
20.2276
14.6732
14.2701
14.2721
14.2746
19.2549
14.2793
21.0974
25.0388
25.0412
25.045
23.5341
21.965
21.968
21.1279
18.406
18.4086
21.0166
21.0686
19.1654
19.168
18.793
18.7953
20.1835
18.5363
18.004
18.0062
21.0449
21.0475
19.3421
19.5313
19.0756
19.0778
20.5046
16.547
14.4823
14.4836
14.4858
14.4877
14.4896
25.7436
27.6742
27.6797
27.6789
27.6842
27.6834
23.8684
21.9452
16.9984
16.098
16.0993
16.1014
16.1026
16.1048
22.8341
22.8361
22.8393
22.1369
20.7217
20.7237
21.6112
21.613
21.6148
18.439
18.6434
21.0653
21.066
20.861
18.3952
12.111
12.1124
12.1134
12.1152
12.1169
19.4336
30.1012
30.1009
30.11
30.1052
30.1134
24.2034
22.4835
20.0301
17.8431
19.4414
18.1755
17.82
17.8182
17.8227
22.8496
22.8503
20.0337
19.6837
19.854
17.6657
18.4023
20.2196
18.6327
18.6343
18.6343
20.4122
20.4174
20.132
14.6474
12.1111
12.1107
12.1126
25.4234
32.0006
31.9987
31.9999
31.9997
27.8318
19.4504
17.9608
17.9612
17.9635
22.0118
21.4187
21.4184
22.7606
22.7609
22.7632
21.9633
21.9171
21.9173
20.707
17.9489
17.9467
17.9509
17.9497
20.6847
23.9504
23.9585
17.8034
11.2728
11.2739
11.2742
11.2764
11.2769
26.583
31.0965
31.1097
31.098
28.3024
23.2499
22.3502
22.3511
22.3472
21.2814
21.5798
21.8477
24.1215
24.1175
16.8475
16.8439
16.8444
21.742
25.4663
25.4786
20.0363
12.0984
12.0984
13.5333
16.1109
17.7469
17.4642
17.4664
17.4659
20.6254
21.6441
18.4926
14.0171
13.2467
17.4598
25.9376
26.3378
26.3374
25.0323
20.5736
20.3385
22.0619
23.519
23.7452
23.745
22.9511
19.1777
19.1789
20.6164
24.7188
24.8015
24.8012
24.8044
24.804
21.2263
21.0183
19.3945
19.3879
19.3886
21.758
24.3353
24.3356
23.3479
18.7878
12.9576
12.9581
12.9586
23.3132
31.0624
31.0636
31.0647
31.3006
31.2999
31.3116
31.2967
31.3094
28.6225
17.8431
14.6095
14.6179
14.6069
14.6181
15.8898
18.5355
19.411
20.0681
21.6406
22.0493
22.0531
22.0502
22.0535
20.4691
18.0065
18.0089
18.4559
20.335
15.8034
11.6588
11.6598
11.6604
27.5001
28.3819
28.3831
27.6396
21.4406
21.0188
28.5468
28.602
28.6166
28.6027
22.7899
17.9112
17.9145
17.9137
20.1737
19.2288
19.2295
19.6435
20.2747
20.2756
20.2764
19.1711
19.1715
21.1958
28.7118
30.0129
29.9978
30.0196
20.0566
12.5997
11.3777
11.3799
11.3792
11.3803
20.3615
30.4492
30.4492
27.1519
24.6535
24.6537
24.654
27.7801
27.7774
26.4022
26.3996
26.3981
26.3947
25.8498
25.162
25.1643
23.5269
18.9678
17.5687
17.5761
17.5638
17.5756
17.5668
17.5759
21.0675
23.1531
23.1538
23.1546
12.9243
11.7125
11.7128
11.713
11.7132
18.3432
31.856
33.761
33.754
32.9745
30.3699
32.3287
32.3226
22.2658
18.6709
18.6737
18.6711
20.8687
22.4645
22.4654
21.768
23.7354
23.7325
23.3924
20.2551
20.0278
22.1059
23.9795
23.9809
23.9797
23.9882
23.9799
20.0876
15.2558
10.3907
9.1745
9.1752
9.175
22.0663
36.4519
36.439
38.2037
38.1984
33.1258
17.59
17.5699
24.5053
24.4988
23.3957
23.594
23.5925
23.6013
23.5941
23.6112
23.4332
20.6219
23.98
24.4266
24.416
24.4225
24.0773
20.6187
17.8054
17.8094
17.8081
17.9367
20.6702
16.3843
8.41713
6.73128
6.7316
17.5229
26.0839
20.6582
18.3774
18.5799
21.0878
19.1988
19.2022
20.6155
21.4318
21.4354
21.4025
21.4057
20.9965
21.0001
19.2293
19.2324
19.9088
20.2887
20.3701
22.05
18.1017
15.9281
15.9306
20.1205
18.234
18.2368
18.4207
19.1795
17.8609
14.2719
14.2743
14.2769
14.2792
24.1422
25.0385
25.0437
25.0445
25.0498
25.0506
25.0543
24.6892
20.192
21.0632
21.0659
21.0686
18.9102
18.9127
19.7862
19.547
17.6266
17.6289
19.7701
19.7727
19.7752
21.0476
21.0501
20.6914
19.9302
19.9326
18.4362
17.9385
15.9013
14.4841
14.4856
14.4877
14.49
18.3213
27.677
27.6762
27.6817
24.6244
19.9571
19.9571
21.9439
21.9448
19.5425
18.2729
16.7847
18.6675
20.1262
20.1272
20.1311
21.604
23.2002
23.2026
23.2049
23.2072
17.9215
16.8665
16.8682
21.0635
21.0645
18.4233
15.6229
12.1205
12.1113
12.1121
12.1137
12.115
12.1165
27.4069
30.1008
30.1072
30.1031
28.5984
22.8899
24.2028
24.2035
19.6567
17.1205
17.1223
18.7206
22.5552
21.0935
17.8212
17.8245
20.8425
25.6246
25.6268
25.6291
25.6312
22.5591
22.5611
21.4837
19.3202
20.3214
19.8188
17.6571
12.1643
12.11
12.1089
12.1112
12.1117
29.2586
31.9993
32.0117
32.0004
32.005
28.3499
21.5638
19.6628
22.4023
18.687
18.6887
20.5257
22.7588
22.7595
18.8338
18.8347
19.8303
21.9162
21.9165
21.8733
21.6607
19.2934
19.837
23.3178
23.9493
23.9574
23.9515
20.4435
11.2731
11.2727
11.2745
11.2751
11.2768
19.7348
31.0953
31.0968
30.3989
29.0724
29.112
29.1125
22.3204
22.3212
22.8767
22.8651
24.119
24.1204
23.0741
16.9902
17.5102
24.7254
24.7227
18.2217
12.0848
12.0938
12.0908
14.3536
19.3792
20.7127
19.353
17.4671
17.4649
17.4671
18.9488
16.0635
13.2455
13.2461
13.2467
16.7468
25.5196
26.3375
25.8434
23.8121
23.7793
22.7533
21.5603
21.5609
23.7434
23.7459
19.2834
19.1783
19.1783
19.3336
21.9485
19.0515
17.505
17.5043
17.506
17.9327
21.3403
23.888
23.889
23.8901
23.8912
24.335
24.336
16.414
12.9566
12.9577
12.9581
12.9585
19.52
29.0813
30.8455
31.3019
31.2993
31.317
23.2457
23.2534
23.9952
16.0345
14.6161
14.6219
14.6584
15.2869
15.287
15.5695
19.2238
23.1108
23.2266
23.2271
20.3018
18.3901
18.3876
18.3909
18.39
22.25
24.6721
24.6759
20.6988
11.6583
11.6588
11.6591
11.66
21.1775
27.7597
27.6082
27.6071
26.6005
26.9899
28.6016
28.6161
28.6025
20.2793
19.5702
19.5697
22.4017
25.4173
25.4234
25.4221
25.4241
21.3618
18.0122
18.0147
22.2499
24.4594
24.4614
24.4993
27.9843
14.0564
11.381
11.3758
11.3799
11.3759
11.3797
11.3779
11.3794
11.3783
17.8163
30.4489
30.4498
30.45
29.3126
25.684
27.5572
30.462
26.7352
17.5391
17.4848
17.4757
17.4853
17.4763
17.4858
21.3891
24.8532
24.8543
24.8537
20.3277
17.5762
17.5737
17.6527
21.0439
22.7234
22.7221
22.726
23.1554
15.31
11.7112
11.7127
11.7129
11.7131
18.7186
31.1309
31.1176
31.1225
31.1194
32.3269
32.324
25.6548
22.2637
24.2638
24.2593
18.6825
18.6876
21.9291
23.7321
23.738
23.7324
23.7447
23.4263
20.0277
20.0287
20.028
20.0288
20.0269
20.0289
20.0288
22.5474
21.8587
12.2442
9.17168
9.175
9.17456
9.17501
16.4394
37.4054
38.2057
38.1983
38.2065
38.1991
38.2254
38.1985
35.5761
22.5439
21.5566
21.556
20.6499
19.1591
19.1592
19.1592
20.6228
20.6219
20.6219
24.416
24.4269
24.416
24.4292
24.4149
24.4273
24.4144
21.757
21.7509
21.7553
19.3357
8.55479
6.73263
6.73212
21.1414
19.6413
18.3738
18.3775
21.5915
21.0879
19.1988
21.3412
21.4282
21.4318
21.4355
21.2777
17.9181
17.9213
18.9668
18.97
20.6607
21.0358
21.4286
22.0464
22.0505
18.1013
18.746
21.3115
21.3145
21.3184
19.9538
19.6225
19.1795
19.2302
14.2718
14.2747
14.2769
14.2793
25.0351
25.0407
25.0418
25.0483
24.7943
25.0507
25.053
24.9586
20.1921
20.6226
19.0308
19.0332
19.348
19.7835
19.7858
19.789
19.791
19.4728
19.77
19.7726
19.6778
21.0476
21.0501
18.3777
18.164
18.1662
18.1683
19.2271
16.045
14.4838
14.486
21.8131
15.4601
27.6719
27.6746
27.6802
27.6794
27.6884
27.6848
27.692
18.6122
18.6176
19.263
17.3239
16.6456
16.648
16.6493
16.6515
20.1614
23.1975
23.1998
21.0944
19.1646
19.0079
19.0096
19.011
17.3021
21.0626
21.0658
15.6333
15.3974
15.3985
19.1199
19.122
12.1138
15.1786
12.2049
30.0973
30.105
30.1016
30.1091
29.2125
21.8048
21.8075
24.2029
20.5406
17.1198
21.5841
22.5535
22.5558
22.557
17.8232
21.9472
25.6208
25.6229
22.3966
18.745
18.7463
18.7476
22.5609
22.5612
20.799
20.5528
20.2446
18.4999
17.2904
13.3095
12.1112
12.1112
12.1126
28.2443
32.0105
32.001
32.0126
28.6741
21.563
21.5647
22.7712
22.7717
22.7724
22.7727
18.3719
17.4455
17.447
18.122
21.8543
21.8543
21.1513
21.1516
21.5708
18.4936
18.4947
19.4662
23.9471
23.9519
23.9504
23.9585
23.9527
14.6315
13.0034
11.2744
11.2761
11.2771
24.0465
31.0941
31.098
31.0965
30.4562
29.1121
29.1131
29.1132
23.9463
22.8757
22.6572
21.2482
19.7692
17.0685
17.0308
24.7298
24.7267
12.0977
12.0809
12.0891
12.0893
14.2836
16.9133
19.4012
22.6135
25.1054
25.1049
25.1069
22.8378
19.5537
14.1737
13.2451
13.2461
13.2467
15.1564
22.7974
26.3402
26.3403
26.3477
26.3419
23.5466
21.9304
21.9639
21.9654
17.8158
18.7589
20.3945
19.1789
19.1794
21.875
23.0377
23.0354
22.5805
20.7487
19.6729
19.6735
20.6963
23.8888
23.8898
23.8908
23.1761
22.1145
18.5742
12.9567
12.9577
12.9581
12.9586
22.0125
31.2973
31.3119
31.2988
31.3275
31.3
31.3246
30.6543
24.7377
17.0348
14.6251
14.6197
14.6259
15.1139
16.3224
18.8524
22.7443
23.2261
23.2287
23.2261
24.6607
24.6698
24.6764
24.6707
24.6767
24.6717
24.6798
20.6336
14.0321
11.6567
11.6588
11.6591
11.6594
15.9186
24.5503
28.5575
28.5572
28.5604
28.5345
28.6062
28.6022
28.6167
28.6029
27.012
19.6914
18.945
18.9454
19.3565
21.6515
19.2701
17.9504
17.9506
17.9509
19.4137
23.005
23.4373
26.8568
27.9786
27.9744
13.5738
11.3812
12.2958
15.5855
16.1572
12.2148
11.3788
11.3803
15.1537
24.27
29.988
30.4619
30.4604
30.3564
30.4618
30.4746
19.1697
17.4846
17.4811
17.6487
19.626
22.5632
23.6937
23.6946
23.6955
24.4315
24.8548
24.8542
24.8632
23.1615
18.6406
18.6964
22.2724
24.1559
24.1546
24.1548
13.8474
11.7105
11.712
11.7128
11.7131
18.027
32.3228
32.3255
31.1192
31.1242
32.3238
32.3299
32.3242
29.6972
24.4908
21.1844
18.8211
18.6893
19.3499
23.7341
23.7322
23.7381
22.8966
21.5603
21.5602
22.9997
24.9152
24.9143
23.4478
23.5735
25.4319
25.4313
25.4342
20.6949
13.6483
9.17442
9.1752
9.175
19.6518
35.1338
35.1196
38.1434
38.1989
38.213
38.1992
32.5503
20.8046
21.2303
21.7082
21.7081
21.3652
19.1604
19.3045
24.4159
23.7677
20.6219
23.1149
24.4317
24.416
19.0863
19.0401
19.0245
19.0401
19.0255
19.0401
19.037
20.0559
14.6455
6.77283
6.73278
6.73264
18.7826
20.1719
19.1799
21.9631
21.9671
19.4273
19.431
21.0399
20.0274
20.0309
20.2241
18.7361
20.1806
20.1842
20.1876
20.1909
20.6605
19.0384
19.0414
19.2133
22.0507
21.3705
22.2255
19.0562
19.0594
21.3177
21.3216
19.5642
20.0888
19.3477
15.8676
15.4404
20.3356
22.4109
25.0346
24.2256
21.7065
21.7085
24.3332
24.3356
25.0535
25.0558
25.0586
25.0467
25.036
21.6793
21.6824
19.1668
18.4703
18.4723
19.1103
17.8233
17.7935
17.7957
19.0097
19.0117
21.0501
21.0045
21.0067
21.0089
19.9869
19.2272
18.3407
16.2369
18.0606
24.4682
27.669
27.6712
27.6773
27.6766
27.6848
25.6733
19.377
19.378
21.1724
22.1051
22.1073
21.735
21.8188
21.512
19.9108
18.8159
17.7239
17.7259
18.0952
18.097
21.8065
19.0202
18.0669
18.0697
20.3287
21.0634
21.0645
21.0675
21.068
21.0716
19.0614
20.3492
20.351
20.3527
14.942
24.1184
24.627
24.6291
27.2282
28.8237
23.3679
22.6798
17.4866
17.1184
17.1198
17.1211
17.8425
20.9141
22.9968
23.0679
23.0694
18.5777
18.5792
21.2779
22.9752
20.8911
20.7675
18.4429
18.4429
18.4442
18.7433
20.2446
20.2454
20.2466
14.2093
15.2599
27.9241
31.9994
32.0088
31.9997
32.0145
32.0015
24.8948
22.7819
22.783
22.7837
22.3532
22.047
17.4435
17.4445
17.4455
22.5738
22.5725
21.8538
19.9965
19.9976
23.1218
23.127
18.9339
18.4946
20.928
22.522
23.5306
23.954
23.9516
19.7368
18.1565
23.246
23.2455
23.2479
22.1517
31.0828
31.0881
27.8145
27.8176
31.0898
31.0352
21.3607
21.3616
21.3624
22.8767
19.1856
18.16
18.161
22.0217
24.7298
24.7479
23.6882
12.0756
12.0885
12.0825
14.9808
20.7948
22.5935
20.0038
20.0052
21.2928
25.107
25.1069
25.1087
21.298
18.9047
18.3805
17.0709
15.7529
20.8248
25.2623
26.3395
26.3437
26.3414
26.3493
23.3397
17.5412
17.4938
17.4952
17.4949
20.7673
22.9825
22.9848
22.9857
23.0352
23.0348
23.0406
23.0364
22.8819
20.7889
23.2823
23.8747
23.8769
20.602
20.8589
23.346
23.3459
23.117
18.2787
17.0391
19.7402
20.0765
25.5454
25.5474
25.9406
25.7006
25.6963
25.7012
27.6646
26.5616
20.3687
17.3809
17.3612
18.1939
16.9733
16.7908
18.4948
18.6111
18.6116
20.1209
23.4416
24.6709
24.6694
24.6745
24.6703
24.6769
24.6712
24.6776
20.3942
15.5971
14.9992
17.3919
17.3916
17.3957
12.4733
15.1891
23.8695
26.8118
23.9111
23.9093
23.912
27.2757
28.6059
28.6025
24.6459
22.0175
22.2058
22.2056
22.2072
22.2062
22.2083
20.3662
18.0628
20.9455
20.9458
20.9461
19.7744
19.7745
22.5014
27.974
27.9705
15.2689
11.3786
11.3842
13.2624
18.357
22.5598
22.6232
22.6229
22.6266
22.6234
22.9209
29.32
30.4676
30.4615
30.4754
30.4622
28.7075
17.7194
17.4848
19.6918
20.4945
20.4942
20.4945
20.4949
22.8826
24.8576
24.8539
24.8654
24.8544
24.8661
24.0089
24.1243
24.1557
24.1557
15.2263
13.7612
13.762
17.5799
23.0195
23.4185
23.4192
32.3226
32.337
32.323
32.3374
32.3234
32.3315
27.3155
19.8358
19.8363
19.8369
19.7808
19.0494
19.0503
22.2034
22.5573
22.5561
23.7332
23.7387
23.669
24.915
24.9151
24.9152
22.7501
20.2405
20.241
20.2414
23.4288
25.4329
25.4377
18.4375
14.8777
15.6302
22.6738
38.2036
38.1981
38.2212
38.1989
38.2191
38.1997
38.2409
29.9583
20.1035
20.1043
20.1053
19.1713
19.1716
20.7392
24.4159
24.4152
24.4161
24.4158
24.4304
24.4159
24.4326
22.1419
23.1415
23.1487
23.1401
23.1495
23.1394
23.1481
18.3927
8.55605
6.73443
6.73393
6.73278
17.2842
20.1719
18.1488
19.0995
22.3338
22.3378
19.9194
19.8888
19.2449
20.1395
20.1433
18.4727
19.8655
17.2136
17.2166
20.4047
20.4085
19.0383
21.2122
22.9921
22.9957
22.9994
23.0029
22.8015
19.9515
21.3183
21.2156
19.5644
20.1151
16.4458
15.4383
15.4405
16.5409
16.5434
25.0331
25.036
25.0379
25.0423
25.0439
25.0485
18.6273
18.1126
20.0281
21.1652
18.1754
18.178
18.1804
18.1828
21.5451
21.5488
19.6591
19.9294
21.2089
17.8532
17.8552
21.0474
21.0498
20.5055
21.0065
19.3783
16.5459
16.4851
14.0942
12.0159
12.0181
12.0198
12.0215
27.6705
27.674
27.6803
27.6789
27.6847
24.7224
23.5785
23.5808
19.3754
19.0694
19.071
22.8121
24.1285
21.4015
17.7221
17.7242
20.1979
21.5145
21.6713
23.2799
22.3774
19.8118
18.0687
18.0715
20.7948
21.0653
21.0662
21.0694
15.9346
14.0494
14.0504
14.052
14.0536
14.0551
27.0525
28.141
28.1435
28.146
28.1484
25.88
22.5515
17.1172
17.1186
21.8255
21.8268
21.8306
21.8306
21.8336
18.4941
17.4332
17.4346
21.9927
22.9736
22.9751
22.248
21.8338
20.8117
21.347
18.635
18.3243
18.3253
18.3934
18.6154
14.0773
14.0796
14.0807
14.0819
29.034
32.0064
31.9998
28.5029
22.1572
22.7817
22.7824
22.783
21.9016
17.4435
17.4445
21.1111
24.0693
22.6619
22.3367
23.1182
23.1214
23.1207
23.1258
23.123
22.7448
18.5143
18.0684
18.0694
18.0703
21.379
23.9533
22.6668
12.4037
12.2906
12.2935
12.2928
12.2943
23.8241
31.0939
31.0853
31.0988
31.0865
31.0986
27.2679
22.6199
22.6214
19.3631
18.1592
18.1602
23.6721
24.7318
24.7464
24.7309
15.4309
12.0874
12.0806
12.0891
14.9358
20.2792
22.667
22.6673
22.2425
21.2957
21.297
21.8258
22.9657
19.7394
14.6545
14.3308
14.3314
14.332
16.8375
23.8554
26.3399
26.3403
26.346
26.3419
26.3504
26.3435
23.6208
17.801
17.4957
17.4957
17.4969
17.4969
19.1084
22.8663
23.0386
23.0356
23.0416
23.0377
23.2796
23.2805
20.6396
20.601
20.6017
23.3484
23.3465
23.3466
17.1605
12.0284
12.0147
12.0149
12.015
18.8813
29.2171
29.2284
29.2185
29.231
29.2196
26.4471
21.802
20.3695
21.2716
23.8306
23.8311
23.8317
20.4019
18.5556
18.5573
19.4162
22.8339
23.4402
21.0206
19.845
19.8453
19.8458
23.0955
24.6746
21.0014
13.2318
13.2281
13.2308
13.2298
13.2314
14.0909
12.4751
24.7771
24.9331
24.9392
23.9102
26.762
28.0667
28.0779
22.3132
20.0651
20.067
20.5225
22.2052
22.2068
20.6064
17.4364
18.4575
20.9409
20.9417
20.9424
17.6733
17.6752
17.6755
20.9554
25.1226
25.1258
23.0576
20.3517
16.4248
15.3139
15.6395
15.6389
15.6396
15.6408
15.6415
26.3558
33.8854
29.777
24.7526
25.6514
30.4641
30.4619
30.4774
30.4627
24.0985
17.5985
18.1051
24.2645
26.0068
26.0069
26.0072
25.9559
21.946
20.4244
20.6282
19.726
19.5071
19.5092
19.5078
21.5974
23.2831
24.0052
24.0055
15.6485
12.2166
12.2188
12.2189
12.2191
23.0197
32.3228
32.2356
24.6013
23.3624
24.2003
22.9656
22.326
22.181
26.7211
26.7323
26.7224
23.7632
22.2011
23.7337
23.7329
23.7469
23.7333
23.7474
18.4961
18.508
20.1349
20.134
20.2403
20.2409
20.2411
20.7533
25.4256
25.433
16.5596
14.8795
14.8808
14.8808
25.7792
38.2057
38.1983
38.2413
38.199
38.2375
25.0239
23.9873
23.9909
23.69
23.5429
23.4738
23.5509
23.5518
23.5527
22.3896
18.5999
18.6063
24.0701
24.0603
24.0647
24.0615
23.1497
20.4172
20.4238
20.4194
20.4239
23.1385
22.6427
13.9625
11.9618
6.74035
6.73393
24.3854
19.217
18.1488
19.7298
22.3339
20.903
20.6857
18.9772
18.5928
18.596
17.7117
17.715
19.107
19.0299
17.5017
17.5044
20.0356
19.4109
18.4581
21.5629
22.9957
22.9994
18.1201
19.8652
18.0012
17.9033
17.9063
20.5799
20.5829
16.4595
21.1898
21.2171
21.2206
22.5105
25.0323
25.0345
25.0399
25.0409
25.0455
25.0467
18.5472
18.1125
18.338
18.1733
18.1758
21.4084
21.54
21.5424
21.5462
21.5478
21.5511
21.2068
21.2093
18.0585
20.2283
21.0469
17.8884
17.8908
20.7161
20.4428
18.4798
18.1318
17.4387
17.7654
18.149
18.151
16.5391
24.203
24.2049
24.2063
27.2296
27.6809
20.9568
19.437
19.439
19.4412
19.0691
23.0978
24.1263
24.1285
24.0257
20.8052
21.3536
21.358
21.3579
21.362
23.2802
23.386
23.3879
20.2742
20.2764
20.093
17.6547
17.6568
17.6579
19.9027
21.2117
21.7525
21.7547
21.7571
24.665
28.1389
28.1404
28.1433
26.6719
20.3753
18.1238
18.1113
18.1122
20.9604
21.8246
21.8284
21.8284