/*--------------------------------*- C++ -*----------------------------------*\
  =========                 |
  \\      /  F ield         | OpenFOAM: The Open Source CFD Toolbox
   \\    /   O peration     | Website:  https://openfoam.org
    \\  /    A nd           | Version:  7
     \\/     M anipulation  |
\*---------------------------------------------------------------------------*/
FoamFile
{
    version     2.0;
    format      ascii;
    class       volScalarField;
    location    "2000";
    object      rho1;
}
// * * * * * * * * * * * * * * * * * * * * * * * * * * * * * * * * * * * * * //

dimensions      [1 -3 0 0 0 0 0];

internalField   nonuniform List<scalar> 
160000
(
979.913
980.065
980.216
980.368
980.522
980.674
980.824
980.968
981.109
981.255
981.404
981.545
981.688
981.832
981.97
982.105
982.24
982.374
982.51
982.644
982.776
982.906
983.032
983.158
983.283
983.409
983.535
983.657
983.778
983.896
984.01
984.126
984.248
984.369
984.484
984.597
984.709
984.818
984.924
985.028
985.138
985.248
985.358
985.462
985.564
985.668
985.77
985.868
985.969
986.072
986.172
986.272
986.369
986.464
986.558
986.65
986.744
986.838
986.926
987.014
987.106
987.198
987.286
987.371
987.454
987.54
987.628
987.715
987.798
987.874
987.954
988.035
988.114
988.192
988.269
988.346
988.423
988.499
988.574
988.649
988.724
988.8
988.874
988.946
989.017
989.088
989.158
989.226
989.293
989.362
989.429
989.495
989.563
989.631
989.696
989.758
989.82
989.883
989.945
990.005
990.066
990.125
990.184
990.244
990.301
990.358
990.415
990.471
990.529
990.586
990.643
990.696
990.749
990.803
990.855
990.907
990.958
991.009
991.061
991.114
991.165
991.214
991.263
991.312
991.36
991.409
991.459
991.506
991.552
991.599
991.644
991.688
991.732
991.778
991.824
991.867
991.91
991.952
991.993
992.032
992.073
992.115
992.156
992.195
992.236
992.277
992.316
992.355
992.393
992.43
992.466
992.503
992.539
992.575
992.611
992.646
992.682
992.718
992.753
992.788
992.822
992.856
992.89
992.924
992.957
992.989
993.022
993.054
993.085
993.115
993.146
993.178
993.208
993.238
993.268
993.297
993.325
993.353
993.382
993.411
993.438
993.465
993.492
993.518
993.544
993.57
993.597
993.624
993.65
993.677
993.704
993.731
993.757
993.783
993.809
993.832
993.854
993.879
993.905
993.932
993.957
993.98
994.002
994.023
994.044
994.065
994.087
994.109
994.13
994.15
994.171
994.191
994.211
994.23
994.25
994.269
994.288
994.306
994.325
994.345
994.364
994.382
994.399
994.416
994.433
994.45
994.468
994.485
994.502
994.52
994.536
994.552
994.568
994.585
994.601
994.617
994.633
994.648
994.663
994.678
994.693
994.707
994.721
994.735
994.749
994.764
994.778
994.793
994.809
994.826
994.841
994.856
994.869
994.881
994.894
994.906
994.918
994.93
994.942
994.955
994.969
994.981
994.993
995.004
995.015
995.027
995.038
995.049
995.06
995.072
995.083
995.094
995.104
995.115
995.125
995.134
995.144
995.155
995.165
995.175
995.185
995.194
995.203
995.213
995.223
995.232
995.241
995.25
995.258
995.267
995.275
995.283
995.291
995.3
995.308
995.316
995.325
995.332
995.34
995.348
995.356
995.364
995.373
995.381
995.389
995.396
995.403
995.409
995.416
995.422
995.428
995.435
995.441
995.447
995.454
995.46
995.467
995.473
995.478
995.484
995.489
995.494
995.5
995.505
995.511
995.517
995.522
995.528
995.533
995.538
995.543
995.547
995.552
995.557
995.561
995.566
995.57
995.574
995.579
995.583
995.587
995.591
995.595
995.599
995.603
995.606
995.61
995.613
995.617
995.62
995.624
995.627
995.63
995.633
995.636
995.639
995.642
995.645
995.648
995.65
995.653
995.656
995.658
995.661
995.663
995.665
995.668
995.67
995.672
995.674
995.676
995.678
995.679
995.681
995.683
995.684
995.686
995.687
995.689
995.69
995.691
995.693
995.694
995.695
995.696
995.697
995.698
995.698
995.699
995.7
995.7
995.701
995.701
995.702
995.702
995.702
995.703
995.703
995.703
995.703
979.916
980.069
980.218
980.369
980.521
980.671
980.821
980.968
981.112
981.257
981.404
981.547
981.686
981.827
981.968
982.105
982.237
982.374
982.512
982.647
982.779
982.907
983.034
983.161
983.285
983.406
983.531
983.656
983.777
983.895
984.013
984.13
984.249
984.369
984.484
984.596
984.71
984.817
984.92
985.029
985.14
985.248
985.357
985.461
985.563
985.668
985.771
985.868
985.968
986.072
986.175
986.273
986.367
986.464
986.558
986.649
986.743
986.836
986.926
987.016
987.106
987.197
987.285
987.371
987.455
987.543
987.628
987.712
987.795
987.875
987.956
988.037
988.115
988.191
988.268
988.346
988.424
988.5
988.575
988.65
988.725
988.8
988.873
988.944
989.015
989.088
989.158
989.226
989.294
989.361
989.429
989.496
989.563
989.631
989.695
989.757
989.819
989.882
989.945
990.005
990.066
990.126
990.184
990.242
990.301
990.358
990.415
990.472
990.529
990.586
990.643
990.697
990.75
990.802
990.854
990.906
990.958
991.009
991.061
991.113
991.165
991.215
991.263
991.312
991.361
991.41
991.458
991.506
991.552
991.598
991.644
991.688
991.732
991.779
991.825
991.867
991.909
991.952
991.992
992.032
992.073
992.115
992.156
992.196
992.237
992.277
992.316
992.355
992.392
992.429
992.466
992.503
992.539
992.575
992.611
992.647
992.683
992.718
992.753
992.788
992.822
992.856
992.89
992.924
992.957
992.989
993.022
993.054
993.085
993.116
993.147
993.178
993.208
993.238
993.268
993.296
993.325
993.353
993.382
993.41
993.438
993.465
993.492
993.518
993.544
993.57
993.597
993.623
993.65
993.677
993.705
993.732
993.758
993.784
993.808
993.832
993.855
993.88
993.907
993.932
993.956
993.979
994.001
994.022
994.044
994.065
994.088
994.109
994.129
994.15
994.171
994.191
994.21
994.23
994.25
994.269
994.287
994.306
994.326
994.345
994.364
994.381
994.399
994.416
994.433
994.451
994.468
994.485
994.502
994.519
994.536
994.552
994.568
994.585
994.602
994.617
994.633
994.648
994.663
994.678
994.692
994.707
994.721
994.735
994.749
994.763
994.778
994.793
994.81
994.827
994.841
994.855
994.868
994.881
994.893
994.906
994.918
994.93
994.942
994.955
994.969
994.981
994.992
995.003
995.015
995.027
995.038
995.049
995.06
995.072
995.083
995.094
995.105
995.115
995.125
995.134
995.144
995.155
995.165
995.175
995.184
995.194
995.203
995.213
995.223
995.232
995.241
995.25
995.258
995.267
995.275
995.283
995.291
995.3
995.308
995.316
995.325
995.333
995.34
995.348
995.356
995.365
995.373
995.381
995.389
995.396
995.402
995.409
995.415
995.422
995.428
995.435
995.441
995.447
995.454
995.46
995.467
995.472
995.478
995.483
995.489
995.494
995.5
995.505
995.511
995.517
995.522
995.528
995.533
995.538
995.543
995.547
995.552
995.557
995.561
995.566
995.57
995.574
995.579
995.583
995.587
995.591
995.595
995.599
995.603
995.606
995.61
995.613
995.617
995.62
995.624
995.627
995.63
995.633
995.636
995.639
995.642
995.645
995.648
995.65
995.653
995.656
995.658
995.661
995.663
995.665
995.668
995.67
995.672
995.674
995.676
995.678
995.679
995.681
995.683
995.684
995.686
995.687
995.689
995.69
995.691
995.693
995.694
995.695
995.696
995.697
995.698
995.698
995.699
995.7
995.7
995.701
995.701
995.702
995.702
995.702
995.703
995.703
995.703
995.703
979.914
980.066
980.219
980.37
980.522
980.673
980.819
980.968
981.113
981.256
981.404
981.548
981.685
981.823
981.965
982.103
982.239
982.378
982.514
982.648
982.779
982.909
983.037
983.161
983.285
983.407
983.53
983.652
983.776
983.897
984.013
984.13
984.249
984.369
984.485
984.596
984.707
984.816
984.921
985.03
985.14
985.248
985.355
985.458
985.564
985.67
985.77
985.868
985.968
986.072
986.175
986.273
986.368
986.462
986.557
986.649
986.742
986.834
986.927
987.018
987.106
987.195
987.284
987.372
987.456
987.544
987.63
987.714
987.795
987.876
987.956
988.034
988.114
988.192
988.268
988.346
988.423
988.499
988.576
988.651
988.725
988.799
988.873
988.944
989.015
989.086
989.156
989.227
989.295
989.362
989.43
989.498
989.564
989.63
989.694
989.756
989.818
989.881
989.944
990.006
990.066
990.126
990.185
990.243
990.301
990.359
990.416
990.473
990.529
990.586
990.642
990.696
990.75
990.802
990.854
990.906
990.957
991.009
991.062
991.114
991.165
991.214
991.264
991.313
991.361
991.41
991.458
991.505
991.552
991.598
991.643
991.688
991.734
991.78
991.825
991.867
991.909
991.951
991.992
992.032
992.073
992.115
992.156
992.196
992.237
992.277
992.316
992.354
992.392
992.429
992.466
992.503
992.538
992.575
992.612
992.648
992.683
992.718
992.753
992.788
992.822
992.856
992.89
992.924
992.957
992.99
993.022
993.054
993.085
993.116
993.148
993.178
993.209
993.238
993.267
993.296
993.325
993.354
993.382
993.41
993.437
993.464
993.491
993.517
993.544
993.57
993.596
993.623
993.65
993.679
993.707
993.734
993.759
993.784
993.809
993.832
993.857
993.881
993.907
993.932
993.956
993.979
994
994.022
994.044
994.066
994.087
994.108
994.129
994.15
994.17
994.19
994.21
994.23
994.25
994.269
994.288
994.307
994.326
994.345
994.363
994.381
994.398
994.416
994.433
994.451
994.468
994.485
994.502
994.519
994.536
994.552
994.569
994.585
994.601
994.617
994.633
994.648
994.663
994.677
994.692
994.707
994.721
994.735
994.749
994.763
994.778
994.795
994.812
994.827
994.841
994.855
994.868
994.881
994.893
994.906
994.918
994.93
994.943
994.956
994.968
994.98
994.992
995.003
995.015
995.027
995.038
995.049
995.061
995.072
995.083
995.094
995.104
995.115
995.125
995.134
995.144
995.155
995.165
995.175
995.184
995.194
995.204
995.213
995.223
995.232
995.241
995.25
995.258
995.267
995.275
995.283
995.291
995.3
995.308
995.316
995.325
995.333
995.341
995.349
995.357
995.366
995.374
995.381
995.388
995.395
995.402
995.409
995.415
995.422
995.428
995.435
995.441
995.447
995.454
995.46
995.466
995.472
995.478
995.483
995.489
995.494
995.5
995.506
995.512
995.517
995.522
995.527
995.533
995.538
995.543
995.547
995.552
995.557
995.561
995.566
995.57
995.575
995.579
995.583
995.587
995.591
995.595
995.599
995.603
995.606
995.61
995.614
995.617
995.62
995.624
995.627
995.63
995.633
995.636
995.639
995.642
995.645
995.648
995.65
995.653
995.656
995.658
995.661
995.663
995.665
995.668
995.67
995.672
995.674
995.676
995.678
995.679
995.681
995.683
995.684
995.686
995.687
995.689
995.69
995.691
995.693
995.694
995.695
995.696
995.697
995.698
995.698
995.699
995.7
995.7
995.701
995.701
995.702
995.702
995.702
995.703
995.703
995.703
995.703
979.913
980.067
980.219
980.371
980.524
980.675
980.822
980.969
981.116
981.261
981.405
981.544
981.684
981.823
981.964
982.103
982.24
982.378
982.514
982.649
982.779
982.909
983.037
983.16
983.286
983.41
983.529
983.652
983.777
983.897
984.014
984.131
984.248
984.367
984.485
984.597
984.708
984.815
984.92
985.029
985.141
985.249
985.355
985.458
985.563
985.668
985.769
985.869
985.97
986.072
986.173
986.274
986.368
986.462
986.557
986.651
986.742
986.834
986.926
987.016
987.105
987.194
987.284
987.371
987.457
987.544
987.631
987.715
987.795
987.878
987.957
988.034
988.112
988.189
988.268
988.348
988.425
988.501
988.578
988.652
988.725
988.8
988.872
988.943
989.013
989.086
989.156
989.226
989.295
989.363
989.431
989.497
989.564
989.629
989.692
989.755
989.819
989.881
989.942
990.005
990.068
990.128
990.186
990.243
990.301
990.359
990.416
990.473
990.529
990.585
990.641
990.695
990.749
990.802
990.855
990.906
990.957
991.009
991.062
991.114
991.164
991.214
991.264
991.313
991.361
991.41
991.458
991.505
991.551
991.597
991.643
991.689
991.735
991.781
991.825
991.867
991.909
991.95
991.991
992.032
992.074
992.115
992.155
992.196
992.236
992.277
992.316
992.354
992.391
992.429
992.466
992.503
992.539
992.575
992.612
992.647
992.683
992.719
992.753
992.787
992.821
992.856
992.89
992.924
992.957
992.99
993.023
993.054
993.086
993.117
993.148
993.178
993.208
993.237
993.267
993.296
993.325
993.354
993.381
993.409
993.437
993.464
993.49
993.516
993.543
993.57
993.596
993.624
993.653
993.682
993.71
993.735
993.76
993.785
993.809
993.833
993.857
993.881
993.906
993.931
993.955
993.978
994
994.022
994.044
994.065
994.087
994.108
994.129
994.149
994.17
994.19
994.21
994.23
994.25
994.269
994.288
994.307
994.326
994.344
994.362
994.381
994.398
994.416
994.434
994.451
994.469
994.485
994.502
994.519
994.536
994.552
994.569
994.585
994.602
994.617
994.633
994.648
994.663
994.677
994.692
994.707
994.721
994.735
994.749
994.764
994.78
994.797
994.813
994.827
994.841
994.854
994.867
994.88
994.893
994.905
994.918
994.93
994.943
994.955
994.968
994.98
994.991
995.003
995.015
995.027
995.038
995.05
995.061
995.072
995.083
995.094
995.105
995.115
995.124
995.134
995.144
995.155
995.165
995.175
995.185
995.194
995.204
995.213
995.222
995.232
995.241
995.249
995.258
995.267
995.275
995.283
995.291
995.299
995.308
995.317
995.325
995.333
995.341
995.35
995.358
995.366
995.373
995.381
995.388
995.395
995.402
995.408
995.415
995.422
995.428
995.435
995.441
995.448
995.454
995.46
995.466
995.472
995.478
995.483
995.489
995.495
995.5
995.506
995.512
995.517
995.522
995.527
995.532
995.538
995.543
995.547
995.552
995.557
995.561
995.566
995.57
995.575
995.579
995.583
995.587
995.591
995.595
995.599
995.603
995.606
995.61
995.614
995.617
995.62
995.624
995.627
995.63
995.633
995.636
995.639
995.642
995.645
995.648
995.65
995.653
995.656
995.658
995.661
995.663
995.666
995.668
995.67
995.672
995.674
995.676
995.678
995.679
995.681
995.683
995.684
995.686
995.687
995.689
995.69
995.691
995.693
995.694
995.695
995.696
995.697
995.698
995.698
995.699
995.7
995.7
995.701
995.701
995.702
995.702
995.702
995.703
995.703
995.703
995.703
979.913
980.065
980.219
980.374
980.525
980.676
980.823
980.97
981.118
981.262
981.405
981.541
981.678
981.826
981.969
982.104
982.239
982.376
982.51
982.648
982.782
982.911
983.037
983.161
983.286
983.408
983.527
983.65
983.773
983.895
984.017
984.134
984.249
984.369
984.488
984.598
984.705
984.812
984.921
985.032
985.141
985.248
985.356
985.459
985.562
985.666
985.767
985.867
985.971
986.073
986.173
986.273
986.369
986.463
986.557
986.651
986.743
986.834
986.926
987.016
987.104
987.193
987.282
987.371
987.456
987.544
987.633
987.717
987.798
987.878
987.957
988.034
988.112
988.19
988.268
988.348
988.426
988.501
988.577
988.653
988.727
988.8
988.872
988.942
989.013
989.085
989.156
989.226
989.295
989.363
989.431
989.497
989.562
989.628
989.691
989.754
989.818
989.881
989.943
990.005
990.069
990.13
990.187
990.244
990.302
990.359
990.416
990.472
990.528
990.585
990.64
990.694
990.747
990.802
990.856
990.908
990.957
991.009
991.062
991.113
991.164
991.214
991.264
991.312
991.361
991.411
991.459
991.505
991.551
991.597
991.642
991.689
991.736
991.782
991.826
991.868
991.909
991.95
991.991
992.032
992.073
992.114
992.155
992.196
992.236
992.276
992.316
992.354
992.391
992.429
992.466
992.502
992.539
992.575
992.612
992.648
992.684
992.719
992.753
992.786
992.821
992.855
992.89
992.925
992.958
992.99
993.023
993.056
993.087
993.118
993.148
993.178
993.207
993.237
993.266
993.295
993.324
993.353
993.381
993.408
993.436
993.463
993.49
993.516
993.542
993.569
993.598
993.628
993.657
993.685
993.711
993.736
993.76
993.785
993.809
993.833
993.857
993.881
993.905
993.93
993.955
993.978
994
994.022
994.044
994.065
994.086
994.107
994.128
994.149
994.169
994.189
994.21
994.23
994.25
994.269
994.288
994.306
994.325
994.344
994.362
994.38
994.398
994.416
994.434
994.451
994.468
994.485
994.502
994.519
994.536
994.552
994.569
994.585
994.602
994.618
994.633
994.648
994.663
994.677
994.692
994.707
994.721
994.735
994.75
994.766
994.782
994.798
994.813
994.827
994.84
994.854
994.867
994.88
994.892
994.905
994.918
994.93
994.943
994.955
994.967
994.979
994.991
995.003
995.015
995.027
995.038
995.05
995.062
995.073
995.084
995.094
995.104
995.114
995.124
995.134
995.145
995.155
995.165
995.175
995.185
995.194
995.204
995.213
995.222
995.231
995.24
995.249
995.258
995.267
995.275
995.283
995.291
995.3
995.309
995.317
995.325
995.334
995.342
995.35
995.358
995.366
995.373
995.381
995.388
995.395
995.402
995.408
995.415
995.421
995.428
995.435
995.441
995.448
995.454
995.46
995.466
995.472
995.478
995.483
995.489
995.495
995.501
995.506
995.512
995.517
995.522
995.527
995.532
995.537
995.542
995.547
995.552
995.557
995.562
995.566
995.57
995.575
995.579
995.583
995.587
995.591
995.595
995.599
995.603
995.606
995.61
995.613
995.617
995.62
995.624
995.627
995.63
995.633
995.636
995.639
995.642
995.645
995.648
995.65
995.653
995.656
995.658
995.661
995.663
995.666
995.668
995.67
995.672
995.674
995.676
995.678
995.68
995.681
995.683
995.684
995.686
995.687
995.689
995.69
995.691
995.693
995.694
995.695
995.696
995.697
995.697
995.698
995.699
995.7
995.7
995.701
995.701
995.702
995.702
995.702
995.703
995.703
995.703
995.703
979.912
980.062
980.214
980.372
980.525
980.677
980.827
980.974
981.118
981.259
981.402
981.541
981.681
981.826
981.967
982.107
982.244
982.376
982.509
982.643
982.778
982.91
983.039
983.162
983.285
983.409
983.53
983.651
983.771
983.892
984.017
984.135
984.252
984.37
984.487
984.598
984.705
984.813
984.922
985.033
985.141
985.249
985.355
985.458
985.562
985.666
985.767
985.868
985.969
986.072
986.175
986.272
986.367
986.464
986.558
986.65
986.743
986.835
986.925
987.015
987.104
987.191
987.28
987.37
987.456
987.545
987.634
987.718
987.798
987.878
987.957
988.034
988.114
988.193
988.269
988.348
988.426
988.502
988.578
988.652
988.726
988.799
988.872
988.942
989.013
989.085
989.155
989.225
989.295
989.364
989.431
989.495
989.562
989.628
989.691
989.755
989.818
989.88
989.944
990.006
990.069
990.129
990.187
990.245
990.303
990.359
990.415
990.471
990.527
990.584
990.641
990.694
990.747
990.801
990.855
990.907
990.958
991.009
991.061
991.113
991.164
991.214
991.263
991.312
991.362
991.41
991.458
991.504
991.551
991.597
991.643
991.69
991.737
991.782
991.826
991.868
991.91
991.951
991.992
992.032
992.073
992.114
992.155
992.196
992.237
992.276
992.315
992.353
992.391
992.429
992.466
992.502
992.539
992.576
992.612
992.648
992.683
992.718
992.752
992.786
992.821
992.856
992.89
992.924
992.958
992.991
993.025
993.057
993.088
993.118
993.148
993.177
993.206
993.236
993.266
993.295
993.324
993.352
993.38
993.408
993.436
993.463
993.489
993.515
993.541
993.571
993.602
993.633
993.661
993.686
993.711
993.736
993.76
993.785
993.809
993.833
993.857
993.881
993.905
993.93
993.955
993.978
994
994.022
994.043
994.065
994.086
994.107
994.128
994.148
994.169
994.189
994.21
994.23
994.249
994.268
994.287
994.306
994.325
994.344
994.362
994.38
994.398
994.416
994.434
994.451
994.468
994.485
994.502
994.519
994.536
994.552
994.569
994.586
994.602
994.618
994.633
994.648
994.663
994.678
994.692
994.707
994.721
994.736
994.752
994.768
994.783
994.798
994.813
994.827
994.84
994.853
994.866
994.879
994.892
994.905
994.918
994.93
994.943
994.955
994.967
994.979
994.991
995.003
995.015
995.027
995.039
995.051
995.062
995.073
995.084
995.094
995.104
995.114
995.124
995.134
995.145
995.155
995.165
995.175
995.184
995.194
995.204
995.213
995.222
995.231
995.24
995.249
995.258
995.266
995.275
995.283
995.291
995.3
995.309
995.318
995.326
995.334
995.342
995.35
995.358
995.366
995.373
995.381
995.388
995.395
995.401
995.408
995.415
995.421
995.428
995.435
995.441
995.448
995.454
995.46
995.466
995.472
995.478
995.483
995.489
995.495
995.501
995.506
995.511
995.517
995.522
995.527
995.532
995.537
995.542
995.547
995.552
995.557
995.562
995.566
995.57
995.575
995.579
995.583
995.587
995.591
995.595
995.599
995.602
995.606
995.61
995.613
995.617
995.62
995.624
995.627
995.63
995.633
995.636
995.639
995.642
995.645
995.648
995.65
995.653
995.656
995.658
995.661
995.663
995.666
995.668
995.67
995.672
995.674
995.676
995.678
995.68
995.681
995.683
995.684
995.686
995.687
995.689
995.69
995.691
995.693
995.694
995.695
995.696
995.697
995.697
995.698
995.699
995.7
995.7
995.701
995.701
995.702
995.702
995.702
995.703
995.703
995.703
995.703
979.911
980.063
980.214
980.369
980.521
980.675
980.828
980.976
981.12
981.262
981.403
981.541
981.684
981.829
981.97
982.107
982.242
982.376
982.509
982.64
982.776
982.91
983.036
983.159
983.283
983.409
983.531
983.653
983.773
983.893
984.016
984.137
984.254
984.371
984.485
984.595
984.706
984.815
984.924
985.031
985.139
985.248
985.355
985.458
985.562
985.667
985.768
985.868
985.97
986.071
986.173
986.272
986.367
986.463
986.558
986.65
986.742
986.834
986.925
987.014
987.103
987.19
987.279
987.372
987.461
987.545
987.633
987.719
987.8
987.878
987.956
988.035
988.115
988.193
988.27
988.349
988.426
988.502
988.577
988.651
988.725
988.799
988.871
988.942
989.014
989.085
989.155
989.225
989.295
989.364
989.43
989.495
989.561
989.627
989.692
989.754
989.816
989.88
989.945
990.007
990.069
990.13
990.188
990.246
990.303
990.359
990.416
990.471
990.527
990.585
990.64
990.694
990.747
990.801
990.854
990.906
990.957
991.009
991.061
991.113
991.164
991.215
991.264
991.312
991.362
991.41
991.457
991.504
991.551
991.597
991.644
991.69
991.736
991.781
991.825
991.868
991.91
991.952
991.992
992.033
992.073
992.114
992.155
992.195
992.236
992.276
992.315
992.353
992.391
992.428
992.465
992.503
992.539
992.576
992.613
992.648
992.683
992.717
992.752
992.786
992.822
992.857
992.891
992.924
992.958
992.992
993.025
993.057
993.088
993.118
993.148
993.177
993.206
993.236
993.265
993.294
993.323
993.352
993.38
993.408
993.435
993.462
993.488
993.514
993.543
993.577
993.608
993.635
993.661
993.687
993.711
993.736
993.76
993.784
993.809
993.833
993.856
993.881
993.905
993.93
993.954
993.977
993.999
994.021
994.043
994.064
994.085
994.107
994.127
994.148
994.169
994.189
994.209
994.229
994.249
994.268
994.287
994.306
994.325
994.344
994.362
994.38
994.398
994.416
994.434
994.451
994.468
994.485
994.502
994.519
994.535
994.552
994.569
994.586
994.603
994.618
994.633
994.648
994.663
994.678
994.693
994.707
994.722
994.737
994.753
994.768
994.784
994.798
994.812
994.826
994.84
994.853
994.866
994.879
994.892
994.905
994.917
994.93
994.942
994.955
994.967
994.979
994.991
995.003
995.015
995.027
995.039
995.051
995.062
995.073
995.083
995.094
995.104
995.114
995.124
995.135
995.145
995.155
995.165
995.175
995.185
995.194
995.203
995.213
995.222
995.231
995.24
995.249
995.258
995.266
995.275
995.283
995.292
995.301
995.31
995.318
995.326
995.334
995.342
995.35
995.358
995.366
995.373
995.38
995.387
995.394
995.401
995.408
995.414
995.421
995.428
995.435
995.441
995.448
995.454
995.46
995.466
995.472
995.478
995.483
995.489
995.495
995.501
995.506
995.511
995.517
995.522
995.527
995.532
995.537
995.542
995.547
995.552
995.557
995.562
995.566
995.57
995.575
995.579
995.583
995.587
995.591
995.595
995.599
995.602
995.606
995.61
995.613
995.617
995.62
995.624
995.627
995.63
995.633
995.636
995.639
995.642
995.645
995.648
995.65
995.653
995.656
995.658
995.661
995.663
995.666
995.668
995.67
995.672
995.674
995.676
995.678
995.68
995.681
995.683
995.684
995.686
995.687
995.689
995.69
995.691
995.693
995.694
995.695
995.696
995.697
995.698
995.698
995.699
995.7
995.7
995.701
995.701
995.702
995.702
995.702
995.703
995.703
995.703
995.703
979.911
980.065
980.216
980.368
980.522
980.674
980.825
980.973
981.121
981.264
981.406
981.544
981.685
981.83
981.97
982.105
982.24
982.379
982.513
982.642
982.773
982.905
983.033
983.159
983.283
983.407
983.532
983.656
983.774
983.895
984.018
984.137
984.253
984.37
984.486
984.596
984.706
984.814
984.922
985.031
985.139
985.247
985.353
985.457
985.562
985.666
985.768
985.869
985.972
986.073
986.172
986.27
986.367
986.463
986.557
986.649
986.741
986.833
986.922
987.013
987.103
987.191
987.281
987.372
987.461
987.547
987.634
987.719
987.801
987.879
987.956
988.036
988.117
988.194
988.271
988.349
988.426
988.502
988.576
988.65
988.724
988.798
988.871
988.943
989.015
989.085
989.154
989.225
989.295
989.364
989.429
989.495
989.56
989.626
989.69
989.754
989.817
989.88
989.944
990.007
990.07
990.13
990.189
990.247
990.303
990.359
990.415
990.47
990.527
990.584
990.64
990.694
990.747
990.8
990.853
990.905
990.957
991.01
991.063
991.114
991.164
991.214
991.263
991.312
991.363
991.411
991.457
991.503
991.55
991.598
991.644
991.69
991.735
991.781
991.826
991.869
991.91
991.952
991.992
992.032
992.073
992.115
992.155
992.195
992.236
992.276
992.315
992.352
992.39
992.428
992.466
992.503
992.539
992.576
992.613
992.648
992.683
992.718
992.752
992.787
992.822
992.857
992.891
992.925
992.959
992.993
993.025
993.057
993.087
993.118
993.148
993.177
993.206
993.236
993.266
993.294
993.322
993.351
993.38
993.407
993.434
993.461
993.488
993.517
993.549
993.581
993.61
993.636
993.661
993.686
993.711
993.736
993.76
993.784
993.808
993.833
993.857
993.881
993.905
993.93
993.954
993.977
993.999
994.021
994.042
994.064
994.085
994.106
994.127
994.148
994.169
994.189
994.209
994.229
994.248
994.268
994.287
994.306
994.325
994.344
994.362
994.38
994.398
994.416
994.434
994.451
994.468
994.485
994.502
994.519
994.535
994.552
994.569
994.586
994.603
994.618
994.633
994.648
994.664
994.679
994.693
994.708
994.723
994.738
994.753
994.769
994.783
994.798
994.812
994.826
994.839
994.853
994.866
994.879
994.892
994.905
994.917
994.93
994.942
994.954
994.967
994.979
994.991
995.003
995.015
995.027
995.039
995.051
995.062
995.073
995.083
995.094
995.104
995.114
995.124
995.135
995.145
995.155
995.165
995.175
995.184
995.194
995.203
995.213
995.222
995.231
995.24
995.249
995.258
995.266
995.275
995.283
995.292
995.301
995.31
995.318
995.326
995.334
995.342
995.35
995.358
995.366
995.373
995.38
995.387
995.394
995.401
995.408
995.415
995.421
995.428
995.435
995.441
995.447
995.454
995.46
995.466
995.472
995.478
995.483
995.489
995.495
995.501
995.506
995.511
995.517
995.522
995.527
995.532
995.537
995.542
995.547
995.552
995.557
995.562
995.566
995.57
995.575
995.579
995.583
995.587
995.591
995.595
995.599
995.602
995.606
995.61
995.613
995.617
995.62
995.624
995.627
995.63
995.633
995.636
995.639
995.642
995.645
995.648
995.65
995.653
995.656
995.658
995.661
995.663
995.666
995.668
995.67
995.672
995.674
995.676
995.678
995.68
995.681
995.683
995.684
995.686
995.687
995.689
995.69
995.691
995.693
995.694
995.695
995.696
995.697
995.698
995.698
995.699
995.7
995.7
995.701
995.701
995.702
995.702
995.702
995.703
995.703
995.703
995.703
979.913
980.065
980.216
980.37
980.521
980.674
980.825
980.973
981.119
981.261
981.404
981.547
981.689
981.832
981.971
982.105
982.242
982.379
982.511
982.641
982.773
982.903
983.032
983.16
983.285
983.408
983.534
983.656
983.775
983.896
984.017
984.136
984.253
984.371
984.487
984.596
984.705
984.812
984.919
985.031
985.141
985.248
985.353
985.457
985.562
985.666
985.769
985.871
985.972
986.074
986.173
986.268
986.365
986.463
986.557
986.648
986.741
986.832
986.921
987.012
987.103
987.191
987.281
987.371
987.461
987.549
987.636
987.72
987.801
987.88
987.957
988.037
988.116
988.194
988.271
988.35
988.428
988.502
988.575
988.649
988.724
988.798
988.871
988.944
989.015
989.085
989.154
989.224
989.294
989.363
989.43
989.495
989.56
989.625
989.689
989.754
989.817
989.88
989.944
990.008
990.07
990.13
990.189
990.246
990.303
990.359
990.415
990.47
990.527
990.583
990.637
990.692
990.747
990.8
990.853
990.905
990.958
991.011
991.062
991.114
991.165
991.215
991.263
991.313
991.362
991.41
991.457
991.504
991.551
991.597
991.642
991.689
991.736
991.782
991.827
991.869
991.911
991.952
991.992
992.032
992.073
992.115
992.155
992.195
992.235
992.275
992.313
992.352
992.39
992.428
992.466
992.503
992.539
992.576
992.612
992.648
992.683
992.718
992.753
992.787
992.822
992.856
992.891
992.926
992.96
992.993
993.025
993.057
993.087
993.118
993.148
993.177
993.206
993.236
993.265
993.293
993.322
993.351
993.379
993.407
993.434
993.462
993.491
993.522
993.554
993.583
993.61
993.636
993.661
993.686
993.711
993.736
993.76
993.784
993.808
993.832
993.857
993.881
993.905
993.929
993.953
993.977
993.999
994.02
994.042
994.063
994.085
994.106
994.127
994.148
994.168
994.189
994.209
994.229
994.248
994.268
994.287
994.306
994.325
994.343
994.362
994.38
994.398
994.416
994.434
994.451
994.468
994.485
994.502
994.519
994.535
994.552
994.57
994.587
994.603
994.618
994.634
994.649
994.664
994.679
994.694
994.709
994.723
994.738
994.753
994.768
994.783
994.798
994.812
994.826
994.839
994.852
994.866
994.879
994.892
994.904
994.917
994.93
994.942
994.954
994.967
994.979
994.991
995.003
995.015
995.027
995.039
995.051
995.062
995.073
995.083
995.094
995.104
995.114
995.124
995.135
995.145
995.155
995.165
995.175
995.184
995.194
995.203
995.212
995.222
995.231
995.24
995.249
995.258
995.266
995.275
995.284
995.293
995.301
995.31
995.318
995.326
995.334
995.342
995.35
995.358
995.366
995.373
995.38
995.387
995.394
995.401
995.408
995.415
995.421
995.428
995.435
995.441
995.447
995.454
995.46
995.466
995.472
995.478
995.484
995.489
995.495
995.501
995.506
995.512
995.517
995.522
995.527
995.532
995.537
995.542
995.547
995.552
995.557
995.562
995.566
995.57
995.575
995.579
995.583
995.587
995.591
995.595
995.599
995.602
995.606
995.61
995.613
995.617
995.62
995.624
995.627
995.63
995.633
995.636
995.639
995.642
995.645
995.648
995.65
995.653
995.656
995.658
995.661
995.663
995.666
995.668
995.67
995.672
995.674
995.676
995.678
995.68
995.681
995.683
995.684
995.686
995.687
995.689
995.69
995.691
995.693
995.694
995.695
995.696
995.697
995.698
995.698
995.699
995.7
995.7
995.701
995.701
995.702
995.702
995.702
995.703
995.703
995.703
995.703
979.915
980.069
980.218
980.367
980.521
980.675
980.823
980.971
981.117
981.26
981.404
981.547
981.69
981.83
981.97
982.107
982.242
982.378
982.51
982.639
982.77
982.904
983.035
983.16
983.286
983.412
983.534
983.655
983.777
983.898
984.016
984.136
984.255
984.371
984.484
984.594
984.705
984.813
984.919
985.029
985.14
985.247
985.352
985.458
985.563
985.666
985.769
985.872
985.973
986.075
986.173
986.268
986.364
986.462
986.556
986.648
986.741
986.832
986.921
987.012
987.102
987.192
987.281
987.371
987.461
987.551
987.638
987.72
987.801
987.88
987.957
988.035
988.115
988.194
988.272
988.351
988.428
988.502
988.576
988.65
988.724
988.797
988.87
988.944
989.016
989.085
989.154
989.224
989.294
989.362
989.429
989.495
989.561
989.626
989.689
989.752
989.816
989.88
989.945
990.009
990.07
990.13
990.189
990.246
990.302
990.359
990.416
990.471
990.527
990.582
990.637
990.691
990.746