/*--------------------------------*- C++ -*----------------------------------*\
  =========                 |
  \\      /  F ield         | OpenFOAM: The Open Source CFD Toolbox
   \\    /   O peration     | Website:  https://openfoam.org
    \\  /    A nd           | Version:  7
     \\/     M anipulation  |
\*---------------------------------------------------------------------------*/
FoamFile
{
    version     2.0;
    format      ascii;
    class       volScalarField;
    location    "2000";
    object      rho2;
}
// * * * * * * * * * * * * * * * * * * * * * * * * * * * * * * * * * * * * * //

dimensions      [1 -3 0 0 0 0 0];

internalField   nonuniform List<scalar> 
160000
(
1.04855
1.04926
1.04997
1.05068
1.05142
1.05215
1.05287
1.05358
1.05427
1.05499
1.05573
1.05644
1.05715
1.05789
1.05859
1.05929
1.05999
1.06069
1.0614
1.06211
1.06282
1.06351
1.06419
1.06488
1.06556
1.06626
1.06695
1.06763
1.06831
1.06898
1.06963
1.07029
1.07099
1.07169
1.07236
1.07302
1.07368
1.07433
1.07496
1.07559
1.07625
1.07692
1.0776
1.07824
1.07886
1.07951
1.08015
1.08077
1.08141
1.08206
1.0827
1.08335
1.08398
1.08459
1.08521
1.08582
1.08644
1.08706
1.08765
1.08824
1.08887
1.0895
1.09009
1.09068
1.09125
1.09185
1.09247
1.09307
1.09366
1.0942
1.09477
1.09536
1.09592
1.09649
1.09704
1.09761
1.09818
1.09874
1.0993
1.09985
1.10041
1.10098
1.10155
1.10209
1.10263
1.10318
1.10372
1.10424
1.10476
1.1053
1.10583
1.10635
1.10689
1.10743
1.10795
1.10845
1.10895
1.10945
1.10996
1.11045
1.11095
1.11144
1.11192
1.11242
1.1129
1.11338
1.11386
1.11433
1.11482
1.1153
1.11579
1.11625
1.11671
1.11717
1.11762
1.11807
1.11853
1.11897
1.11943
1.1199
1.12035
1.12079
1.12123
1.12167
1.12211
1.12255
1.123
1.12344
1.12385
1.12428
1.1247
1.12511
1.12552
1.12595
1.12638
1.12679
1.12718
1.12758
1.12797
1.12835
1.12873
1.12914
1.12953
1.12991
1.13031
1.13071
1.13108
1.13146
1.13184
1.1322
1.13256
1.13292
1.13328
1.13364
1.134
1.13436
1.13471
1.13507
1.13543
1.13579
1.13614
1.13648
1.13683
1.13718
1.13752
1.13785
1.13819
1.13852
1.13884
1.13916
1.13948
1.13982
1.14014
1.14045
1.14077
1.14108
1.14137
1.14167
1.14198
1.14229
1.14259
1.14288
1.14317
1.14345
1.14374
1.14402
1.14431
1.1446
1.14489
1.14518
1.14549
1.14579
1.14607
1.14636
1.14665
1.14691
1.14716
1.14743
1.14773
1.14803
1.14831
1.14858
1.14883
1.14906
1.1493
1.14954
1.1498
1.15004
1.15028
1.15052
1.15076
1.15099
1.15122
1.15145
1.15167
1.1519
1.15212
1.15233
1.15256
1.15279
1.15301
1.15323
1.15343
1.15363
1.15383
1.15404
1.15425
1.15445
1.15465
1.15486
1.15506
1.15525
1.15545
1.15565
1.15584
1.15604
1.15622
1.15641
1.15659
1.15677
1.15695
1.15713
1.1573
1.15747
1.15765
1.15782
1.158
1.15818
1.15838
1.15859
1.15878
1.15896
1.15912
1.15928
1.15943
1.15958
1.15974
1.15988
1.16003
1.16019
1.16037
1.16053
1.16067
1.16081
1.16095
1.1611
1.16125
1.16139
1.16153
1.16168
1.16182
1.16195
1.16209
1.16222
1.16235
1.16247
1.1626
1.16273
1.16286
1.16299
1.16312
1.16324
1.16336
1.16348
1.16361
1.16373
1.16384
1.16396
1.16407
1.16418
1.16429
1.1644
1.1645
1.16461
1.16471
1.16482
1.16493
1.16504
1.16513
1.16523
1.16534
1.16545
1.16557
1.16568
1.16577
1.16587
1.16596
1.16604
1.16613
1.16621
1.1663
1.16638
1.16646
1.16655
1.16663
1.16672
1.16681
1.16688
1.16696
1.16703
1.1671
1.16718
1.16725
1.16732
1.1674
1.16747
1.16755
1.16762
1.16769
1.16776
1.16782
1.16789
1.16795
1.16801
1.16807
1.16813
1.16819
1.16825
1.1683
1.16836
1.16842
1.16847
1.16852
1.16858
1.16863
1.16868
1.16873
1.16877
1.16882
1.16887
1.16891
1.16896
1.169
1.16904
1.16908
1.16912
1.16916
1.1692
1.16924
1.16928
1.16931
1.16935
1.16938
1.16941
1.16945
1.16948
1.16951
1.16954
1.16957
1.1696
1.16962
1.16965
1.16967
1.1697
1.16972
1.16974
1.16976
1.16978
1.1698
1.16982
1.16983
1.16985
1.16987
1.16988
1.16989
1.16991
1.16992
1.16993
1.16994
1.16995
1.16996
1.16996
1.16997
1.16998
1.16998
1.16998
1.16999
1.16999
1.16999
1.16999
1.04856
1.04928
1.04998
1.05069
1.05142
1.05214
1.05286
1.05358
1.05428
1.055
1.05573
1.05644
1.05715
1.05786
1.05858
1.05929
1.05998
1.06069
1.06141
1.06213
1.06283
1.06352
1.0642
1.06489
1.06557
1.06624
1.06693
1.06763
1.06831
1.06897
1.06964
1.07031
1.071
1.07169
1.07236
1.07302
1.07369
1.07432
1.07494
1.07559
1.07627
1.07693
1.07759
1.07823
1.07886
1.07952
1.08016
1.08077
1.0814
1.08206
1.08272
1.08335
1.08397
1.08459
1.08521
1.08581
1.08643
1.08705
1.08766
1.08826
1.08887
1.08949
1.09009
1.09068
1.09126
1.09187
1.09247
1.09306
1.09364
1.09421
1.09479
1.09537
1.09593
1.09648
1.09704
1.09761
1.09818
1.09874
1.0993
1.09986
1.10042
1.10098
1.10154
1.10208
1.10262
1.10318
1.10372
1.10424
1.10477
1.1053
1.10583
1.10636
1.10689
1.10743
1.10794
1.10844
1.10894
1.10945
1.10996
1.11045
1.11095
1.11145
1.11193
1.11241
1.1129
1.11338
1.11385
1.11434
1.11482
1.11531
1.11579
1.11625
1.11671
1.11717
1.11762
1.11807
1.11852
1.11897
1.11943
1.11989
1.12035
1.1208
1.12123
1.12167
1.12211
1.12256
1.123
1.12343
1.12385
1.12428
1.1247
1.12511
1.12552
1.12596
1.12638
1.12678
1.12718
1.12758
1.12797
1.12835
1.12873
1.12914
1.12953
1.12992
1.13032
1.1307
1.13108
1.13146
1.13183
1.13219
1.13256
1.13293
1.13328
1.13364
1.134
1.13436
1.13472
1.13508
1.13543
1.13578
1.13613
1.13648
1.13683
1.13718
1.13752
1.13785
1.13819
1.13852
1.13884
1.13916
1.13949
1.13982
1.14014
1.14045
1.14077
1.14107
1.14137
1.14168
1.14198
1.14229
1.14258
1.14288
1.14317
1.14345
1.14373
1.14402
1.14431
1.1446
1.14489
1.14519
1.1455
1.1458
1.14609
1.14637
1.14665
1.14691
1.14717
1.14745
1.14775
1.14803
1.14831
1.14857
1.14882
1.14906
1.1493
1.14955
1.1498
1.15005
1.15028
1.15052
1.15076
1.15099
1.15122
1.15145
1.15167
1.1519
1.15212
1.15234
1.15257
1.15279
1.15301
1.15322
1.15342
1.15363
1.15383
1.15404
1.15425
1.15445
1.15465
1.15486
1.15505
1.15525
1.15545
1.15565
1.15585
1.15604
1.15622
1.15641
1.15659
1.15677
1.15695
1.15713
1.1573
1.15748
1.15765
1.15782
1.158
1.15819
1.1584
1.1586
1.15878
1.15895
1.15912
1.15928
1.15943
1.15958
1.15974
1.15988
1.16004
1.1602
1.16037
1.16052
1.16067
1.16081
1.16095
1.1611
1.16125
1.16139
1.16153
1.16168
1.16182
1.16195
1.16209
1.16222
1.16235
1.16247
1.1626
1.16273
1.16286
1.16299
1.16311
1.16324
1.16336
1.16348
1.16361
1.16373
1.16384
1.16396
1.16407
1.16418
1.16429
1.16439
1.1645
1.16461
1.16472
1.16482
1.16493
1.16504
1.16514
1.16524
1.16535
1.16546
1.16557
1.16568
1.16577
1.16586
1.16595
1.16604
1.16613
1.16621
1.1663
1.16638
1.16646
1.16655
1.16664
1.16672
1.1668
1.16688
1.16696
1.16703
1.1671
1.16717
1.16725
1.16732
1.1674
1.16748
1.16755
1.16762
1.16769
1.16776
1.16782
1.16789
1.16795
1.16801
1.16807
1.16813
1.16819
1.16825
1.16831
1.16836
1.16842
1.16847
1.16852
1.16858
1.16863
1.16868
1.16873
1.16878
1.16882
1.16887
1.16891
1.16896
1.169
1.16904
1.16908
1.16912
1.16916
1.1692
1.16924
1.16928
1.16931
1.16935
1.16938
1.16941
1.16945
1.16948
1.16951
1.16954
1.16957
1.1696
1.16962
1.16965
1.16967
1.1697
1.16972
1.16974
1.16976
1.16978
1.1698
1.16982
1.16983
1.16985
1.16987
1.16988
1.16989
1.16991
1.16992
1.16993
1.16994
1.16995
1.16996
1.16996
1.16997
1.16998
1.16998
1.16998
1.16999
1.16999
1.16999
1.16999
1.04855
1.04926
1.04998
1.05069
1.05142
1.05214
1.05285
1.05358
1.05429
1.05499
1.05573
1.05645
1.05714
1.05784
1.05857
1.05928
1.05998
1.06071
1.06142
1.06213
1.06283
1.06353
1.06422
1.0649
1.06557
1.06624
1.06692
1.0676
1.0683
1.06898
1.06965
1.07031
1.071
1.07169
1.07237
1.07302
1.07368
1.07432
1.07495
1.0756
1.07626
1.07692
1.07758
1.07821
1.07886
1.07953
1.08015
1.08077
1.0814
1.08206
1.08272
1.08336
1.08397
1.08458
1.0852
1.08581
1.08642
1.08704
1.08766
1.08828
1.08887
1.08947
1.09008
1.09069
1.09127
1.09188
1.09248
1.09307
1.09364
1.09422
1.09478
1.09535
1.09592
1.09648
1.09704
1.09761
1.09818
1.09874
1.09931
1.09987
1.10042
1.10098
1.10154
1.10208
1.10262
1.10316
1.1037
1.10425
1.10478
1.10531
1.10584
1.10637
1.10689
1.10742
1.10793
1.10843
1.10893
1.10944
1.10995
1.11046
1.11095
1.11145
1.11194
1.11241
1.1129
1.11338
1.11387
1.11435
1.11482
1.1153
1.11578
1.11625
1.11671
1.11716
1.11762
1.11807
1.11852
1.11897
1.11944
1.1199
1.12035
1.12079
1.12124
1.12168
1.12212
1.12256
1.12299
1.12342
1.12385
1.12427
1.12469
1.12511
1.12554
1.12597
1.12638
1.12678
1.12718
1.12757
1.12796
1.12834
1.12873
1.12914
1.12954
1.12992
1.13031
1.1307
1.13108
1.13146
1.13183
1.13219
1.13256
1.13292
1.13328
1.13364
1.13401
1.13437
1.13472
1.13508
1.13543
1.13578
1.13613
1.13648
1.13683
1.13718
1.13752
1.13785
1.13819
1.13852
1.13884
1.13917
1.1395
1.13982
1.14014
1.14045
1.14076
1.14106
1.14137
1.14168
1.14198
1.14228
1.14258
1.14287
1.14316
1.14344
1.14373
1.14402
1.14431
1.1446
1.14489
1.14521
1.14552
1.14582
1.1461
1.14637
1.14665
1.14691
1.14719
1.14746
1.14775
1.14803
1.1483
1.14856
1.14881
1.14905
1.1493
1.14955
1.1498
1.15004
1.15028
1.15052
1.15075
1.15099
1.15122
1.15145
1.15167
1.1519
1.15212
1.15234
1.15257
1.15279
1.153
1.15321
1.15342
1.15363
1.15384
1.15404
1.15425
1.15445
1.15466
1.15486
1.15505
1.15525
1.15545
1.15565
1.15585
1.15604
1.15623
1.15641
1.15659
1.15677
1.15695
1.15713
1.1573
1.15747
1.15765
1.15782
1.158
1.15821
1.15842
1.15861
1.15878
1.15895
1.15911
1.15927
1.15943
1.15958
1.15973
1.15989
1.16004
1.16021
1.16036
1.16051
1.16066
1.16081
1.16095
1.1611
1.16125
1.16139
1.16154
1.16168
1.16182
1.16195
1.16209
1.16222
1.16235
1.16247
1.1626
1.16273
1.16286
1.16299
1.16311
1.16324
1.16336
1.16349
1.16361
1.16372
1.16384
1.16395
1.16407
1.16418
1.16429
1.16439
1.1645
1.1646
1.16471
1.16482
1.16494
1.16504
1.16514
1.16525
1.16536
1.16547
1.16557
1.16567
1.16577
1.16586
1.16595
1.16604
1.16612
1.16621
1.1663
1.16638
1.16647
1.16655
1.16664
1.16672
1.1668
1.16688
1.16695
1.16703
1.1671
1.16718
1.16725
1.16733
1.1674
1.16748
1.16755
1.16762
1.16769
1.16775
1.16782
1.16789
1.16795
1.16801
1.16807
1.16813
1.16819
1.16825
1.16831
1.16836
1.16842
1.16847
1.16852
1.16858
1.16863
1.16868
1.16873
1.16878
1.16882
1.16887
1.16891
1.16896
1.169
1.16904
1.16908
1.16912
1.16916
1.1692
1.16924
1.16928
1.16931
1.16935
1.16938
1.16941
1.16945
1.16948
1.16951
1.16954
1.16957
1.1696
1.16962
1.16965
1.16967
1.1697
1.16972
1.16974
1.16976
1.16978
1.1698
1.16982
1.16983
1.16985
1.16987
1.16988
1.16989
1.16991
1.16992
1.16993
1.16994
1.16995
1.16996
1.16996
1.16997
1.16998
1.16998
1.16998
1.16999
1.16999
1.16999
1.16999
1.04855
1.04927
1.04998
1.0507
1.05143
1.05215
1.05286
1.05358
1.0543
1.05502
1.05573
1.05643
1.05713
1.05784
1.05856
1.05928
1.05999
1.06071
1.06142
1.06214
1.06283
1.06353
1.06422
1.06489
1.06558
1.06626
1.06692
1.0676
1.0683
1.06898
1.06965
1.07032
1.07099
1.07168
1.07237
1.07302
1.07368
1.07432
1.07494
1.0756
1.07627
1.07693
1.07758
1.07821
1.07886
1.07951
1.08015
1.08078
1.08142
1.08206
1.08271
1.08336
1.08397
1.08458
1.08521
1.08582
1.08643
1.08704
1.08765
1.08826
1.08886
1.08947
1.09008
1.09068
1.09127
1.09188
1.09249
1.09307
1.09365
1.09423
1.0948
1.09535
1.09591
1.09647
1.09704
1.09762
1.09819
1.09875
1.09932
1.09987
1.10042
1.10098
1.10153
1.10207
1.1026
1.10316
1.1037
1.10425
1.10478
1.10531
1.10585
1.10637
1.10689
1.10741
1.10792
1.10842
1.10894
1.10944
1.10994
1.11045
1.11097
1.11146
1.11194
1.11242
1.1129
1.11338
1.11387
1.11435
1.11482
1.1153
1.11577
1.11624
1.1167
1.11717
1.11762
1.11807
1.11852
1.11897
1.11944
1.1199
1.12035
1.12079
1.12124
1.12168
1.12211
1.12256
1.123
1.12343
1.12385
1.12427
1.12469
1.12511
1.12555
1.12597
1.12639
1.12678
1.12717
1.12757
1.12796
1.12834
1.12874
1.12914
1.12953
1.12992
1.13031
1.1307
1.13109
1.13146
1.13182
1.13219
1.13256
1.13292
1.13328
1.13364
1.13401
1.13437
1.13472
1.13509
1.13543
1.13578
1.13612
1.13647
1.13683
1.13718
1.13752
1.13786
1.13819
1.13853
1.13885
1.13918
1.13951
1.13982
1.14013
1.14044
1.14076
1.14106
1.14137
1.14168
1.14198
1.14227
1.14257
1.14287
1.14315
1.14343
1.14372
1.14401
1.1443
1.14461
1.14492
1.14525
1.14555
1.14583
1.1461
1.14638
1.14665
1.14692
1.14719
1.14746
1.14774
1.14802
1.14829
1.14856
1.1488
1.14905
1.1493
1.14955
1.14979
1.15003
1.15027
1.15051
1.15075
1.15098
1.15121
1.15145
1.15167
1.1519
1.15212
1.15234
1.15256
1.15278
1.153
1.15321
1.15342
1.15363
1.15384
1.15405
1.15425
1.15445
1.15466
1.15486
1.15505
1.15525
1.15546
1.15565
1.15585
1.15604
1.15622
1.15641
1.15659
1.15677
1.15695
1.15713
1.1573
1.15747
1.15765
1.15783
1.15803
1.15823
1.15843
1.15861
1.15877
1.15894
1.15911
1.15927
1.15942
1.15958
1.15973
1.15989
1.16005
1.1602
1.16036
1.16051
1.16065
1.1608
1.16095
1.1611
1.16125
1.16139
1.16154
1.16168
1.16182
1.16196
1.16209
1.16222
1.16234
1.16247
1.1626
1.16273
1.16286
1.16299
1.16312
1.16324
1.16336
1.16348
1.1636
1.16372
1.16384
1.16395
1.16406
1.16418
1.16429
1.16439
1.1645
1.1646
1.16472
1.16483
1.16494
1.16504
1.16515
1.16526
1.16537
1.16547
1.16557
1.16567
1.16576
1.16586
1.16595
1.16603
1.16612
1.16621
1.1663
1.16638
1.16647
1.16655
1.16664
1.16672
1.1668
1.16688
1.16695
1.16703
1.1671
1.16718
1.16726
1.16733
1.16741
1.16748
1.16755
1.16762
1.16768
1.16775
1.16782
1.16788
1.16795
1.16801
1.16807
1.16813
1.16819
1.16825
1.16831
1.16836
1.16842
1.16847
1.16852
1.16858
1.16863
1.16868
1.16873
1.16878
1.16882
1.16887
1.16891
1.16896
1.169
1.16904
1.16908
1.16912
1.16916
1.1692
1.16924
1.16928
1.16931
1.16935
1.16938
1.16941
1.16945
1.16948
1.16951
1.16954
1.16957
1.1696
1.16962
1.16965
1.16967
1.1697
1.16972
1.16974
1.16976
1.16978
1.1698
1.16982
1.16983
1.16985
1.16987
1.16988
1.16989
1.16991
1.16992
1.16993
1.16994
1.16995
1.16996
1.16996
1.16997
1.16998
1.16998
1.16998
1.16999
1.16999
1.16999
1.16999
1.04855
1.04926
1.04998
1.05071
1.05144
1.05216
1.05287
1.05359
1.05431
1.05502
1.05573
1.05641
1.05711
1.05786
1.05859
1.05928
1.05998
1.0607
1.0614
1.06213
1.06285
1.06354
1.06422
1.06489
1.06558
1.06625
1.06691
1.0676
1.06829
1.06897
1.06966
1.07034
1.071
1.07169
1.07238
1.07303
1.07366
1.0743
1.07495
1.07562
1.07627
1.07693
1.07758
1.07822
1.07885
1.0795
1.08013
1.08076
1.08142
1.08207
1.08271
1.08335
1.08398
1.08459
1.0852
1.08582
1.08643
1.08704
1.08766
1.08826
1.08886
1.08946
1.09007
1.09068
1.09127
1.09188
1.0925
1.09309
1.09366
1.09423
1.0948
1.09535
1.09591
1.09647
1.09704
1.09762
1.09819
1.09875
1.09931
1.09988
1.10044
1.10098
1.10153
1.10206
1.1026
1.10316
1.1037
1.10424
1.10478
1.10531
1.10584
1.10636
1.10688
1.1074
1.10791
1.10841
1.10893
1.10944
1.10994
1.11045
1.11097
1.11148
1.11195
1.11242
1.11291
1.11339
1.11387
1.11434
1.11481
1.11529
1.11577
1.11623
1.11669
1.11716
1.11763
1.11808
1.11852
1.11897
1.11944
1.1199
1.12034
1.12079
1.12124
1.12167
1.12212
1.12257
1.123
1.12342
1.12384
1.12426
1.12468
1.12511
1.12555
1.12599
1.1264
1.12679
1.12718
1.12757
1.12795
1.12834
1.12874
1.12913
1.12953
1.12992
1.13031
1.1307
1.13108
1.13145
1.13182
1.13219
1.13256
1.13292
1.13328
1.13364
1.13401
1.13437
1.13473
1.13509
1.13543
1.13577
1.13612
1.13647
1.13683
1.13719
1.13752
1.13786
1.1382
1.13855
1.13887
1.13919
1.1395
1.13981
1.14013
1.14044
1.14075
1.14106
1.14137
1.14167
1.14197
1.14227
1.14256
1.14286
1.14315
1.14343
1.14371
1.144
1.14432
1.14465
1.14497
1.14528
1.14556
1.14584
1.14611
1.14638
1.14666
1.14692
1.14719
1.14746
1.14773
1.14801
1.14829
1.14855
1.1488
1.14905
1.1493
1.14954
1.14979
1.15003
1.15027
1.1505
1.15074
1.15098
1.15121
1.15144
1.15167
1.1519
1.15212
1.15234
1.15256
1.15278
1.153
1.15321
1.15342
1.15363
1.15384
1.15405
1.15425
1.15445
1.15465
1.15485
1.15505
1.15526
1.15546
1.15565
1.15585
1.15604
1.15623
1.15641
1.15659
1.15677
1.15695
1.15713
1.1573
1.15747
1.15766
1.15785
1.15805
1.15825
1.15843
1.1586
1.15877
1.15893
1.1591
1.15926
1.15942
1.15957
1.15973
1.15989
1.16005
1.1602
1.16035
1.1605
1.16065
1.1608
1.16095
1.1611
1.16125
1.1614
1.16155
1.16169
1.16182
1.16196
1.16209
1.16221
1.16234
1.16247
1.1626
1.16273
1.16286
1.16299
1.16312
1.16324
1.16336
1.16348
1.1636
1.16372
1.16384
1.16395
1.16407
1.16418
1.16428
1.16439
1.1645
1.16461
1.16472
1.16483
1.16494
1.16505
1.16516
1.16526
1.16537
1.16547
1.16557
1.16567
1.16576
1.16585
1.16594
1.16603
1.16612
1.1662
1.16629
1.16638
1.16647
1.16655
1.16664
1.16672
1.1668
1.16688
1.16695
1.16703
1.1671
1.16718
1.16726
1.16733
1.1674
1.16748
1.16755
1.16761
1.16768
1.16775
1.16782
1.16788
1.16795
1.16801
1.16808
1.16814
1.16819
1.16825
1.16831
1.16836
1.16842
1.16847
1.16852
1.16858
1.16863
1.16868
1.16873
1.16877
1.16882
1.16887
1.16891
1.16896
1.169
1.16904
1.16908
1.16912
1.16916
1.1692
1.16924
1.16928
1.16931
1.16935
1.16938
1.16941
1.16945
1.16948
1.16951
1.16954
1.16957
1.1696
1.16962
1.16965
1.16967
1.1697
1.16972
1.16974
1.16976
1.16978
1.1698
1.16982
1.16983
1.16985
1.16987
1.16988
1.16989
1.16991
1.16992
1.16993
1.16994
1.16995
1.16996
1.16996
1.16997
1.16998
1.16998
1.16998
1.16999
1.16999
1.16999
1.16999
1.04854
1.04924
1.04996
1.05071
1.05143
1.05216
1.05289
1.0536
1.05431
1.05501
1.05572
1.05641
1.05712
1.05786
1.05858
1.0593
1.06001
1.0607
1.0614
1.06211
1.06282
1.06353
1.06423
1.0649
1.06557
1.06626
1.06692
1.0676
1.06827
1.06896
1.06966
1.07034
1.07102
1.0717
1.07238
1.07303
1.07366
1.0743
1.07495
1.07562
1.07627
1.07693
1.07758
1.07821
1.07885
1.0795
1.08013
1.08077
1.08141
1.08206
1.08272
1.08335
1.08397
1.08459
1.08521
1.08582
1.08643
1.08704
1.08765
1.08825
1.08886
1.08945
1.09006
1.09068
1.09127
1.09188
1.09251
1.0931
1.09367
1.09423
1.09479
1.09535
1.09592
1.09649
1.09705
1.09762
1.0982
1.09876
1.09932
1.09987
1.10042
1.10098
1.10153
1.10206
1.1026
1.10315
1.10369
1.10423
1.10478
1.10532
1.10584
1.10635
1.10688
1.1074
1.10791
1.10842
1.10893
1.10943
1.10995
1.11046
1.11097
1.11147
1.11195
1.11244
1.11292
1.11339
1.11386
1.11433
1.11481
1.11529
1.11577
1.11623
1.11669
1.11716
1.11762
1.11808
1.11852
1.11897
1.11943
1.11989
1.12034
1.12079
1.12123
1.12167
1.12212
1.12256
1.12299
1.12342
1.12384
1.12426
1.12469
1.12512
1.12556
1.12599
1.12639
1.12679
1.12719
1.12757
1.12796
1.12835
1.12874
1.12913
1.12952
1.12992
1.13031
1.13069
1.13107
1.13145
1.13182
1.13219
1.13256
1.13292
1.13328
1.13365
1.13401
1.13437
1.13473
1.13507
1.13542
1.13577
1.13612
1.13648
1.13683
1.13718
1.13753
1.13787
1.13822
1.13856
1.13888
1.13919
1.1395
1.13981
1.14012
1.14043
1.14075
1.14106
1.14136
1.14166
1.14196
1.14226
1.14256
1.14285
1.14314
1.14342
1.14371
1.14402
1.14437
1.14471
1.14501
1.14529
1.14557
1.14584
1.14611
1.14638
1.14665
1.14692
1.14718
1.14745
1.14773
1.14801
1.14829
1.14855
1.1488
1.14905
1.14929
1.14954
1.14978
1.15002
1.15026
1.1505
1.15074
1.15097
1.15121
1.15144
1.15167
1.15189
1.15211
1.15234
1.15256
1.15278
1.153
1.15321
1.15342
1.15363
1.15384
1.15405
1.15425
1.15445
1.15465
1.15485
1.15506
1.15525
1.15545
1.15566
1.15586
1.15605
1.15623
1.15641
1.15659
1.15677
1.15695
1.15713
1.1573
1.15748
1.15768
1.15787
1.15806
1.15825
1.15843
1.1586
1.15877
1.15893
1.15909
1.15925
1.15941
1.15957
1.15973
1.15989
1.16004
1.1602
1.16035
1.1605
1.16065
1.1608
1.16095
1.1611
1.16126
1.16141
1.16155
1.16169
1.16182
1.16196
1.16208
1.16221
1.16234
1.16247
1.16261
1.16274
1.16286
1.16299
1.16311
1.16324
1.16336
1.16348
1.1636
1.16372
1.16384
1.16395
1.16406
1.16417
1.16428
1.16439
1.1645
1.16461
1.16473
1.16484
1.16495
1.16506
1.16516
1.16527
1.16537
1.16547
1.16557
1.16567
1.16576
1.16585
1.16594
1.16603
1.16612
1.1662
1.16629
1.16638
1.16647
1.16655
1.16664
1.16672
1.1668
1.16687
1.16695
1.16703
1.16711
1.16718
1.16726
1.16733
1.1674
1.16747
1.16754
1.16761
1.16768
1.16775
1.16782
1.16788
1.16795
1.16801
1.16808
1.16814
1.16819
1.16825
1.16831
1.16836
1.16842
1.16847
1.16852
1.16857
1.16863
1.16868
1.16873
1.16877
1.16882
1.16887
1.16891
1.16896
1.169
1.16904
1.16908
1.16912
1.16916
1.1692
1.16924
1.16928
1.16931
1.16935
1.16938
1.16941
1.16945
1.16948
1.16952
1.16955
1.16957
1.1696
1.16962
1.16965
1.16967
1.1697
1.16972
1.16974
1.16976
1.16978
1.1698
1.16982
1.16983
1.16985
1.16987
1.16988
1.16989
1.16991
1.16992
1.16993
1.16994
1.16995
1.16996
1.16996
1.16997
1.16998
1.16998
1.16998
1.16999
1.16999
1.16999
1.16999
1.04854
1.04925
1.04996
1.05069
1.05142
1.05215
1.05289
1.05361
1.05432
1.05502
1.05572
1.05641
1.05714
1.05787
1.05859
1.0593
1.06
1.0607
1.0614
1.06209
1.06282
1.06353
1.06422
1.06488
1.06556
1.06625
1.06693
1.06761
1.06828
1.06896
1.06966
1.07035
1.07103
1.0717
1.07237
1.07301
1.07367
1.07432
1.07496
1.07561
1.07626
1.07692
1.07757
1.07821
1.07885
1.0795
1.08014
1.08077
1.08141
1.08206
1.08271
1.08334
1.08396
1.08459
1.08521
1.08581
1.08643
1.08704
1.08764
1.08825
1.08885
1.08944
1.09005
1.09069
1.0913
1.09189
1.0925
1.09311
1.09368
1.09423
1.09478
1.09535
1.09593
1.09649
1.09706
1.09763
1.0982
1.09876
1.09932
1.09987
1.10042
1.10098
1.10152
1.10206
1.10261
1.10315
1.10369
1.10424
1.10478
1.10532
1.10584
1.10635
1.10687
1.1074
1.10791
1.10842
1.10892
1.10944
1.10996
1.11046
1.11097
1.11148
1.11196
1.11244
1.11292
1.11339
1.11386
1.11433
1.1148
1.11529
1.11577
1.11623
1.11669
1.11715
1.11762
1.11807
1.11852
1.11897
1.11943
1.11989
1.12035
1.1208
1.12124
1.12167
1.12212
1.12256
1.12299
1.12341
1.12384
1.12427
1.1247
1.12512
1.12555
1.12598
1.12639
1.12679
1.12719
1.12758
1.12797
1.12835
1.12874
1.12913
1.12952
1.12991
1.1303
1.13069
1.13108
1.13145
1.13182
1.13218
1.13255
1.13292
1.13329
1.13365
1.13402
1.13438
1.13472
1.13507
1.13542
1.13577
1.13613
1.13649
1.13684
1.13718
1.13753
1.13788
1.13822
1.13856
1.13887
1.13919
1.1395
1.13981
1.14012
1.14043
1.14074
1.14105
1.14135
1.14166
1.14196
1.14226
1.14255
1.14284
1.14313
1.14341
1.14373
1.14409
1.14443
1.14473
1.14502
1.14529
1.14557
1.14584
1.14611
1.14638
1.14665
1.14692
1.14718
1.14745
1.14773
1.14801
1.14828
1.14855
1.1488
1.14904
1.14929
1.14953
1.14978
1.15002
1.15026
1.1505
1.15073
1.15097
1.15121
1.15143
1.15166
1.15189
1.15211
1.15233
1.15256
1.15278
1.15299
1.15321
1.15342
1.15363
1.15384
1.15404
1.15425
1.15445
1.15465
1.15485
1.15505
1.15525
1.15545
1.15566
1.15586
1.15605
1.15623
1.15641
1.15659
1.15678
1.15696
1.15713
1.15731
1.1575
1.15769
1.15788
1.15807
1.15825
1.15842
1.15859
1.15876
1.15892
1.15909
1.15925
1.15941
1.15957
1.15973
1.15989
1.16004
1.16019
1.16035
1.1605
1.16065
1.1608
1.16095
1.1611
1.16126
1.16141
1.16155
1.16169
1.16182
1.16195
1.16208
1.16221
1.16234
1.16247
1.16261
1.16273
1.16286
1.16299
1.16312
1.16324
1.16336
1.16348
1.1636
1.16372
1.16383
1.16395
1.16406
1.16417
1.16428
1.16439
1.1645
1.16462
1.16474
1.16485
1.16495
1.16506
1.16516
1.16527
1.16537
1.16547
1.16557
1.16567
1.16576
1.16585
1.16594
1.16603
1.16611
1.1662
1.16629
1.16638
1.16647
1.16655
1.16664
1.16672
1.1668
1.16687
1.16695
1.16703
1.16711
1.16718
1.16726
1.16733
1.1674
1.16747
1.16754
1.16761
1.16768
1.16775
1.16782
1.16788
1.16795
1.16801
1.16808
1.16814
1.16819
1.16825
1.16831
1.16836
1.16842
1.16847
1.16852
1.16857
1.16863
1.16868
1.16873
1.16877
1.16882
1.16887
1.16891
1.16896
1.169
1.16904
1.16908
1.16912
1.16916
1.1692
1.16924
1.16928
1.16931
1.16935
1.16938
1.16941
1.16945
1.16948
1.16952
1.16955
1.16957
1.1696
1.16962
1.16965
1.16967
1.1697
1.16972
1.16974
1.16976
1.16978
1.1698
1.16982
1.16983
1.16985
1.16987
1.16988
1.16989
1.16991
1.16992
1.16993
1.16994
1.16995
1.16996
1.16996
1.16997
1.16998
1.16998
1.16999
1.16999
1.16999
1.16999
1.16999
1.04854
1.04926
1.04997
1.05068
1.05142
1.05215
1.05288
1.0536
1.05433
1.05503
1.05574
1.05643
1.05714
1.05788
1.05859
1.05929
1.05999
1.06071
1.06142
1.0621
1.0628
1.06351
1.0642
1.06488
1.06556
1.06624
1.06694
1.06763
1.06829
1.06897
1.06967
1.07035
1.07102
1.0717
1.07237
1.07302
1.07367
1.07431
1.07495
1.07561
1.07626
1.07691
1.07757
1.07821
1.07885
1.0795
1.08014
1.08078
1.08142
1.08207
1.08271
1.08333
1.08397
1.08459
1.0852
1.08581
1.08642
1.08703
1.08763
1.08824
1.08885
1.08945
1.09006
1.09069
1.0913
1.0919
1.09251
1.09311
1.09368
1.09424
1.09479
1.09536
1.09594
1.0965
1.09706
1.09763
1.0982
1.09876
1.09931
1.09986
1.10042
1.10097
1.10152
1.10207
1.10262
1.10316
1.10369
1.10423
1.10478
1.10532
1.10583
1.10635
1.10687
1.10739
1.1079
1.10841
1.10892
1.10943
1.10995
1.11047
1.11099
1.11148
1.11196
1.11245
1.11291
1.11338
1.11385
1.11432
1.1148
1.11529
1.11576
1.11623
1.11669
1.11715
1.11761
1.11806
1.11852
1.11898
1.11945
1.1199
1.12035
1.1208
1.12123
1.12167
1.12213
1.12257
1.12299
1.12341
1.12384
1.12428
1.1247
1.12512
1.12555
1.12597
1.12639
1.1268
1.12719
1.12758
1.12797
1.12835
1.12874
1.12913
1.12952
1.12991
1.1303
1.13069
1.13107
1.13144
1.13181
1.13218
1.13255
1.13292
1.13328
1.13365
1.13402
1.13437
1.13472
1.13507
1.13542
1.13577
1.13613
1.13649
1.13684
1.13719
1.13754
1.13788
1.13822
1.13855
1.13887
1.13919
1.1395
1.13981
1.14011
1.14043
1.14074
1.14104
1.14135
1.14165
1.14196
1.14225
1.14255
1.14283
1.14313
1.14344
1.14379
1.14414
1.14445
1.14474
1.14502
1.14529
1.14557
1.14584
1.14611
1.14637
1.14664
1.14692
1.14718
1.14746
1.14773
1.14801
1.14828
1.14854
1.14879
1.14904
1.14928
1.14953
1.14977
1.15002
1.15026
1.1505
1.15073
1.15097
1.1512
1.15143
1.15166
1.15188
1.15211
1.15233
1.15256
1.15278
1.15299
1.1532
1.15341
1.15363
1.15384
1.15405
1.15425
1.15445
1.15465
1.15485
1.15505
1.15525
1.15546
1.15566
1.15586
1.15605
1.15623
1.15642
1.1566
1.15678
1.15696
1.15714
1.15732
1.15751
1.1577
1.15788
1.15807
1.15824
1.15842
1.15859
1.15876
1.15892
1.15908
1.15925
1.15941
1.15957
1.15973
1.15988
1.16004
1.16019
1.16034
1.1605
1.16065
1.1608
1.16095
1.16111
1.16126
1.16141
1.16155
1.16169
1.16182
1.16195
1.16208
1.16221
1.16234
1.16247
1.16261
1.16273
1.16286
1.16299
1.16311
1.16324
1.16336
1.16348
1.1636
1.16371
1.16383
1.16395
1.16406
1.16418
1.16428
1.1644
1.16451
1.16463
1.16474
1.16485
1.16495
1.16506
1.16516
1.16527
1.16537
1.16547
1.16557
1.16566
1.16576
1.16585
1.16594
1.16603
1.16612
1.1662
1.16629
1.16638
1.16647
1.16655
1.16663
1.16672
1.1668
1.16687
1.16695
1.16703
1.16711
1.16718
1.16726
1.16733
1.1674
1.16747
1.16754
1.16761
1.16768
1.16775
1.16782
1.16788
1.16795
1.16801
1.16808
1.16814
1.16819
1.16825
1.16831
1.16836
1.16842
1.16847
1.16852
1.16857
1.16863
1.16868
1.16872
1.16877
1.16882
1.16887
1.16891
1.16896
1.169
1.16904
1.16908
1.16912
1.16916
1.1692
1.16924
1.16928
1.16931
1.16935
1.16938
1.16942
1.16945
1.16948
1.16951
1.16954
1.16957
1.1696
1.16962
1.16965
1.16967
1.1697
1.16972
1.16974
1.16976
1.16978
1.1698
1.16982
1.16983
1.16985
1.16987
1.16988
1.16989
1.16991
1.16992
1.16993
1.16994
1.16995
1.16996
1.16996
1.16997
1.16998
1.16998
1.16999
1.16999
1.16999
1.16999
1.16999
1.04855
1.04926
1.04997
1.0507
1.05142
1.05215
1.05288
1.0536
1.05432
1.05502
1.05573
1.05644
1.05716
1.05789
1.0586
1.05929
1.06
1.06072
1.06141
1.0621
1.0628
1.0635
1.06419
1.06489
1.06557
1.06625
1.06695
1.06763
1.0683
1.06898
1.06967
1.07035
1.07102
1.0717
1.07238
1.07302
1.07366
1.07429
1.07494
1.0756
1.07627
1.07692
1.07756
1.07821
1.07886
1.0795
1.08015
1.08079
1.08143
1.08208
1.08271
1.08332
1.08395
1.08459
1.0852
1.08581
1.08642
1.08702
1.08762
1.08824
1.08885
1.08945
1.09006
1.09068
1.0913
1.09192
1.09253
1.09311
1.09369
1.09424
1.0948
1.09536
1.09594
1.0965
1.09706
1.09764
1.09821
1.09876
1.0993
1.09985
1.10041
1.10097
1.10152
1.10207
1.10262
1.10315
1.10369
1.10423
1.10477
1.10531
1.10584
1.10635
1.10687
1.10738
1.10789
1.10841
1.10892
1.10943
1.10995
1.11048
1.11099
1.11148
1.11197
1.11244
1.11292
1.11339
1.11385
1.11432
1.1148
1.11528
1.11575
1.11622
1.11669
1.11715
1.11761
1.11806
1.11852
1.11899
1.11944
1.1199
1.12035
1.1208
1.12123
1.12168
1.12212
1.12256
1.12299
1.12341
1.12384
1.12426
1.12469
1.12512
1.12555
1.12599
1.1264
1.1268
1.12719
1.12758
1.12796
1.12835
1.12874
1.12914
1.12953
1.12991
1.1303
1.13068
1.13106
1.13144
1.13181
1.13218
1.13255
1.13292
1.13328
1.13365
1.13401
1.13437
1.13473
1.13508
1.13543
1.13578
1.13613
1.13648
1.13684
1.1372
1.13755
1.13789
1.13822
1.13855
1.13887
1.13918
1.1395
1.13981
1.14012
1.14043
1.14073
1.14104
1.14135
1.14166
1.14196
1.14225
1.14254
1.14284
1.14316
1.14349
1.14384
1.14416
1.14445
1.14474
1.14501
1.14529
1.14556
1.14584
1.14611
1.14637
1.14664
1.14691
1.14718
1.14746
1.14773
1.148
1.14828
1.14854
1.14879
1.14903
1.14928
1.14952
1.14977
1.15001
1.15025
1.15049
1.15073
1.15097
1.1512
1.15143
1.15166
1.15188
1.15211
1.15233
1.15255
1.15277
1.15299
1.1532
1.15341
1.15363
1.15384
1.15405
1.15425
1.15445
1.15465
1.15485
1.15505
1.15525
1.15546
1.15567
1.15587
1.15605
1.15623
1.15642
1.15661
1.15679
1.15697
1.15715
1.15733
1.15751
1.1577
1.15788
1.15806
1.15824
1.15842
1.15859
1.15875
1.15892
1.15908
1.15924
1.15941
1.15957
1.15972
1.15988
1.16004
1.16019
1.16034
1.1605
1.16065
1.1608
1.16096
1.16111
1.16126
1.16141
1.16155
1.16169
1.16182
1.16195
1.16208
1.16221
1.16234
1.16248
1.16261
1.16273
1.16286
1.16299
1.16311
1.16324
1.16336
1.16348
1.1636
1.16371
1.16383
1.16395
1.16406
1.16417
1.16429
1.1644
1.16452
1.16463
1.16474
1.16485
1.16495
1.16506
1.16516
1.16527
1.16537
1.16547
1.16557
1.16566
1.16576
1.16585
1.16594
1.16602
1.16611
1.1662
1.16629
1.16638
1.16647
1.16655
1.16663
1.16672
1.1668
1.16687
1.16695
1.16703
1.16711
1.16718
1.16726
1.16733
1.1674
1.16747
1.16754
1.16761
1.16768
1.16775
1.16782
1.16788
1.16795
1.16801
1.16808
1.16814
1.16819
1.16825
1.16831
1.16836
1.16842
1.16847
1.16852
1.16857
1.16863
1.16868
1.16872
1.16877
1.16882
1.16887
1.16891
1.16896
1.169
1.16904
1.16908
1.16912
1.16916
1.1692
1.16924
1.16928
1.16931
1.16935
1.16938
1.16942
1.16945
1.16948
1.16951
1.16954
1.16957
1.1696
1.16962
1.16965
1.16967
1.1697
1.16972
1.16974
1.16976
1.16978
1.1698
1.16982
1.16983
1.16985
1.16987
1.16988
1.16989
1.16991
1.16992
1.16993
1.16994
1.16995
1.16996
1.16996
1.16997
1.16998
1.16998
1.16999
1.16999
1.16999
1.16999
1.16999
1.04856
1.04928
1.04998
1.05068
1.05142
1.05215
1.05287
1.05359
1.05431
1.05501
1.05573
1.05644
1.05717
1.05788
1.0586
1.0593
1.06
1.06071
1.0614
1.06209
1.06278
1.0635
1.06421
1.06489
1.06558
1.06627
1.06695
1.06762
1.06831
1.06899
1.06966
1.07035
1.07103
1.0717
1.07236
1.07301
1.07366
1.0743
1.07493
1.07559
1.07626
1.07692
1.07756
1.07821
1.07886
1.0795
1.08015
1.08079
1.08144
1.08208
1.08271
1.08332
1.08395
1.08458
1.08519
1.0858
1.08642
1.08702
1.08762
1.08823
1.08884
1.08945
1.09006
1.09068
1.09131
1.09193
1.09254
1.09312
1.09369
1.09424
1.0948
1.09536
1.09593
1.0965
1.09707
1.09764
1.09821
1.09876
1.0993
1.09986
1.10041
1.10096
1.10152
1.10207
1.10262
1.10316
1.10369
1.10423
1.10477
1.10531
1.10583
1.10635
1.10687
1.10739
1.10789
1.1084
1.10892
1.10943
1.10996
1.11048
1.11099
1.11148
1.11197
1.11244
1.11291
1.11338
1.11386
1.11433
1.1148