/*--------------------------------*- C++ -*----------------------------------*\
  =========                 |
  \\      /  F ield         | OpenFOAM: The Open Source CFD Toolbox
   \\    /   O peration     | Website:  https://openfoam.org
    \\  /    A nd           | Version:  7
     \\/     M anipulation  |
\*---------------------------------------------------------------------------*/
FoamFile
{
    version     2.0;
    format      ascii;
    class       volScalarField;
    location    "2000";
    object      T;
}
// * * * * * * * * * * * * * * * * * * * * * * * * * * * * * * * * * * * * * //

dimensions      [0 0 0 1 0 0 0];

internalField   nonuniform List<scalar> 
160000
(
339.859
339.58
339.304
339.025
338.74
338.459
338.18
337.909
337.646
337.371
337.091
336.822
336.552
336.277
336.013
335.753
335.492
335.233
334.97
334.708
334.45
334.195
333.946
333.698
333.449
333.198
332.946
332.701
332.459
332.22
331.989
331.754
331.504
331.256
331.022
330.788
330.557
330.33
330.11
329.892
329.663
329.431
329.199
328.978
328.763
328.54
328.323
328.111
327.894
327.672
327.455
327.238
327.026
326.82
326.612
326.41
326.203
325.995
325.798
325.603
325.397
325.189
324.993
324.8
324.612
324.416
324.216
324.018
323.827
323.651
323.467
323.279
323.096
322.915
322.735
322.554
322.372
322.194
322.016
321.838
321.661
321.48
321.302
321.131
320.96
320.788
320.618
320.454
320.291
320.123
319.959
319.796
319.628
319.46
319.299
319.145
318.991
318.835
318.679
318.527
318.375
318.225
318.077
317.924
317.779
317.633
317.487
317.343
317.196
317.049
316.902
316.762
316.624
316.485
316.35
316.214
316.079
315.946
315.808
315.669
315.533
315.402
315.272
315.141
315.011
314.879
314.745
314.618
314.494
314.368
314.244
314.124
314.004
313.879
313.753
313.633
313.517
313.401
313.287
313.177
313.065
312.946
312.833
312.724
312.607
312.493
312.383
312.274
312.166
312.061
311.957
311.853
311.751
311.647
311.543
311.442
311.34
311.237
311.134
311.033
310.933
310.835
310.737
310.637
310.54
310.447
310.35
310.257
310.166
310.075
309.984
309.889
309.799
309.71
309.62
309.535
309.451
309.367
309.281
309.193
309.111
309.029
308.946
308.868
308.789
308.709
308.628
308.547
308.467
308.385
308.3
308.217
308.137
308.059
307.978
307.905
307.836
307.761
307.678
307.595
307.517
307.444
307.376
307.31
307.245
307.178
307.108
307.04
306.974
306.909
306.845
306.78
306.717
306.655
306.593
306.532
306.472
306.413
306.351
306.288
306.228
306.169
306.113
306.059
306.004
305.948
305.891
305.836
305.78
305.724
305.671
305.619
305.565
305.511
305.457
305.405
305.354
305.304
305.255
305.206
305.157
305.11
305.063
305.016
304.97
304.923
304.875
304.825
304.771
304.716
304.665
304.617
304.572
304.53
304.49
304.448
304.407
304.368
304.328
304.284
304.238
304.195
304.156
304.119
304.081
304.042
304.002
303.965
303.928
303.888
303.849
303.813
303.778
303.742
303.708
303.675
303.642
303.607
303.571
303.537
303.504
303.471
303.439
303.406
303.373
303.341
303.31
303.279
303.25
303.22
303.191
303.163
303.136
303.107
303.079
303.05
303.021
302.993
302.967
302.941
302.913
302.883
302.853
302.824
302.798
302.773
302.749
302.726
302.704
302.681
302.659
302.637
302.615
302.593
302.57
302.547
302.525
302.504
302.485
302.466
302.446
302.427
302.408
302.389
302.369
302.349
302.329
302.31
302.292
302.274
302.257
302.24
302.223
302.207
302.191
302.175
302.16
302.145
302.13
302.114
302.1
302.086
302.072
302.058
302.044
302.031
302.019
302.006
301.994
301.981
301.969
301.958
301.947
301.936
301.925
301.914
301.904
301.894
301.884
301.874
301.865
301.856
301.847
301.838
301.83
301.821
301.813
301.805
301.797
301.79
301.783
301.777
301.771
301.764
301.758
301.753
301.747
301.742
301.737
301.733
301.728
301.724
301.72
301.716
301.712
301.709
301.706
301.703
301.7
301.698
301.696
301.694
301.692
301.691
301.69
301.689
301.688
301.687
301.687
301.686
339.853
339.572
339.3
339.022
338.741
338.463
338.185
337.91
337.641
337.368
337.091
336.819
336.554
336.287
336.017
335.753
335.498
335.234
334.965
334.701
334.444
334.193
333.943
333.691
333.445
333.204
332.955
332.704
332.461
332.222
331.984
331.746
331.502
331.257
331.022
330.791
330.555
330.333
330.119
329.891
329.657
329.43
329.201
328.98
328.765
328.539
328.321
328.111
327.897
327.672
327.45
327.237
327.03
326.819
326.612
326.412
326.204
325.999
325.798
325.598
325.396
325.193
324.994
324.801
324.609
324.41
324.216
324.024
323.834
323.65
323.463
323.276
323.094
322.916
322.736
322.554
322.371
322.193
322.015
321.838
321.658
321.48
321.305
321.135
320.963
320.787
320.617
320.453
320.289
320.124
319.957
319.793
319.627
319.46
319.302
319.148
318.992
318.836
318.68
318.527
318.375
318.222
318.075
317.928
317.778
317.633
317.488
317.341
317.194
317.048
316.902
316.761
316.624
316.487
316.351
316.215
316.08
315.945
315.808
315.67
315.532
315.4
315.27
315.139
315.009
314.878
314.747
314.62
314.495
314.369
314.245
314.125
314.004
313.876
313.751
313.635
313.519
313.401
313.288
313.178
313.065
312.948
312.834
312.721
312.606
312.493
312.384
312.274
312.167
312.064
311.958
311.852
311.751
311.648
311.544
311.44
311.338
311.236
311.134
311.034
310.935
310.835
310.736
310.637
310.541
310.446
310.35
310.257
310.166
310.074
309.981
309.888
309.799
309.711
309.621
309.536
309.451
309.365
309.28
309.195
309.112
309.03
308.948
308.869
308.79
308.709
308.628
308.548
308.467
308.384
308.298
308.214
308.134
308.056
307.979
307.907
307.835
307.756
307.674
307.595
307.519
307.447
307.378
307.312
307.246
307.177
307.107
307.04
306.975
306.91
306.845
306.78
306.718
306.656
306.593
306.532
306.473
306.412
306.349
306.288
306.228
306.171
306.115
306.06
306.004
305.947
305.89
305.835
305.78
305.725
305.672
305.619
305.565
305.509
305.456
305.405
305.355
305.304
305.255
305.206
305.158
305.111
305.064
305.016
304.97
304.923
304.875
304.823
304.767
304.713
304.664
304.618
304.574
304.531
304.49
304.448
304.408
304.368
304.327
304.282
304.237
304.197
304.158
304.12
304.081
304.041
304.002
303.965
303.927
303.887
303.849
303.813
303.777
303.742
303.708
303.675
303.642
303.606
303.571
303.537
303.504
303.471
303.439
303.406
303.373
303.341
303.31
303.28
303.25
303.22
303.192
303.164
303.136
303.107
303.078
303.05
303.021
302.993
302.967
302.94
302.911
302.88
302.851
302.824
302.798
302.774
302.75
302.727
302.704
302.682
302.659
302.637
302.615
302.593
302.57
302.547
302.525
302.505
302.485
302.466
302.447
302.428
302.408
302.388
302.368
302.348
302.329
302.311
302.292
302.274
302.257
302.24
302.223
302.207
302.191
302.175
302.16
302.145
302.129
302.115
302.1
302.086
302.072
302.058
302.045
302.032
302.019
302.006
301.993
301.981
301.97
301.958
301.947
301.936
301.925
301.914
301.904
301.894
301.884
301.874
301.865
301.856
301.847
301.838
301.829
301.821
301.813
301.805
301.797
301.79
301.783
301.777
301.771
301.764
301.758
301.753
301.747
301.742
301.737
301.733
301.728
301.724
301.72
301.716
301.712
301.709
301.706
301.703
301.7
301.698
301.696
301.694
301.692
301.691
301.69
301.689
301.688
301.687
301.687
301.686
339.857
339.578
339.299
339.021
338.741
338.46
338.188
337.91
337.638
337.369
337.091
336.818
336.556
336.293
336.021
335.756
335.495
335.225
334.962
334.701
334.443
334.189
333.937
333.69
333.445
333.202
332.958
332.712
332.463
332.218
331.983
331.745
331.503
331.257
331.019
330.79
330.56
330.335
330.115
329.889
329.658
329.43
329.205
328.986
328.762
328.536
328.321
328.111
327.897
327.672
327.448
327.235
327.029
326.823
326.615
326.412
326.207
326.002
325.796
325.593
325.396
325.198
324.996
324.798
324.607
324.408
324.21
324.02
323.834
323.647
323.463
323.282
323.095
322.915
322.737
322.554
322.373
322.193
322.011
321.834
321.659
321.482
321.304
321.134
320.964
320.792
320.622
320.452
320.284
320.121
319.955
319.788
319.626
319.464
319.304
319.15
318.995
318.838
318.682
318.526
318.374
318.222
318.073
317.927
317.779
317.632
317.484
317.339
317.195
317.049
316.904
316.764
316.624
316.487
316.351
316.215
316.08
315.945
315.806
315.668
315.533
315.401
315.27
315.138
315.008
314.878
314.748
314.622
314.495
314.371
314.249
314.125
313.998
313.873
313.751
313.634
313.519
313.404
313.29
313.178
313.066
312.948
312.832
312.72
312.606
312.493
312.384
312.275
312.169
312.064
311.958
311.853
311.752
311.648
311.541
311.438
311.337
311.235
311.134
311.034
310.936
310.837
310.736
310.638
310.541
310.445
310.349
310.256
310.165
310.072
309.979
309.888
309.798
309.709
309.623
309.538
309.452
309.365
309.28
309.197
309.113
309.031
308.951
308.871
308.791
308.711
308.63
308.549
308.466
308.379
308.29
308.207
308.131
308.054
307.979
307.904
307.829
307.752
307.674
307.596
307.521
307.45
307.381
307.313
307.245
307.176
307.108
307.042
306.976
306.91
306.845
306.782
306.719
306.656
306.594
306.533
306.472
306.411
306.349
306.289
306.23
306.173
306.116
306.06
306.003
305.946
305.89
305.835
305.78
305.725
305.672
305.619
305.564
305.509
305.457
305.405
305.354
305.304
305.256
305.207
305.158
305.11
305.063
305.016
304.97
304.923
304.873
304.818
304.762
304.711
304.665
304.62
304.575
304.532
304.491
304.449
304.408
304.367
304.325
304.281
304.239
304.199
304.16
304.12
304.081
304.041
304.003
303.964
303.925
303.886
303.85
303.813
303.777
303.742
303.709
303.675
303.641
303.606
303.571
303.537
303.504
303.471
303.438
303.405
303.373
303.341
303.311
303.28
303.251
303.221
303.192
303.164
303.136
303.108
303.079
303.05
303.02
302.992
302.965
302.937
302.907
302.878
302.851
302.825
302.8
302.775
302.751
302.728
302.705
302.682
302.66
302.637
302.615
302.592
302.569
302.547
302.526
302.506
302.486
302.466
302.447
302.427
302.408
302.387
302.367
302.348
302.329
302.311
302.293
302.275
302.257
302.24
302.223
302.207
302.191
302.175
302.16
302.144
302.129
302.115
302.1
302.086
302.072
302.058
302.045
302.032
302.019
302.006
301.993
301.982
301.97
301.958
301.947
301.936
301.925
301.914
301.904
301.894
301.884
301.874
301.865
301.856
301.847
301.838
301.829
301.821
301.812
301.805
301.797
301.79
301.783
301.777
301.771
301.764
301.758
301.753
301.747
301.742
301.737
301.733
301.728
301.724
301.72
301.716
301.712
301.709
301.706
301.703
301.7
301.698
301.696
301.694
301.692
301.691
301.69
301.688
301.688
301.687
301.687
301.686
339.858
339.578
339.298
339.018
338.737
338.456
338.183
337.908
337.634
337.36
337.088
336.825
336.56
336.293
336.024
335.757
335.494
335.225
334.962
334.699
334.444
334.188
333.936
333.694
333.442
333.196
332.959
332.713
332.461
332.219
331.982
331.744
331.504
331.26
331.019
330.789
330.559
330.336
330.119
329.89
329.657
329.428
329.205
328.986
328.764
328.541
328.324
328.109
327.892
327.673
327.454
327.234
327.028
326.824
326.614
326.409
326.206
326.003
325.799
325.597
325.399
325.199
324.996
324.799
324.605
324.407
324.209
324.018
323.832
323.643
323.459
323.282
323.101
322.921
322.738
322.55
322.369
322.19
322.007
321.833
321.659
321.48
321.306
321.138
320.968
320.794
320.623
320.452
320.286
320.118
319.953
319.79
319.627
319.465
319.309
319.152
318.994
318.839
318.685
318.527
318.37
318.219
318.071
317.925
317.779
317.631
317.484
317.339
317.195
317.049
316.907
316.767
316.626
316.487
316.35
316.215
316.081
315.944
315.804
315.667
315.534
315.402
315.269
315.139
315.01
314.878
314.747
314.62
314.496
314.372
314.249
314.123
313.996
313.871
313.75
313.634
313.52
313.405
313.291
313.178
313.062
312.947
312.835
312.721
312.607
312.494
312.383
312.275
312.17
312.065
311.958
311.853
311.75
311.647
311.542
311.439
311.337
311.233
311.134
311.036
310.937
310.837
310.736
310.636
310.539
310.444
310.349
310.254
310.162
310.069
309.977
309.888
309.801
309.713
309.625
309.538
309.451
309.365
309.282
309.199
309.115
309.032
308.953
308.873
308.793
308.712
308.63
308.546
308.458
308.367
308.283
308.205
308.129
308.053
307.977
307.902
307.828
307.753
307.676
307.598
307.523
307.451
307.382
307.314
307.245
307.177
307.11
307.044
306.978
306.912
306.847
306.784
306.72
306.656
306.593
306.532
306.472
306.411
306.35
306.291
306.232
306.174
306.116
306.06
306.002
305.945
305.889
305.835
305.78
305.725
305.672
305.617
305.563
305.509
305.456
305.405
305.354
305.305
305.256
305.207
305.158
305.111
305.064
305.017
304.97
304.921
304.867
304.811
304.759
304.711
304.666
304.621
304.577
304.534
304.492
304.45
304.409
304.367
304.324
304.282
304.241
304.201
304.161
304.121
304.081
304.041
304.002
303.963
303.924
303.886
303.85
303.813
303.777
303.743
303.709
303.676
303.641
303.606
303.571
303.537
303.503
303.471
303.438
303.406
303.374
303.342
303.311
303.281
303.251
303.221
303.192
303.164
303.136
303.108
303.078
303.048
303.019
302.991
302.963
302.934
302.905
302.877
302.851
302.826
302.8
302.776
302.752
302.729
302.706
302.683
302.66
302.637
302.615
302.592
302.57
302.548
302.527
302.506
302.486
302.466
302.446
302.427
302.406
302.386
302.367
302.348
302.33
302.311
302.293
302.275
302.258
302.24
302.224
302.207
302.191
302.175
302.159
302.144
302.129
302.115
302.101
302.086
302.073
302.059
302.045
302.031
302.019
302.006
301.994
301.982
301.97
301.958
301.947
301.936
301.925
301.914
301.904
301.894
301.884
301.874
301.865
301.856
301.847
301.838
301.829
301.82
301.812
301.804
301.797
301.79
301.783
301.777
301.771
301.764
301.758
301.753
301.747
301.742
301.737
301.733
301.728
301.724
301.72
301.716
301.712
301.709
301.706
301.703
301.7
301.698
301.696
301.694
301.692
301.691
301.689
301.688
301.688
301.687
301.687
301.686
339.859
339.581
339.299
339.014
338.734
338.454
338.18
337.907
337.629
337.358
337.089
336.831
336.57
336.289
336.014
335.755
335.494
335.23
334.968
334.7
334.439
334.185
333.936
333.692
333.443
333.2
332.963
332.715
332.468
332.223
331.976
331.737
331.502
331.257
331.013
330.787
330.565
330.342
330.115
329.883
329.657
329.43
329.203
328.984
328.766
328.545
328.329
328.114
327.891
327.669
327.453
327.237
327.027
326.821
326.615
326.409
326.205
326.003
325.798
325.598
325.401
325.202
325
324.801
324.608
324.408
324.206
324.012
323.827
323.642
323.46
323.282
323.101
322.919
322.737
322.55
322.367
322.188
322.011
321.831
321.653
321.481
321.308
321.138
320.969
320.794
320.622
320.454
320.285
320.118
319.953
319.792
319.629
319.468
319.311
319.155
318.995
318.838
318.684
318.528
318.368
318.212
318.068
317.924
317.777
317.631
317.484
317.341
317.197
317.051
316.908
316.769
316.63
316.488
316.346
316.211
316.08
315.945
315.805
315.669
315.535
315.402
315.27
315.14
315.009
314.875
314.747
314.622
314.498
314.374
314.25
314.123
313.994
313.867
313.747
313.632
313.518
313.405
313.292
313.178
313.063
312.949
312.834
312.72
312.607
312.495
312.384
312.277
312.171
312.064
311.959
311.855
311.751
311.647
311.542
311.438
311.335
311.233
311.136
311.038
310.939
310.838
310.736
310.635
310.539
310.444
310.346
310.249
310.157
310.067
309.978
309.89
309.802
309.714
309.627
309.539
309.453
309.367
309.283
309.2
309.118
309.035
308.953
308.874
308.795
308.714
308.627
308.535
308.444
308.358
308.279
308.203
308.128
308.052
307.976
307.902
307.829
307.754
307.678
307.6
307.524
307.451
307.382
307.314
307.246
307.178
307.111
307.045
306.98
306.914
306.85
306.785
306.72
306.656
306.594
306.533
306.472
306.412
306.351
306.291
306.232
306.174
306.117
306.059
306.002
305.945
305.89
305.835
305.78
305.726
305.672
305.617
305.563
305.509
305.455
305.403
305.353
305.304
305.256
305.208
305.159
305.11
305.063
305.016
304.967
304.915
304.86
304.808
304.759
304.712
304.667
304.623
304.579
304.536
304.493
304.451
304.409
304.367
304.324
304.283
304.242
304.202
304.162
304.122
304.082
304.042
304.001
303.961
303.922
303.885
303.849
303.813
303.778
303.744
303.71
303.675
303.64
303.605
303.571
303.537
303.504
303.471
303.438
303.406
303.374
303.343
303.312
303.281
303.251
303.221
303.193
303.165
303.137
303.107
303.076
303.047
303.018
302.989
302.961
302.933
302.905
302.877
302.851
302.826
302.801
302.777
302.753
302.73
302.707
302.684
302.661
302.638
302.615
302.592
302.569
302.548
302.527
302.507
302.486
302.466
302.446
302.426
302.406
302.386
302.367
302.348
302.33
302.312
302.294
302.276
302.258
302.241
302.224
302.207
302.19
302.174
302.159
302.144
302.129
302.115
302.101
302.087
302.073
302.059
302.045
302.032
302.019
302.006
301.994
301.982
301.97
301.959
301.947
301.936
301.925
301.914
301.904
301.894
301.884
301.874
301.865
301.856
301.847
301.838
301.829
301.82
301.812
301.804
301.797
301.79
301.783
301.777
301.77
301.764
301.758
301.753
301.747
301.742
301.737
301.733
301.728
301.724
301.72
301.716
301.712
301.709
301.706
301.703
301.7
301.698
301.696
301.694
301.692
301.691
301.689
301.688
301.688
301.687
301.687
301.686
339.86
339.587
339.307
339.016
338.735
338.452
338.174
337.899
337.629
337.364
337.094
336.831
336.565
336.288
336.018
335.749
335.486
335.23
334.972
334.709
334.446
334.187
333.933
333.689
333.446
333.198
332.957
332.715
332.473
332.228
331.976
331.735
331.496
331.254
331.015
330.787
330.565
330.341
330.113
329.883
329.656
329.429
329.205
328.987
328.767
328.546
328.328
328.112
327.895
327.673
327.45
327.238
327.03
326.82
326.614
326.411
326.205
326.001
325.8
325.6
325.401
325.205
325.004
324.802
324.606
324.406
324.202
324.009
323.826
323.642
323.461
323.281
323.096
322.913
322.735
322.55
322.366
322.186
322.009
321.833
321.657
321.481
321.308
321.139
320.968
320.795
320.625
320.456
320.285
320.116
319.954
319.795
319.631
319.468
319.312
319.153
318.995
318.84
318.682
318.524
318.368
318.215
318.068
317.92
317.774
317.63
317.486
317.344
317.2
317.052
316.907
316.767
316.63
316.49
316.349
316.213
316.079
315.945
315.808
315.669
315.535
315.402
315.27
315.14
315.007
314.877
314.749
314.623
314.498
314.374
314.248
314.12
313.992
313.867
313.748
313.632
313.516
313.403
313.29
313.178
313.064
312.95
312.836
312.721
312.607
312.496
312.386
312.278
312.17
312.064
311.959
311.855
311.75
311.645
311.54
311.437
311.336
311.237
311.138
311.039
310.938
310.836
310.736
310.636
310.538
310.44
310.342
310.246
310.156
310.067
309.978
309.891
309.804
309.716
309.627
309.54
309.455
309.369
309.285
309.202
309.118
309.036
308.956
308.878
308.797
308.709
308.612
308.518
308.434
308.355
308.279
308.203
308.128
308.052
307.977
307.903
307.83
307.755
307.678
307.601
307.525
307.452
307.383
307.315
307.247
307.179
307.113
307.047
306.981
306.915
306.85
306.785
306.721
306.657
306.595
306.533
306.473
306.412
306.351
306.29
306.232
306.174
306.117
306.059
306.002
305.946
305.89
305.835
305.781
305.726
305.671
305.617
305.564
305.508
305.454
305.402
305.353
305.304
305.256
305.207
305.158
305.11
305.063
305.014
304.962
304.909
304.858
304.807
304.759
304.713
304.668
304.624
304.581
304.537
304.494
304.451
304.409
304.367
304.325
304.284
304.243
304.203
304.163
304.123
304.082
304.042
304
303.959
303.92
303.884
303.848
303.813
303.779
303.745
303.71
303.675
303.64
303.605
303.571
303.537
303.504
303.471
303.439
303.407
303.375
303.343
303.312
303.282
303.252
303.222
303.193
303.165
303.137
303.105
303.074
303.045
303.016
302.988
302.96
302.932
302.905
302.877
302.851
302.826
302.801
302.777
302.754
302.73
302.708
302.684
302.661
302.637
302.614
302.591
302.569
302.548
302.527
302.507
302.486
302.466
302.446
302.425
302.406
302.386
302.367
302.349
302.33
302.312
302.294
302.276
302.258
302.241
302.224
302.207
302.19
302.174
302.159
302.144
302.129
302.115
302.101
302.086
302.073
302.059
302.045
302.032
302.019
302.006
301.994
301.982
301.97
301.959
301.947
301.936
301.925
301.914
301.904
301.894
301.884
301.874
301.865
301.856
301.847
301.838
301.829
301.82
301.812
301.804
301.797
301.79
301.783
301.777
301.77
301.764
301.759
301.753
301.748
301.742
301.737
301.733
301.728
301.724
301.72
301.716
301.712
301.709
301.706
301.703
301.7
301.698
301.696
301.694
301.692
301.691
301.689
301.688
301.688
301.687
301.687
301.686
339.861
339.585
339.307
339.023
338.741
338.456
338.171
337.896
337.625
337.358
337.093
336.831
336.559
336.282
336.013
335.749
335.488
335.229
334.972
334.716
334.449
334.187
333.938
333.695
333.45
333.198
332.954
332.711
332.469
332.226
331.977
331.73
331.492
331.254
331.019
330.792
330.564
330.336
330.111
329.887
329.66
329.43
329.206
328.988
328.766
328.543
328.327
328.111
327.893
327.675
327.453
327.239
327.032
326.82
326.612
326.411
326.207
326.003
325.802
325.601
325.403
325.208
325.007
324.798
324.597
324.404
324.205
324.007
323.822
323.642
323.463
323.28
323.093
322.912
322.731
322.547
322.367
322.187
322.009
321.834
321.657
321.481
321.311
321.139
320.966
320.795
320.626
320.456
320.286
320.118
319.955
319.796
319.634
319.47
319.31
319.155
319
318.84
318.679
318.524
318.367
318.213
318.066
317.918
317.774
317.63
317.486
317.345
317.2
317.051
316.908
316.769
316.631
316.491
316.351
316.214
316.081
315.945
315.807
315.67
315.534
315.4
315.27
315.14
315.007
314.877
314.751
314.624
314.497
314.371
314.246
314.12
313.994
313.87
313.749
313.631
313.515
313.401
313.289
313.177
313.063
312.95
312.837
312.723
312.609
312.497
312.386
312.278
312.171
312.066
311.96
311.853
311.749
311.644
311.539
311.437
311.337
311.238
311.139
311.038
310.936
310.833
310.734
310.636
310.537
310.438
310.34
310.246
310.156
310.067
309.979
309.891
309.805
309.717
309.629
309.542
309.456
309.371
309.286
309.202
309.119
309.038
308.959
308.88
308.792
308.69
308.595
308.511
308.431
308.354
308.278
308.203
308.128
308.054
307.978
307.904
307.83
307.755
307.678
307.601
307.525
307.453
307.384
307.316
307.249
307.181
307.114
307.047
306.982
306.916
306.851
306.786
306.722
306.659
306.596
306.534
306.474
306.413
306.352
306.291
306.233
306.175
306.117
306.059
306.003
305.946
305.89
305.835
305.781
305.727
305.672
305.618
305.563
305.507
305.453
305.402
305.353
305.304
305.254
305.205
305.156
305.108
305.06
305.01
304.958
304.907
304.856
304.807
304.76
304.714
304.67
304.626
304.582
304.538
304.495
304.452
304.41
304.367
304.326
304.285
304.244
304.203
304.163
304.123
304.082
304.041
303.999
303.958
303.92
303.884
303.849
303.813
303.779
303.745
303.71
303.675
303.64
303.605
303.571
303.537
303.504
303.471
303.439
303.407
303.375
303.344
303.312
303.282
303.252
303.222
303.193
303.165
303.135
303.104
303.072
303.043
303.016
302.988
302.96
302.932
302.905
302.877
302.851
302.826
302.802
302.778
302.754
302.731
302.708
302.684
302.66
302.637
302.614
302.592
302.57
302.549
302.527
302.507
302.486
302.466
302.446
302.425
302.406
302.386
302.367
302.349
302.33
302.312
302.294
302.276
302.258
302.241
302.224
302.206
302.19
302.174
302.159
302.144
302.129
302.115
302.101
302.086
302.072
302.059
302.045
302.032
302.019
302.007
301.994
301.982
301.97
301.958
301.947
301.936
301.925
301.914
301.904
301.894
301.884
301.874
301.865
301.856
301.847
301.838
301.829
301.82
301.812
301.804
301.797
301.79
301.783
301.777
301.77
301.764
301.759
301.753
301.748
301.742
301.737
301.733
301.728
301.724
301.72
301.716
301.712
301.709
301.706
301.703
301.7
301.698
301.696
301.694
301.692
301.691
301.689
301.688
301.688
301.687
301.687
301.686
339.861
339.581
339.304
339.025
338.74
338.457
338.178
337.9
337.624
337.354
337.087
336.825
336.557
336.281
336.013
335.753
335.492
335.224
334.964
334.712
334.455
334.196
333.944
333.695
333.449
333.203
332.952
332.704
332.466
332.222
331.974
331.731
331.494
331.254
331.018
330.79
330.563
330.339
330.114
329.887
329.661
329.434
329.208
328.989
328.767
328.544
328.326
328.109
327.889
327.669
327.455
327.243
327.03
326.821
326.615
326.411
326.209
326.006
325.806
325.604
325.403
325.206
325.004
324.797
324.596
324.4
324.203
324.008
323.82
323.64
323.462
323.277
323.09
322.909
322.729
322.548
322.365
322.187
322.012
321.837
321.66
321.485
321.31
321.136
320.964
320.794
320.627
320.457
320.284
320.118
319.957
319.797
319.635
319.473
319.314
319.155
318.998
318.841
318.681
318.522
318.364
318.212
318.064
317.917
317.774
317.631
317.489
317.347
317.2
317.053
316.909
316.768
316.63
316.492
316.354
316.218
316.082
315.942
315.803
315.668
315.533
315.401
315.272
315.14
315.004
314.875
314.751
314.627
314.499
314.37
314.244
314.12
313.996
313.871
313.748
313.63
313.515
313.4
313.289
313.178
313.064
312.949
312.836
312.724
312.61
312.496
312.387
312.28
312.173
312.066
311.959
311.854
311.75
311.644
311.539
311.437
311.337
311.237
311.138
311.037
310.935
310.833
310.734
310.635
310.535
310.436
310.341
310.248
310.157
310.066
309.978
309.892
309.805
309.716
309.628
309.543
309.458
309.372
309.286
309.203
309.122
309.041
308.959
308.873
308.774
308.676
308.589
308.509
308.432
308.355
308.279
308.203
308.129
308.054
307.979
307.904
307.83
307.755
307.679
307.602
307.527
307.455
307.386
307.318
307.25
307.183
307.116
307.049
306.982
306.916
306.851
306.786
306.723
306.66
306.597
306.536
306.474
306.413
306.352
306.292
306.233
306.175
306.118
306.06
306.002
305.945
305.89
305.835
305.781
305.727
305.672
305.617
305.562
305.506
305.452
305.402
305.352
305.303
305.253
305.203
305.155
305.106
305.057
305.007
304.956
304.906
304.857
304.809
304.762
304.716
304.67
304.626
304.583
304.539
304.496
304.453
304.41
304.368
304.326
304.285
304.244
304.203
304.162
304.122
304.081
304.04
303.998
303.959
303.921
303.885
303.849
303.813
303.779
303.745
303.71
303.675
303.64
303.605
303.571
303.537
303.504
303.472
303.439
303.407
303.376
303.344
303.313
303.282
303.252
303.222
303.193
303.163
303.133
303.102
303.072
303.043
303.015
302.988
302.96
302.932
302.904
302.877
302.852
302.827
302.803
302.779
302.755
302.731
302.707
302.684
302.661
302.637
302.615
302.592
302.57
302.549
302.527
302.507
302.486
302.466
302.445
302.425
302.406
302.386
302.367
302.349
302.33
302.312
302.294
302.276
302.258
302.241
302.224
302.206
302.19
302.174
302.159
302.144
302.129
302.115
302.101
302.086
302.072
302.059
302.045
302.032
302.019
302.007
301.994
301.982
301.97
301.958
301.947
301.936
301.925
301.914
301.904
301.894
301.884
301.874
301.865
301.856
301.847
301.838
301.829
301.82
301.812
301.804
301.797
301.79
301.783
301.777
301.77
301.764
301.759
301.753
301.748
301.742
301.737
301.733
301.728
301.724
301.72
301.716
301.712
301.709
301.706
301.703
301.7
301.698
301.696
301.694
301.692
301.691
301.689
301.688
301.688
301.687
301.687
301.686
339.858
339.58
339.304
339.02
338.741
338.459
338.176
337.901
337.628
337.36
337.09
336.82
336.55
336.276
336.011
335.754
335.489
335.223
334.967
334.714
334.456
334.2
333.946
333.694
333.446
333.2
332.949
332.704
332.464
332.22
331.975
331.733
331.495
331.253
331.016
330.79
330.565
330.344
330.12
329.887
329.657
329.431
329.21
328.989
328.765
328.544
328.323
328.106
327.888
327.668
327.453
327.246
327.036
326.822
326.615
326.413
326.21
326.008
325.809
325.606
325.403
325.205
325.004
324.8
324.596
324.395
324.197
324.005
323.819
323.638
323.459
323.276
323.091
322.91
322.729
322.545
322.363
322.187
322.014
321.84
321.661
321.484
321.309
321.135
320.963
320.795
320.627
320.457
320.287
320.119
319.955
319.795
319.635
319.474
319.317
319.156
318.998
318.841
318.681
318.52
318.363
318.212
318.063
317.918
317.774
317.63
317.488
317.346
317.2
317.056
316.915
316.772
316.631
316.492
316.354
316.218
316.079
315.939
315.804
315.668
315.532
315.4
315.27
315.138
315.007
314.877
314.75
314.624
314.498
314.374
314.249
314.122
313.995
313.868
313.746
313.629
313.514
313.401
313.29
313.178
313.063
312.947
312.834
312.722
312.61
312.5
312.39
312.281
312.173
312.066
311.959
311.854
311.749
311.645
311.541
311.438
311.336
311.235
311.135
311.036
310.935
310.835
310.733
310.631
310.532
310.435
310.34
310.248
310.158
310.068
309.979
309.892
309.805
309.717
309.631
309.545
309.459
309.372
309.288
309.206
309.123
309.038
308.951
308.857
308.761
308.671
308.588
308.51
308.433
308.356
308.28
308.204
308.129
308.054
307.979
307.905
307.83
307.755
307.679
307.603
307.528
307.456
307.387
307.319
307.252
307.184
307.117
307.05
306.983
306.917
306.852
306.787
306.723
306.66
306.598
306.536
306.475
306.414
306.353
306.293
306.234
306.176
306.118
306.06
306.002
305.946
305.891
305.836
305.781
305.727
305.673
305.617
305.561
305.505
305.451
305.401
305.351
305.301
305.251
305.202
305.153
305.104
305.055
305.006
304.956
304.906
304.857
304.809
304.762
304.716
304.671
304.627
304.583
304.54
304.496
304.453
304.41
304.369
304.327
304.286
304.244
304.203
304.162
304.121
304.08
304.039
303.999
303.96
303.922
303.885
303.849
303.814
303.779
303.745
303.709
303.674
303.64
303.605
303.571
303.538
303.504
303.472
303.44
303.408
303.376
303.344
303.313
303.282
303.252
303.222
303.192
303.162
303.131
303.101
303.072
303.043
303.015
302.987
302.959
302.932
302.904
302.878
302.852
302.827
302.803
302.779
302.755
302.731
302.708
302.684
302.661
302.638
302.615
302.592
302.571
302.549
302.528
302.507
302.486
302.466
302.445
302.425
302.405
302.386
302.367
302.349
302.33
302.312
302.294
302.276
302.258
302.241
302.224
302.206
302.19
302.174
302.159
302.144
302.129
302.115
302.101
302.086
302.073
302.059
302.045
302.032
302.019
302.007
301.995
301.982
301.97
301.958
301.947
301.936
301.925
301.914
301.904
301.894
301.884
301.874
301.865
301.856
301.847
301.838
301.829
301.82
301.812
301.804
301.797
301.79
301.783
301.777
301.77
301.764
301.759
301.753
301.748
301.742
301.737
301.733
301.728
301.724
301.72
301.716
301.712
301.709
301.706
301.703
301.7
301.698
301.696
301.694
301.692
301.691
301.689
301.688
301.688
301.687
301.687
301.686
339.855
339.573
339.299
339.025
338.741
338.457
338.181
337.904
337.63
337.361
337.091
336.82
336.547
336.28
336.012
335.748
335.489
335.225
334.969
334.717
334.462
334.199
333.94
333.693
333.444
333.193
332.948
332.706
332.461
332.217
331.978
331.734
331.491
331.253
331.022
330.794
330.565
330.341
330.121
329.891
329.658
329.433
329.21
328.987
328.763
328.544
328.324
328.104
327.885
327.665
327.453
327.247
327.037
326.823
326.618
326.414
326.21
326.008
325.809
325.606
325.405
325.204
325.002
324.799
324.595
324.391
324.193
324.004
323.819
323.639
323.46
323.279
323.095
322.909
322.727
322.543
322.362
322.187
322.013
321.837
321.661
321.486
321.312
321.135
320.962
320.794
320.628
320.459
320.288
320.12
319.958
319.795
319.633
319.473
319.317
319.159
319.001
318.842
318.679
318.519
318.363
318.212
318.062
317.918
317.775
317.631
317.486
317.343
317.2
317.058
316.916
316.775
316.634
316.492
316.352
316.215
316.079
315.941