/*--------------------------------*- C++ -*----------------------------------*\
  =========                 |
  \\      /  F ield         | OpenFOAM: The Open Source CFD Toolbox
   \\    /   O peration     | Website:  https://openfoam.org
    \\  /    A nd           | Version:  7
     \\/     M anipulation  |
\*---------------------------------------------------------------------------*/
FoamFile
{
    version     2.0;
    format      ascii;
    class       volScalarField;
    location    "0";
    object      alpha.wetting;
}
// * * * * * * * * * * * * * * * * * * * * * * * * * * * * * * * * * * * * * //

dimensions      [0 0 0 0 0 0 0];

boundaryField
{
    frontAndBack
    {
        type            empty;
    }
    left
    {
        type            zeroGradient;
    }
    right
    {
        type            zeroGradient;
    }
    top
    {
        type            zeroGradient;
    }
    bottom
    {
        type            zeroGradient;
    }
}

internalField   nonuniform List<scalar> 
160000
(
0.560803230908122
0.572333724650686
0.402879404443250
0.512041786375536
0.446040036641745
0.442079356893420
0.541864336114297
0.655985524894518
0.481356112450039
0.535411781760964
0.494110471855442
0.477483405618247
0.464342996018209
0.498659804968031
0.443888517438997
0.512543935732469
0.534239508928999
0.545499853490876
0.668685516464975
0.500243969389259
0.483892613023693
0.482935376801937
0.557597616794952
0.502687241953543
0.390349359518523
0.452500489162326
0.472701737942000
0.620317089767505
0.468363958133965
0.512561001233689
0.473369078678633
0.506980873191926
0.522689695607439
0.525499355368908
0.513114292123795
0.462574216450365
0.580341278444216
0.596447749737297
0.475289319404298
0.429073123457158
0.593850196492887
0.430012539107386
0.554483486526282
0.575798024924315
0.427271149988428
0.536350671202502
0.534049553814137
0.464105492006015
0.576674670761082
0.491943717025557
0.520667588894523
0.482967196889222
0.396915461999140
0.407435993135570
0.481462514341150
0.464792433125412
0.523017620996773
0.476301878620738
0.490573339372053
0.530726018442887
0.531677768094385
0.524558105181398
0.500068988439900
0.530244308448508
0.528447309582607
0.532859679460402
0.478495161725282
0.436151566811660
0.511776523223159
0.549698911525712
0.498042081107883
0.499610653545081
0.477725492137169
0.482134198185339
0.427518376423919
0.446338591723343
0.619244460055283
0.510815277804918
0.521525549986879
0.583996213804536
0.497022278231655
0.538526839680526
0.451531256464159
0.486115054524264
0.465448304884365
0.409567651982274
0.577309797720966
0.510018193420213
0.509846518534743
0.490640724091644
0.387945772831099
0.485071137886792
0.558276185950247
0.425705223529962
0.537374024917394
0.420759507194547
0.562809064674146
0.528357837758992
0.554733396753532
0.510320840291869
0.516963319171516
0.534123993204091
0.548522788653192
0.469122783253546
0.516084265004127
0.522926204017469
0.429397972718658
0.409516612748681
0.579942858742131
0.519129801859364
0.570962009696639
0.523022586277883
0.510944161360247
0.502082991227745
0.482872238779497
0.542602839817816
0.494741395035041
0.442513600974829
0.622016690543753
0.525663287485223
0.542675255275887
0.562079936625221
0.628744605309466
0.560367410578385
0.409201247346259
0.479816572685645
0.546093368962956
0.525710634897887
0.408345784095424
0.411802885004224
0.536349506107938
0.546356390683114
0.476413940282062
0.486505286601730
0.436207728050496
0.555583564672985
0.502836734597163
0.495633422791067
0.502041644638759
0.460956654641691
0.524672632788330
0.433127557663154
0.523646254793346
0.536141726131360
0.579940687678763
0.508043332924595
0.434930572367080
0.468616769381026
0.521186783002078
0.490716043254892
0.528782054574074
0.500104431680803
0.453685187376211
0.468176837964575
0.551498537166869
0.474098864098505
0.462484905514897
0.566336263678093
0.492522752667043
0.450959193212746
0.540477342307902
0.526871274211007
0.396558391035410
0.596156314934820
0.484506153488072
0.505286241933045
0.503520377873905
0.479313888817112
0.497242569833682
0.477594910477592
0.498849728847197
0.543284243634983
0.478979212148744
0.467513604854785
0.498888785294503
0.569084911555225
0.425422304205812
0.542649957526535
0.500113044209303
0.482465630447735
0.521401078561340
0.565137930797244
0.501308643539987
0.470460746957533
0.473448231427180
0.501353343019776
0.562979113055736
0.523066614980563
0.520994382243387
0.440658581206442
0.467363410824655
0.449791462224239
0.471643039911716
0.549159843391342
0.454653713622882
0.473528158668367
0.522474739068806
0.490639802597422
0.574409929466710
0.361511930397287
0.495246084505289
0.454283218452786
0.636853266570274
0.554053776769837
0.501253465122213
0.485980330962889
0.561776245080612
0.617832488957335
0.523078151030444
0.515415495487784
0.537391080218292
0.587317221705151
0.507923635699041
0.523474820637953
0.562854261948533
0.477116379975887
0.538387133042595
0.474011200293052
0.561411028877506
0.467292074479611
0.502970614324118
0.558190809774644
0.564711513416601
0.530322533622908
0.483930222610633
0.499758286599314
0.523605032118781
0.520444049220139
0.536900263222816
0.490578913257141
0.446701002532395
0.560944107107067
0.473964961178921
0.538808754861042
0.502641731846375
0.529102127073958
0.469852022310961
0.518910208825390
0.496216303427502
0.502188720259091
0.637779524264406
0.467167554116112
0.518569006466419
0.477937375003093
0.486199996594232
0.469326506623785
0.438540172366243
0.555665288701745
0.445042487252993
0.567323911606618
0.500454787156829
0.483532334574849
0.469515123947849
0.439949898185767
0.581665282725953
0.533409296364575
0.479998980218820
0.476897199045931
0.504287273528245
0.460322972697009
0.473499234609665
0.514113619849856
0.621109040908547
0.504946781520477
0.409280728440264
0.585439360484482
0.538646810820377
0.471456910640663
0.471422323227880
0.510612631026476
0.462246307302418
0.450453607758287
0.508732431756813
0.510373322749551
0.506136429215239
0.529757739384868
0.548922495218407
0.503406608574090
0.454095242522538
0.518150908503409
0.632952640539695
0.491675039713939
0.550189560919394
0.499801742141373
0.493488602565549
0.524614582648554
0.561612565062534
0.481681046058257
0.477942779001539
0.402868230515107
0.493247937199556
0.553079643134936
0.484372833255095
0.552114289188564
0.519216642922646
0.511178600743045
0.549534889423668
0.539689126202174
0.520427785139932
0.480185921069324
0.419182288923679
0.542041286337569
0.582839794722803
0.480948869120805
0.466458293834960
0.518379000152195
0.451785463069893
0.533066688839191
0.553204077552708
0.482664462808693
0.535845877547809
0.521556348804603
0.535259430768294
0.529252309608978
0.491924587196804
0.513041582944952
0.406475869313452
0.481724837709805
0.457248828020500
0.502790400069242
0.488874903829485
0.519171843572704
0.506267938068980
0.462620144267971
0.557290293731577
0.545707279717110
0.452692631713193
0.512988415349236
0.433515321919278
0.471253671259274
0.501407960776783
0.458707507336930
0.492187908618310
0.398362561075850
0.457062059027970
0.465724194670690
0.468850653713456
0.502858737001881
0.468006794296314
0.451629431715381
0.452492092918992
0.545472494940312
0.542118643488753
0.551916658476225
0.573422249384684
0.595058382976797
0.501246578009363
0.512700181622779
0.521542443283506
0.470775699245421
0.415976834880331
0.587101089401655
0.546151010168005
0.510811828634215
0.488053181643909
0.484855386817755
0.529596631005276
0.422859088817509
0.563666552988580
0.509556721119098
0.495999295289523
0.545067608023286
0.541087564910377
0.501277937864713
0.498594604354606
0.494739488584151
0.518082788721124
0.550125161605596
0.549224023926539
0.490134468048939
0.571835022003199
0.474536092607793
0.593914109020261
0.491594276282570
0.516975370093616
0.544312319362449
0.483412220370127
0.469427787222862
0.560840349860686
0.543624908885736
0.467663413414096
0.531869545386165
0.461835036979966
0.478576603458728
0.532942023001609
0.465526270432070
0.495197340796967
0.528872379396494
0.469944194089659
0.599695261766054
0.498852001556811
0.491592361410521
0.457584507427833
0.477654497012382
0.521165940434383
0.447552951855595
0.497203959272777
0.541476010620062
0.561928676088098
0.547642955651077
0.486923895504324
0.428110939751914
0.637158174940222
0.428515270869226
0.428919573787498
0.463956752376612
0.442150365612646
0.471163860297599
0.532667963356591
0.537345491585264
0.419163520884043
0.569669181144853
0.541166144828783
0.420993664522580
0.616321077328756
0.553765122136000
0.468904376595116
0.421700101336205
0.550584301860217
0.452596027231602
0.460249422594526
0.495780545852352
0.548218949390220
0.526999596748788
0.590775880699020
0.499859420997618
0.422342248712774
0.495885601240697
0.489558787831800
0.512886291369633
0.473803667553862
0.537915699376746
0.485231561343343
0.581098548359524
0.465000456763090
0.440727721366289
0.546560921818419
0.594200821928063
0.571076637181192
0.427868060516366
0.447274822893209
0.399405839954192
0.407546393882289
0.488672875765928
0.530098270325653
0.525378134501688
0.553894374415875
0.537665700379439
0.473346717574818
0.427267923955090
0.471982626593676
0.510073405607845
0.596534754897162
0.574895875319164
0.519911746398994
0.553406611607128
0.554488642377070
0.515173043887518
0.412449545150979
0.505970070452848
0.471446285932823
0.526204486153285
0.498899841081119
0.487802763382360
0.509574161469579
0.494227983664982
0.507278115453902
0.530674570320806
0.432173934015428
0.472407325129124
0.521542704934105
0.570515078519287
0.538235656999610
0.430252614338721
0.584185906095506
0.490106669823091
0.458401292797196
0.552494348998318
0.523100774591215
0.396870304122934
0.538919902934542
0.587583247180308
0.464275559142365
0.493245064696296
0.559966211276458
0.545199559382200
0.492228101521277
0.492244812485031
0.539081039175504
0.512353925862292
0.510797544976336
0.440866970292745
0.461119845832131
0.512948095354974
0.530202925115716
0.509347076302311
0.440494236196665
0.446320946943095
0.453847276016754
0.527848804113586
0.470667515803255
0.562398009902545
0.520692536425101
0.574473846620702
0.576044091610798
0.494600357673224
0.555407062156589
0.505429361189440
0.505454862354235
0.493623621563565
0.576328612273406
0.447672383737438
0.550417423970663
0.487846666470890
0.522037865865147
0.415652423217606
0.509146300725541
0.591625212936038
0.593151299346486
0.451627114617955
0.573590145338871
0.546682364249553
0.445867388142875
0.533792490417739
0.503822751691702
0.493632803861497
0.581626575741434
0.502126396119391
0.573586062039637
0.547091301320915
0.454402884317376
0.541225732062731
0.584860887173246
0.539008082637200
0.557921912921265
0.479065467514852
0.525740747229798
0.512758005776212
0.585847361185300
0.462587904754948
0.531541297030087
0.490192886884079
0.516547002776730
0.539910083711711
0.474893556253399
0.496520152631900
0.508022864318777
0.595049352631083
0.483458125518890
0.569752326001114
0.489315485773025
0.449788521762365
0.492693994814164
0.522037367544226
0.506941889970431
0.500647268999180
0.495492685805024
0.538698914729465
0.430798102540566
0.444000883568219
0.411649993654176
0.430613086889582
0.570990856309775
0.458213535869341
0.530536423606905
0.498213588739310
0.536689655126363
0.465339071410677
0.512149422316941
0.540734471804667
0.557512838956230
0.483070948307782
0.517780071767731
0.500702831979121
0.563862951873176
0.602439897775490
0.556228864803483
0.389176939707888
0.509917505539368
0.594133980959645
0.607106893667837
0.564334207649947
0.553175735775657
0.450994535717009
0.559992595121403
0.502657670491807
0.499652518152956
0.369194997748207
0.639561133134859
0.532097733958032
0.525382242448188
0.635240252879680
0.528536005288394
0.545912912609342
0.524695680194496
0.492657642419170
0.488410601132671
0.622144805601975
0.520927822504967
0.514995563697969
0.491191066902641
0.518114540469807
0.483253073585693
0.587919875427294
0.442273230074714
0.526361689118573
0.549927063317971
0.423268193016535
0.550283617182966
0.482745937792364
0.484206143377721
0.529054432713184
0.479010056133605
0.589130559583280
0.517154724844074
0.504778336148734
0.476451165921782
0.433871576689016
0.497518855912519
0.571544578533221
0.516077449153533
0.489298510595592
0.485646522708253
0.471377259802480
0.451295468763068
0.594219220097025
0.527411515481055
0.466440917811267
0.559356651633272
0.495066637224336
0.561079861976204
0.504412030767384
0.556275378006695
0.447710631140206
0.433886194262717
0.514095733783746
0.522971658798267
0.588885370823114
0.504734690911304
0.487263556924425
0.554574263843025
0.492415850137561
0.564810001256955
0.515345095738000
0.475734182881417
0.537342866869290
0.548047535748777
0.457848133945601
0.518238664660415
0.417008506678672
0.519340776086423
0.477129264836891
0.419298213371789
0.427309234638422
0.471954088171400
0.533198550534286
0.483840350227830
0.539436406727929
0.496137908912395
0.536434546529710
0.535922599475580
0.563508947487518
0.348545831541143
0.543927695361280
0.434193762467983
0.461807246540478
0.487382699318286
0.568864021698066
0.523114816738257
0.531091680004447
0.409027846899030
0.490256018269417
0.447791653259852
0.442161186267296
0.459544745817086
0.486254069548566
0.526358718599583
0.537298607698930
0.380083122361111
0.447785747420302
0.497115863611107
0.494730255183293
0.419650274421580
0.488601137594477
0.567656650272990
0.483362327583640
0.476805598053076
0.478474729495770
0.582482437439482
0.545112505014949
0.559837581154752
0.477793883769198
0.373083334868480
0.469121977998586
0.633068444367112
0.452577133787372
0.465811305699677
0.543809901998760
0.555209442331479
0.542143424344072
0.507844487279951
0.511651905992060
0.495319294738892
0.496115241750545
0.494313547014148
0.433542366540072
0.465629554740883
0.458823969904422
0.502238937078306
0.528326822123511
0.491188084468155
0.573799900437044
0.402863245653611
0.463895211087410
0.561182110929986
0.474489043986878
0.526787586368888
0.550699644262335
0.547859692070800
0.445936779481424
0.532774719548952
0.405376448722815
0.541140262043292
0.461718396359500
0.508837578773152
0.532595500972814
0.431211693872106
0.437598598540296
0.592209992637940
0.668955925343093
0.469323984690689
0.435381741089387
0.552542373489524
0.434384819720626
0.447250622040297
0.524300599426492
0.495984474472235
0.477348055064866
0.528889910141915
0.541983902063090
0.485953062935875
0.424234966351159
0.517700420643876
0.504096475140228
0.479044614102939
0.419445541844860
0.518640615752361
0.491057251410083
0.557029779067859
0.506620046419869
0.473823532498139
0.542488239797111
0.451525567865736
0.530586290818086
0.523097757181272
0.528912369753151
0.492858098807211
0.661800009663697
0.448725765180598
0.488689812023583
0.489783476676573
0.531034589670457
0.511675427825992
0.520497690080765
0.510580896141827
0.543029800946029
0.468470172455280
0.548616889294299
0.490540561013604
0.541244209103528
0.550418116923200
0.526349914829662
0.501383150887865
0.551694657544462
0.523611735630477
0.499044142158281
0.506639265032824
0.468255681070959
0.530897152702824
0.512482905642168
0.545269143666802
0.532795455764061
0.462738591139048
0.417326411690634
0.391782583280916
0.489178773107768
0.433007546058109
0.454948266313970
0.494081253150011
0.404901162822608
0.491584403029289
0.496256292080191
0.509780595405970
0.509224579489566
0.478509142669424
0.568933374796038
0.541283807409287
0.453657672350053
0.538933204365345
0.526440102965566
0.492724101144431
0.510177777585311
0.647354949326764
0.592501514734418
0.577962376640115
0.435785944969203
0.516071458440077
0.564592294767460
0.498457060014703
0.437631949481902
0.511317701735628
0.539328855970651
0.501972947043631
0.532110097615992
0.547617665300911
0.511726020858355
0.431683684807095
0.549100547976824
0.446577343304917
0.553392654801223
0.489246779179707
0.498811712071079
0.567512261641633
0.488634116937230
0.569810908061196
0.549049047384563
0.519808717993811
0.536229740688202
0.496052667984107
0.548941746916059
0.545812144491471
0.451780206151417
0.469822322863900
0.503755308578109
0.482761343476410
0.535285349970216
0.541306011195054
0.571403695110800
0.536183247546997
0.491536635487620
0.559197886290932
0.422178403464856
0.568682280132549
0.469238594638575
0.454778616419304
0.437120318846672
0.519239754581905
0.499016028422033
0.545300670696339
0.456051821151310
0.484632448374644
0.496769374611544
0.483571485260567
0.580670770241646
0.542225686260566
0.532047009426333
0.469457877243363
0.532988097610294
0.481700076774130
0.547453863350770
0.392935190130084
0.506909956311307
0.533659995682785
0.466812666407502
0.512701477682578
0.437691267384072
0.501709475159518
0.510706101703651
0.485073758961251
0.528276765880768
0.479898333091821
0.503496491373451
0.439119620866372
0.478955372493215
0.475606041670577
0.450467036627124
0.472617537957491
0.497963134560452
0.556143049928807
0.481812817942186
0.517404510366806
0.543098506173956
0.479772425655582
0.476278221167603
0.526293282991502
0.540500101061589
0.515231296611246
0.502987115312989
0.456336294006995
0.570599772628756
0.469292655640156
0.505808615140076
0.515972679417567
0.487437946152110
0.542978079533320
0.452980961891392
0.463030694402838
0.533443504660555
0.589182652290817
0.483825308729848
0.525045215878042
0.492085379133016
0.572463051194469
0.499719825926166
0.467875145830430
0.556262297876316
0.486228761088648
0.568693792712219
0.442720755021263
0.536364638548625
0.494880693702970
0.540613119171255
0.606723356425961
0.508237077177305
0.557527005902961
0.488038383910020
0.533954483735197
0.463924663137589
0.501198709352230
0.537808001547549
0.459026830462129
0.579126625899261
0.472035321912657
0.523720533735277
0.543580303130467
0.562531320214887
0.450081900869518
0.535535742294340
0.484079634969947
0.532757017941200
0.487727164347556
0.517445062026469
0.435436515864343
0.499877433787016
0.607601976963938
0.573137935523381
0.499942427362614
0.507161833026813
0.500249306821048
0.505741765431078
0.497545953069420
0.454731671227272
0.492355220437500
0.520073484170558
0.481110962980662
0.413539319009438
0.603817365146049
0.587547449612934
0.525949091875506
0.501558388769637
0.476336969169108
0.483239602214379
0.489501422335658
0.463235427630862
0.469818660667637
0.542496445363903
0.529114657132933
0.507159411697271
0.474929512854596
0.407331590027769
0.476864259997024
0.566213065194837
0.525185308002349
0.553157221814359
0.504212108659919
0.495337824129784
0.469745537187596
0.479144329492791
0.504407242488543
0.515391313608668
0.523987514433888
0.462371640703161
0.464906932509020
0.525027385533971
0.513049073642135
0.449761221290387
0.582154982120594
0.541510296249009
0.492400202232459
0.457936217775924
0.507777165373051
0.528744884428718
0.580175035470726
0.517475630860857
0.410347426782387
0.536493305708037
0.599917273182951
0.425278772789177
0.511601359672160
0.571170727135386
0.490277402451413
0.427735826948240
0.550869377304380
0.541074716414242
0.533055748652054
0.473157982762278
0.537913087951997
0.491066280100650
0.581673277013959
0.454861562985970
0.490390737253063
0.511991007672614
0.519442991106760
0.434362576674488
0.502816471451836
0.530858167871649
0.499310531732102
0.512187781927891
0.524316211758281
0.488972369958486
0.505105426458660
0.496572518112963
0.434514232367783
0.537745083168865
0.578726489477401
0.463962503068595
0.487167224690670
0.462205099810487
0.543962101888759
0.531377167422515
0.488287847123789
0.514919712317586
0.495831594945035
0.543394191891056
0.507824493345478
0.630710865307545
0.606946197905082
0.463471107241894
0.461885493067921
0.556349574679851
0.493201928555335
0.495640971379189
0.471231267654094
0.410417643671466
0.477278366482448
0.473664817745035
0.524581869569124
0.505570917484426
0.488816684054645
0.473952151690094
0.597726934708652
0.457316630682145
0.461675216652908
0.543141223941104
0.427841435579662
0.431621173015657
0.552648986273782
0.513393476829136
0.472937896608560
0.534174916792554
0.443901667768598
0.427386438457401
0.444193836854066
0.506289678944036
0.542171376505743
0.461881171114288
0.409745640012676
0.543691953448628
0.557421523772938
0.518631999728670
0.472595833644315
0.449876055853156
0.484543974606873
0.473801406777769
0.566472720312510
0.580792937639539
0.490605135498532
0.443136095588464
0.505624140216707
0.531220362850396
0.478294111479436
0.482065116391594
0.626820704788171
0.479192857881627
0.451874979533295
0.431407018989919
0.524762452342862
0.510008190623739
0.554546436745498
0.502194824082363
0.442859765991109
0.573211518311517
0.500081929885005
0.539678128217395
0.491937879506824
0.506519384491268
0.542002150093183
0.582466969980404
0.472430378897740
0.449833104939258
0.488690264707802
0.525415938447111
0.430940851761119
0.467564267065732
0.470155095159181
0.600352477680672
0.627707638833275
0.577710118915521
0.510813847456527
0.530465747969518
0.478450730919212
0.459411092033797
0.533260747828439
0.472927289484854
0.504617938161243
0.434317077438290
0.510300633358403
0.437600176664039
0.458970528764869
0.450346261949111
0.484183086616767
0.481544215079310
0.542641161989867
0.565373183952694
0.528971293214078
0.531246066919344
0.431276386690897
0.588907964179271
0.489462307368460
0.530035102042057
0.567045373820398
0.526826000259647
0.500825387186830
0.442092344676695
0.431818938035701
0.471997546666128
0.474978450269331
0.555625965675819
0.462175145730958
0.506035715283444
0.525855962711438
0.523838366451782
0.526367552697832
0.356993912559649
0.455570429183356
0.461674928230795
0.539047566997440
0.543335415550598
0.523474102410354
0.544084179887644
0.496946014342588
0.529482602755082
0.474733038232888
0.574444467171918
0.582574640246389
0.459048445241618
0.473525295941852
0.480878954946875
0.492162662736050
0.597609096382896
0.461524274669373
0.476195605831174
0.468824575516812
0.564850797885690
0.544853876786749
0.465690412116914
0.446967675105787
0.519611743486805
0.447715201619483
0.517025672184772
0.461314006975111
0.490597901033240
0.519929593052509
0.464936106718368
0.475336213320753
0.611918826633630
0.456851733076663
0.519214177022905
0.440963089337716
0.596986640045351
0.488762859464749
0.489797077943208
0.396794738779177
0.445651147891537
0.484856811871201
0.526620050110965
0.463841873775877
0.551138494022271
0.496639965731304
0.489846011321834
0.586138772058554
0.461470760358789
0.551877857957340
0.478623516361523
0.471564459552604
0.558505017996714
0.490258315433565
0.527164492571733
0.433941061837218
0.455290420583769
0.484192421537016
0.533461330638956
0.544569778947915
0.470719815061366
0.474296161765619
0.481157053379741
0.420222205100935
0.501094148905183
0.551969863636215
0.474194401143596
0.514751416092655
0.464920723964298
0.480567104948917
0.529452018731378
0.460831401457182
0.581528087706985
0.550721184511846
0.462495793284181
0.477556607117678
0.506008530021821
0.508578786022778
0.500200615924465
0.487129926797689
0.452175681667017
0.517106448117567
0.469457174917024
0.465019974882292
0.401451957633375
0.502735244983522
0.504664238219552
0.450107094396393
0.545761191789596
0.437460288810306
0.534282344219179
0.549372104289478
0.500310709655921
0.560036335851781
0.447316982328351
0.526208095177044
0.491118389127953
0.434998014325111
0.457183663327755
0.526867543784756
0.464746113359875
0.493373899290120
0.540274811409099
0.591944769626542
0.468857731995069
0.441749492000118
0.463879367058563
0.509028244744543
0.452042460044459
0.473170159363508
0.456228240271758
0.498853493083417
0.490046929919821
0.451891641861530
0.519523103223020
0.463688594142046
0.525960845164443
0.458426670994293
0.488537929236072
0.534598478974528
0.442352656376455
0.515658231732270
0.445200048503705
0.424219032717777
0.579367663907851
0.451071866529749
0.479091362715473
0.466995244893307
0.481415767384847
0.376682386091863
0.578065685493125
0.470691380194556
0.522231924336854
0.498730617087801
0.487517608020442
0.578542296834001
0.451362237640950
0.423921127403427
0.471144642752013
0.519560511434859
0.572376319356029
0.446499755176520
0.492185761355366
0.445139618586086
0.440200693855379
0.462183171349906
0.461629926459521
0.506589023565655
0.392917108988295
0.440932515342341
0.490422673541202
0.507866943681653
0.540722838469141
0.454822043635765
0.508769487987004
0.506203273031019
0.502746931709004
0.483754250915512
0.503324291463104
0.532808792520423
0.482869469078398
0.464701008680458
0.447728876279221
0.516912457125407
0.451468610354676
0.426102534773323
0.469582695499122
0.514577178026918
0.439338065708618
0.518006237490582
0.400950432225684
0.508345184208998
0.514822704527424
0.509099402628245
0.543839933462232
0.578731190545979
0.603708009446128
0.416775471827327
0.544753853193654
0.445061508849289
0.446567530077278
0.518419192792463
0.538575869874727
0.396162263020625
0.558172715193226
0.522473705239569
0.486502085834580
0.505820232273713
0.448538868423481
0.404319770719199
0.431195896989916
0.561742900918409
0.480556110221605
0.482240626244734
0.526149739626443
0.464816302829142
0.508492415032544
0.497806295989165
0.556323658440094
0.489366799841744
0.542681232340885
0.558882984035592
0.585759317342055
0.371617246129845
0.564720579149908
0.411367367859204
0.493802757658420
0.525520082737055
0.492651924234766
0.483589373981455
0.529866957580926
0.573599362612868
0.508160093044991
0.505696129212027
0.547293828518003
0.483113851736414
0.447600518259156
0.536604235602113
0.557048917761085
0.501133329935543
0.599654826883542
0.533139388342779
0.439821165691025
0.581829871979574
0.473930050193218
0.544782946000483
0.424306956124417
0.579873380922787
0.595247264529870
0.506878549014524
0.515838991899992
0.451001775737990
0.481505406469211
0.437536951130611
0.511864385590119
0.464869004010815
0.478823181719477
0.525112424234690
0.432415595680487
0.487733724513500
0.601376403978343
0.470953043854883
0.493427128805006
0.504369027306457
0.579356729235730
0.493213817462943
0.487458050638888
0.495460300028783
0.551673358313117
0.502814801571057
0.499611691899351
0.469720333189686
0.553670772416349
0.627950539643390
0.477304648724735
0.462965088562057
0.427802126630343
0.534532999269493
0.570245457465474
0.561763138056476
0.412063176391736
0.488021573595827
0.542189294088489
0.511351122027754
0.433731051226427
0.497261645045654
0.496469324030756
0.521744849235980
0.526252140284104
0.497514529235810
0.486946470980123
0.424977925929748
0.501034277649720
0.588690192088530
0.430221379137163
0.513990339522088
0.500026945658374
0.519287528263522
0.527253286306898
0.539820298595589
0.493842189710982
0.480634877423522
0.615373820426774
0.498004104755880
0.487017243597671
0.402344524389581
0.414801939617272
0.447501866379324
0.393194974274954
0.464345353987756
0.565279982646179
0.562405791074023
0.525942871662598
0.516418381970035
0.543189080100610
0.453179478056169
0.568811636305849
0.457830242695074
0.495759469885857
0.520324830387282
0.453356580096410
0.619690499819266
0.470627865843957
0.515166573953512
0.577205256375779
0.414846548293762
0.430525431802987
0.501131600016597
0.463637573535563
0.428938162870209
0.535607739573360
0.616142196755558
0.544192225050578
0.543904475293327
0.489723856547075
0.488449257847249
0.534326940369160
0.572482563984068
0.557395365067739
0.464165680283639
0.542745250092374
0.373676332812065
0.499839970766133
0.429714834700539
0.574604291334538
0.515527882687101
0.532824228088004
0.542274729493798
0.578123888122978
0.461895027965084
0.482553915941258
0.514349539433246
0.468999724124506
0.525020256628726
0.502766756997458
0.560115782567796
0.509073501047850
0.475863808127044
0.546622669724953
0.489137894004649
0.487960849809070
0.554435023984888
0.444375980405764
0.481210104623870
0.494573901050794
0.481368344926005
0.537180015765383
0.550841755218510
0.446917602949839
0.485962670645846
0.466039546489690
0.443798551037214
0.603269072771974
0.541532999230162
0.506841763338456
0.534644833674919
0.466213305131858
0.502956859878619
0.535353574462084
0.493739861757832
0.499870521217376
0.568080106867541
0.423037548721005
0.511156763250708
0.542435272021638
0.438449997573482
0.554156056556674
0.462013608080358
0.474664478680464
0.499326346978998
0.534574316757303
0.513167919523102
0.473150622591526
0.487037081928347
0.514004228458367
0.521949323596446
0.608477666920246
0.466369569625110
0.498463903897560
0.492801636870152
0.489650479564339
0.398964645107521
0.570989292322220
0.456983532414433
0.562698112259216
0.385471997496246
0.554371409846599
0.412889327741817
0.464982565760984
0.570224390369524
0.460435021083867
0.500560622916917
0.486978065106211
0.562500859644942
0.584941690288904
0.439670288024383
0.522562420911861
0.592137306388484
0.520321840203590
0.445086149088468
0.459322564678769
0.520897807736719
0.471976732562084
0.522069064833658
0.533464164175722
0.604040750947170
0.450652323882418
0.485180352196790
0.476175980029971
0.514227791981942
0.603718596301088
0.545796820302724
0.460534371098696
0.454774194639976
0.484111193596928
0.580924332595420
0.478821219869648
0.445103318224543
0.574396963104583
0.541335060897290
0.525251859335383
0.473112783982700
0.433839655513762
0.450901572435225
0.546317256046093
0.481277768436920
0.611375812451258
0.479500505222273
0.426451024123530
0.442772270614241
0.478227755315107
0.603522234794045
0.455528485414591
0.543602346195133
0.437835924862003
0.488008696984418
0.435222676469074
0.476676462401853
0.522230439734057
0.450075313788022
0.456302886410868
0.505742758804503
0.446774367324114
0.484976747076210
0.530721901798438
0.408340742293908
0.461009098642659
0.478069309628705
0.507008726720615
0.521489334970864
0.515818165527023
0.525956017710540
0.430823710840309
0.526472802786273
0.554553069902041
0.437125460156587
0.511140249388950
0.403464055495253
0.596949035330427
0.426668177435173
0.441999761939207
0.483141774452388
0.443595969846011
0.494820728550782
0.537805664867108
0.540270428603607
0.574908373165535
0.527964613319524
0.635646068389541
0.489575339457044
0.592023056495254
0.515515159068347
0.510000194060616
0.479747953255651
0.523249602197125
0.484369538812523
0.418518580080573