/*--------------------------------*- C++ -*----------------------------------*\
 =========                 |                                                 |
| \\      /  F ield         | OpenFOAM: The Open Source CFD Toolbox           |
|  \\    /   O peration     | Version:  4.1                                   |
|   \\  /    A nd           | Web:      www.OpenFOAM.org                      |
|    \\/     M anipulation  |                                                 |
\*---------------------------------------------------------------------------*/
FoamFile
{
    version     2.0;
    format      ascii;
    class       volScalarField;
    object      epss;
}
// * * * * * * * * * * * * * * * * * * * * * * * * * * * * * * * * * * * * * //

dimensions      [0 0 0 0 0 0 0];

boundaryField
{
    frontAndBack
    {
        type            empty;
    }
    top
    {
        type            zeroGradient;
    }
    left
    {
        type            zeroGradient;
    }
    right
    {
        type            zeroGradient;
    }
    bottom
    {
        type            zeroGradient;
    }
}

internalField   nonuniform List<scalar>

160000
(
0.550841884855055
0.517079180521488
0.541497536387182
0.502383361235860
0.471167339379102
0.544706967801614
0.479464848239493
0.554803417004395
0.524061909897093
0.452266353550821
0.482796137339045
0.522635604062601
0.459322312307450
0.467278367325897
0.574091205480193
0.532849100208700
0.565974568489415
0.560150547431008
0.484952758014813
0.493229756296943
0.508753017346718
0.526709615363111
0.504061343845185
0.465803897978283
0.489255550956722
0.456763586004182
0.454600792661671
0.503160332455742
0.482590284971519
0.541376421651073
0.543257947335484
0.495220596932137
0.415457950136710
0.489543404491889
0.505975891592971
0.478828283119287
0.467808852388883
0.427249193071602
0.558016623685282
0.505428121807692
0.506131005653103
0.507314692758286
0.476227331191121
0.538044032200592
0.472391069680387
0.477194326798984
0.494320091995726
0.551369923617114
0.485531746505659
0.541383295103716
0.500811840968658
0.420034237433066
0.466243159975784
0.497669669512948
0.431824900026392
0.543138047636507
0.434861022173634
0.563448477253596
0.577023169705875
0.536178777751140
0.384796154809643
0.518229368021350
0.519534341661136
0.544614182385639
0.573648472595782
0.435592802273381
0.483043306704681
0.457436201458266
0.593478311348980
0.656890813543584
0.438587407956004
0.563081022134692
0.455075528173121
0.533443780225654
0.477373640355777
0.504442771140523
0.469273670729677
0.515515311022844
0.440979410361962
0.501197179734290
0.435452494802618
0.408639516972668
0.478593013947235
0.501772475866115
0.505647298501796
0.523059968110526
0.523156611380648
0.567387547307714
0.521793797599194
0.471138715919981
0.571801388685577
0.439882287687383
0.427828695876262
0.450041602768534
0.486191715366790
0.558387977358566
0.493336360072041
0.527200031475073
0.521358955866146
0.565753458311957
0.500944045910414
0.598427155433810
0.452553735020646
0.523623415247980
0.577783246090447
0.485957578148863
0.584505592486286
0.491052591425392
0.475178681944236
0.481765740310848
0.450159521704993
0.571183182067157
0.426385403419255
0.517590016395814
0.523275327964242
0.487916589442825
0.545709129737996
0.504251895994736
0.439770789392644
0.489989015822800
0.519303331198416
0.556788076417714
0.477500518366504
0.469340322057469
0.441728329752137
0.380804095352261
0.437105529814329
0.527723632160466
0.471006363497373
0.480533095858074
0.512370809869689
0.508830917212375
0.448474681176921
0.402757114370261
0.487647343858891
0.486990831473621
0.539570174719479
0.512291754100679
0.550594560303252
0.575909435970676
0.458978059715545
0.448803201631610
0.620972126986817
0.483869931961720
0.430482034358857
0.506839232157237
0.479077150627221
0.488255534369188
0.500355234341965
0.546221825770725
0.576803377112352
0.517948065556392
0.563471265644458
0.468926753765602
0.592367753271699
0.497672563219194
0.502553480724039
0.430110496014966
0.478039774341518
0.448832351595632
0.522220883829314
0.503010903461053
0.548085855937635
0.452470692390781
0.579268331796833
0.453333520018628
0.476878676995598
0.543632527525573
0.509699448407550
0.564028991516625
0.453651532115060
0.441801573400447
0.529970957510148
0.372134640207633
0.477139733120705
0.529481895332174
0.499070613062611
0.495299437247088
0.399203797115434
0.438420790650727
0.579249560397832
0.418365481916542
0.535671595195156
0.553515893982917
0.550469165257524
0.551982798561951
0.537468267788112
0.544455519616672
0.572216445888016
0.510013543250256
0.506119058631617
0.547949289463833
0.490284007926766
0.471692302365483
0.439105574607176
0.626484536712349
0.488131354469765
0.438496765537749
0.475609494269750
0.434652569944205
0.446744393374242
0.492053404006541
0.454061202475435
0.474557021299370
0.487522312928320
0.492933487443200
0.567979534655474
0.480411598695853
0.467958814189756
0.504622046749802
0.457718143305051
0.450753831400831
0.530075451798591
0.502298793200539
0.435394370387029
0.503435435251807
0.543674752601964
0.419116475296265
0.429498770291546
0.469252356873289
0.391548811022979
0.462443932724501
0.513637971209239
0.494660813580322
0.511017806374178
0.523385194522125
0.494876359582203
0.594896172621122
0.489257314816433
0.556145568976018
0.643135272059251
0.497891672973283
0.561136244857623
0.526230608789016
0.529967641909483
0.481237326141938
0.570572895031158
0.496039365557392
0.570792535785693
0.483823775749104
0.520284100993792
0.524361289186636
0.502911673910305
0.567606126492233
0.493859018649497
0.502643822675289
0.493936172153797
0.526912435133083
0.432884515912079
0.511202567875470
0.444656867189640
0.481854087358364
0.572521753153434
0.582820980059595
0.546296244690744
0.478908031145656
0.539492783614940
0.565998760405491
0.506332078850023
0.403009039924264
0.417651416936101
0.479237522476101
0.489237646648189
0.550570540337402
0.504916935288780
0.508119444268303
0.476263743199260
0.504379494288638
0.482123341507532
0.443160348133846
0.583454452269899
0.533131643589815
0.523763562821271
0.517232734220742
0.494814298048270
0.509707318839526
0.484607895334237
0.470667548501605
0.578000796788490
0.493445460493579
0.532058195759011
0.502994219087690
0.506119735844614
0.516930726912011
0.539020527755346
0.555023204516909
0.442857209622526
0.524216750469134
0.391205255391612
0.426044518107421
0.466260496047710
0.609293081498327
0.522050955928013
0.527389550660853
0.470828102348629
0.441927332540874
0.471906414850275
0.610909343799742
0.471609775155257
0.574603626607281
0.528926939716288
0.528366783769170
0.438721889454771
0.459850020169973
0.469117279266680
0.528103250459492
0.472359909249090
0.516937952948167
0.531244590359705
0.430666050321021
0.485467400287691
0.518625309768204
0.485383507658267
0.479391430983618
0.592444517074036
0.489355540638997
0.464400584706916
0.508208602175623
0.471712612682951
0.480167165042218
0.553488101467722
0.491520120220579
0.504223394596045
0.461247250387150
0.531444579236159
0.476260432074375
0.443321513012370
0.496992289775010
0.525909977053757
0.496136650103735
0.561552415858533
0.521504964839355
0.542958349101248
0.496350015826491
0.512368478504636
0.484419566568367
0.456042111999368
0.450068400297764
0.381695043363334
0.524873278127162
0.590266282763971
0.519694574019153
0.515846768057562
0.562923083446011
0.435035997523855
0.590952552638510
0.550168247045475
0.495980246888760
0.504055524323002
0.463866722006639
0.471833372699073
0.499156241505504
0.427506754242520
0.535996083871042
0.500880924639665
0.504515397195009
0.470920399832069
0.514533057009514
0.516822675182113
0.545191633484562
0.515009023948650
0.510458080856494
0.478532497177659
0.530456174918458
0.464203321588308
0.480831628631004
0.520231702479202
0.359975265198933
0.458990101432867
0.525946874600952
0.546336193285216
0.491679185067530
0.488405990183118
0.365119108957854
0.544419889782577
0.405165556509260
0.519234562424988
0.515521387432641
0.557269991708823
0.538589052975689
0.532058113872620
0.533816811542056
0.537562826078783
0.490288488521182
0.469549636035969
0.462360750916314
0.445434788327948
0.456107850000780
0.496109799931105
0.518295878197947
0.490458687718253
0.520159100093294
0.476629961252706
0.506879450474280
0.557350809085970
0.432620176212627
0.482248289713849
0.597755592591289
0.402863922660930
0.457989974019472
0.423053746980012
0.571372622657403
0.513816572602915
0.550282652366452
0.564752156317239
0.535496417622452
0.484426058092843
0.516396231610881
0.510371872096690
0.496327868942721
0.481433388407227
0.532263618892744
0.513372429569306
0.494962735298571
0.451013251548328
0.548044134830708
0.540604252561417
0.415523783426927
0.431535824315416
0.476473342803258
0.532846085635566
0.512475467704928
0.468087516019016
0.473059860544045
0.570912045248050
0.512397318341720
0.405299268960528
0.429070914047692
0.502345378343907
0.453851252323635
0.487003584436262
0.529775759977795
0.501933504723211
0.530913739814597
0.563946006954199
0.466065657236387
0.429527297587285
0.657002642351630
0.471409463857456
0.425689259751060
0.502782823091725
0.544822851495001
0.475158913857995
0.567624866836430
0.471030086599587
0.427481484525116
0.505447446819557
0.566517088905158
0.491156767915785
0.441605145390074
0.529707009407103
0.490962776764684
0.527211294649088
0.396121964930070
0.598947089604857
0.487903315013501
0.472214145564733
0.550351725564215
0.519802438075013
0.517676969075073
0.510117473032459
0.483540465699883
0.547704086115054
0.552737435721003
0.494801022619233
0.517194703601254
0.569442990444066
0.443097980869681
0.459403351795451
0.412080521865608
0.432689051325553
0.479952942891691
0.573720630953751
0.508232098059592
0.524275508709485
0.473652181937467
0.528014647929348
0.518761392330466
0.530677352531133
0.447195051949263
0.475866980678817
0.501614937330360
0.491650843285881
0.492241883507727
0.398584859388136
0.412154675818971
0.550245310298919
0.519830866049873
0.509183193352522
0.465917900810508
0.443954936441633
0.489557541035666
0.402969407192723
0.456746373260620
0.541479129779982
0.469404223959970
0.507164466838329
0.475335335274888
0.492529977941857
0.553599276063880
0.464460503416943
0.508672392469573
0.564147961441499
0.395194244433574
0.492830984849615
0.550692314506942
0.462583289185636
0.445278584196074
0.491436457052236
0.470356915194318
0.493686155331248
0.576407584031571
0.528115594963169
0.541466499754057
0.510809940013622
0.499221362413874
0.500303766820110
0.483838339426784
0.478341637477359
0.411671342308271
0.435505548260772
0.520941693504792
0.505004033571930
0.510307141139654
0.518568450977706
0.487716466278526
0.498124005207324
0.538580341727364
0.472181936245982
0.530771472167322
0.525640016548700
0.623719570423381
0.365282857243099
0.411326697367423
0.462708299686540
0.559938505380327
0.357861119691488
0.556987409432721
0.562644284604385
0.517965449404005
0.472377617486536
0.445711231841131
0.476813652257277
0.461652226472372
0.468765868825907
0.568649533963623
0.474274412225447
0.524262468710250
0.520353071437640
0.560650229766305
0.405722396839147
0.592570543927138
0.540123859608276
0.501452283374954
0.518180311011470
0.463533209312559
0.540083958468283
0.459450442565183
0.559132798186627
0.449015621847716
0.486476390348937
0.450148922324786
0.512604075088745
0.521078080476916
0.530491297074906
0.462468512946402
0.414569886398161
0.513532078781313
0.479543400026751
0.534083099828333
0.542598837608889
0.537676850974534
0.604171784444251
0.368790939457604
0.531510021745976
0.445904836570530
0.486102332887729
0.533563842312093
0.470506269227047
0.510362029678969
0.519426981821655
0.469617334767990
0.527850548828245
0.579078095154092
0.446766938318483
0.508272041680346
0.506248992518017
0.579599676818421
0.509516636117976
0.440461404312264
0.449265728495308
0.486501671341547
0.516752910183770
0.408137745833359
0.496347749567576
0.439264080577433
0.474319167264856
0.440659612071051
0.457479953460511
0.469306240805326
0.441735545886401
0.522330374032012
0.485933996611318
0.442319205179344
0.355206059292797
0.444302593348057
0.524671683089245
0.495820472259947
0.515663182393794
0.454427986697200
0.562857052710779
0.518836493895994
0.463053194299138
0.519068220697456
0.546554401904698
0.463136726457441
0.515225850596037
0.487337534122397
0.483288098879485
0.557914346913938
0.510615014431574
0.589786124406557
0.441321679425894
0.511649569876801
0.423579158904312
0.475048546119442
0.433169268692377
0.551479286114586
0.468227520194543
0.527666918663859
0.502754189748880
0.511060295307966
0.394797005913707
0.452120393648192
0.581615617300269
0.516263699769150
0.510320122653290
0.488949844001040
0.564045936030804
0.503443988861517
0.567599094105095
0.523544279816413
0.423131293405503
0.475067426464479
0.596729542729513
0.418122533210394
0.463954744182883
0.490652667435533
0.459974423094780
0.435989504748829
0.477814179123664
0.424087956771483
0.416285761385950
0.562200238991218
0.506406594657774
0.464054906753398
0.564164491568676
0.452917173389808
0.488454885453588
0.464704106029625
0.595000692759608
0.461074436594300
0.483295171884872
0.486885183181847
0.427083412859322
0.480073420216730
0.638241565711101
0.456243792352735
0.406185188962851
0.474620659321096
0.545353301009332
0.450024240143302
0.522655532451043
0.580669429165274
0.490108259982510
0.492424709398707
0.422745220349826
0.515152112579913
0.564793052341684
0.524591114669368
0.491091286643769
0.509726981843051
0.473143527956245
0.444127788086669
0.480762947004622
0.514285407533568
0.536394736384974
0.542023435523950
0.495497555509899
0.446982986441347
0.518286546326978
0.470039441032495
0.474121973813997
0.474130244883168
0.635095687049743
0.471804165843490
0.466783816293207
0.515749704798748
0.504664771179385
0.434640510085616
0.548990872224000
0.448209162197588
0.522685619497741
0.518350171357382
0.525990229836512
0.557732513257956
0.519814639347400
0.492206912594473
0.577845787644467
0.464019098570659
0.537841408429116
0.496811445245356
0.465740949561123
0.464902138740882
0.469688212378002
0.567547189274871
0.599193020873017
0.512297706943847
0.480280946683065
0.490833182731326
0.499819400659457
0.542592080211780
0.449504171981192
0.386806175625686
0.486171968847443
0.487284997550366
0.399433652102139
0.391528947029752
0.541293446228142
0.475468959213813
0.445518126196359
0.550991556984399
0.548705166536879
0.444127129299180
0.509839599152208
0.520647534793725
0.452754288204773
0.455650509123453
0.510119731180374
0.502843658465315
0.504468192505521
0.458637629172143
0.521862624811147
0.512252133401236
0.510739062397165
0.485840779387837
0.569547661520141
0.524775674021662
0.528525628403149
0.493510111606742
0.572033996722200
0.487519833768920
0.504253232975939
0.435671678655644
0.545636838828065
0.519263309851192
0.508868941505104
0.525179869189836
0.543393161726826
0.524081743689863
0.518542111345822
0.478922001165209
0.508902679795454
0.507371028068704
0.431907988218193
0.490057451490188
0.433828899365127
0.436247987767126
0.530598661386484
0.526458619925198
0.537089673197379
0.589061213807681
0.522965838830519
0.553767664039789
0.479075213303303
0.566428380317461
0.478563781886650
0.456923057805871
0.533235760506454
0.497714429872974
0.446241413068847
0.614050201280668
0.402585043967447
0.529618455635765
0.587103583080908
0.455157294879080
0.521930846347734
0.540735537206113
0.500526429853319
0.450259417766875
0.539298968350005
0.483837689076731
0.452589616170205
0.521747869707925
0.543923428995507
0.434266390858115
0.586890886229487
0.498781354572616
0.569592746826141
0.467543614424011
0.593504096428942
0.610990077273973
0.481443881477363
0.580560143074149
0.452337716151449
0.590416656939663
0.513567150250258
0.460688047019466
0.557284748349728
0.461037071903850
0.411952580684512
0.474974472897999
0.524757776935002
0.453318199428032
0.401250827295461
0.482004413658419
0.404495659786980
0.454979795527692
0.532630649984867
0.459938531605048
0.513283856433056
0.494636791387917
0.542445279074759
0.569682849868698
0.556493980296166
0.522309233808525
0.506002408406248
0.498737359384433
0.401586437440188
0.503305135139697
0.519571988104192
0.479693800383904
0.486732029504685
0.473714386248295
0.575670428127336
0.526490998338763
0.501464151957079
0.537812065380772
0.541404610610849
0.523736836580203
0.496657875902741
0.500830940888414
0.500659030052546
0.516837997784860
0.399186740518912
0.551189610865303
0.563046750029452
0.556004137281426
0.479369403803342
0.411160003719113
0.509166505778643
0.555830651945554
0.544976381798845
0.515464440089187
0.483463037420670
0.481931275983419
0.413744020619889
0.451500807514857
0.399228809955416
0.544679516571746
0.527344588648905
0.516215050172934
0.453060112010619
0.573074418342710
0.542636743678024
0.453249302009545
0.568914951412237
0.565156044724767
0.615892832169631
0.506830006615335
0.610579000670877
0.457741932449836
0.499846218586733
0.603660693624319
0.548012344102112
0.499903982039651
0.502173304872947
0.465881761388132
0.418094260630707
0.508530874995772
0.457676845092847
0.453726059699705
0.454654598254751
0.555345127920692
0.469117756227957
0.534389770413502
0.453465576940874
0.467949740091763
0.552724453329676
0.568713098417592
0.465406738478775
0.551946610840035
0.589239908561651
0.499959038010030
0.601770991237765
0.601521635905795
0.525554805097891
0.515674868738506
0.502444584150094
0.542155296214464
0.544566126588265
0.461659549655680
0.545668562543266
0.483341834316374
0.449032071640943
0.513298214416687
0.516701949985906
0.569191218560065
0.496464776152981
0.457774630428863
0.529337609288416
0.492165774690741
0.540316924184896
0.576427825158640
0.481609825926967
0.541303809732909
0.502814171363013
0.494678108466028
0.519317491605022
0.527334450219238
0.561733010048795
0.542001493003921
0.520874529637635
0.546169374342828
0.556419780747604
0.543751230467753
0.567738102766470
0.500725572320443
0.517891253252492
0.566366392835102
0.498268917234995
0.440368111958682
0.465738871164083
0.507916390810005
0.478128360263328
0.518813997529960
0.478483694849108
0.471314930845368
0.535011724514951
0.520393743230376
0.459480470652761
0.357544556706461
0.501575725346989
0.463595995043807
0.428705193579321
0.529974683329540
0.511109328442349
0.497970615417896
0.503920315204950
0.538390818278754
0.456101183640797
0.542135295375543
0.497377304851540
0.392029015873214
0.442078911895727
0.578330429084223
0.465457704228198
0.526303742323301
0.527014554817230
0.534300360161943
0.577242273620345
0.471936826112062
0.522878324793796
0.507029147550803
0.511476909857645
0.498078360526078
0.486893028872977
0.516211715159142
0.472202755826593
0.461029007322770
0.494521022164405
0.459736990558907
0.514305881613989
0.579908396235335
0.618023334921918
0.462483996577701
0.444834936663491
0.476373329558768
0.542127416686237
0.494576809450864
0.561995687429212
0.574410353421939
0.505494907667213
0.478757867712786
0.518496202046467
0.481877348129694
0.497531617404227
0.470782135021775
0.477606951963819
0.426020677356602
0.505403050453161
0.511529557806168
0.488629496389337
0.483678993103125
0.473057483507346
0.413156245399007
0.529060440727342
0.473753484193557
0.470818817888459
0.550990452233546
0.474231989671580
0.472497878690813
0.488956983740739
0.495612670362179
0.552521381285668
0.476178203847492
0.608788220601910
0.425523574167010
0.540139598367450
0.579160527196960
0.528291324017296
0.478197117326581
0.535586818638545
0.582527905468267
0.491060346046753
0.510058268580917
0.495666646890391
0.556424639208108
0.545846328342144
0.510594425497494
0.467500210832057
0.501658527943051
0.508135426387613
0.454894960839727
0.491625596237240
0.446857691622446
0.530145417122447
0.455438334188428
0.439756851610559
0.562494788050119
0.561967350624951
0.506628277097125
0.466625259351296
0.558342797818480
0.421100191827873
0.497621607859668
0.589212532543447
0.551692770053662
0.522377783296846
0.434433179567020
0.451352981859189
0.468068885495551
0.398097138693089
0.489710923185579
0.447334714538687
0.546862669344047
0.427769982246726
0.521125019843019
0.559305784408693
0.493083128121750
0.504180318559929
0.502319368534685
0.496830254656924
0.537334079981976
0.513280528327923
0.514812936945170
0.559445442280200
0.499028406991078
0.529523944689079
0.553965838979288
0.493474143327069
0.473296874251103
0.546756326259532
0.451242402551011
0.479509613841137
0.435789533867639
0.473898909413941
0.492460776806636
0.576376930098205
0.569752153346734
0.550186852225081
0.475145634464713
0.493985836994058
0.471457985911547
0.435499354533477
0.521743884062606
0.387842824231257
0.500246536014178
0.557569549942821
0.432157235473449
0.547058241499905
0.402521420415279
0.556987128083422
0.512379850591828
0.587460335430756
0.441595558864132
0.540481154691691
0.499509363473790
0.512250293309653
0.469973984666418
0.391794069615170
0.488343528513011
0.506558238236610
0.465761471263630
0.454648677616687
0.411122860356976
0.471641696027652
0.530808507310133
0.394644183627543
0.520969489615889
0.489713780504250
0.576097200707966
0.513940823681713
0.475144959950197
0.451128908862788
0.484698067155223
0.512015003147628
0.568430713857279
0.491373418286701
0.479615643836887
0.539655127796654
0.498410962181477
0.508821852363088
0.520796250836334
0.605135890095398
0.528603478893894
0.471497678619241
0.509196809451188
0.516193708071513
0.492541138631313
0.461822810061532
0.447273179866989
0.450432344124648
0.487141622847398
0.553907391199590
0.477553096002745
0.532506929533514
0.516091856996365
0.524299974815225
0.506481668168055
0.431744047460374
0.492872254277619
0.612934619368579
0.475458845527280
0.600286207274465
0.530068752524879
0.471452626205914
0.487212347136321
0.494665250990017
0.478471474124411
0.532629082253439
0.522702049655462
0.415973572068707
0.490424076078514
0.548331496244035
0.465549008950249
0.466404998162693
0.552283271810168
0.616107054753867
0.534770265152873
0.465409615917698
0.518466739640037
0.390502624810542
0.494965728079466
0.539807674447367
0.475499849205745
0.449902187355840
0.469855875418099
0.577762030884056
0.612785309549928
0.515489587533491
0.481187961031854
0.432141645870706
0.473351643691074
0.495114648759702
0.614320747961593
0.479928540133158
0.493899653415630
0.532978514674498
0.464300438205181
0.453378089455980
0.457889016069619
0.484525309026690
0.468149994300180
0.477765591583144
0.504814902751210
0.515833071547397
0.541203094997811
0.513766136860787
0.475975358764147
0.568692615529328
0.509716557873990
0.487069608837720
0.472497944568208
0.538771008832233
0.555466545060931
0.468139551200288
0.479141841047683
0.468896823164452
0.510307217136080
0.553397639033347
0.454188462273224
0.467735290429088
0.502225180056369
0.466120482688468
0.502549065054791
0.573258934887150
0.485271048187102
0.498913677456724
0.537597265563690
0.440087699972870
0.448420636512231
0.437827873809561
0.427381818144451
0.421944773273040
0.427936338869527
0.470320942404411
0.424261181042570
0.476064115390544
0.442200322827733
0.530533337193975
0.514409289100128
0.505275341612047
0.534428544923633
0.413295796220671
0.479373209163541
0.444797700242553
0.465308218534869
0.487075001051878
0.479350801059587
0.551906343383765
0.406615194178330
0.558724204450678
0.484858176068494
0.408558680216742
0.568412609039402
0.523329097930650
0.473186992124856
0.543886687710201
0.646340037329302
0.560937734623002
0.538839371761198
0.490459709117388
0.468949108406796
0.448165978203633
0.483365092298198
0.459850142687611
0.617221515487830
0.508132491572824
0.411151890033023
0.419920636944465
0.478680377531126
0.495196695198588
0.487781849087154
0.462646429390367
0.504687699249076
0.491722781174855
0.537000198760979
0.505241932174968
0.546317476720771
0.421576766630038
0.474995687973087
0.609479109236808
0.459619384129086
0.517547897008326
0.544821517804417
0.557762791842757
0.507193626732284
0.532763405415684
0.453126209786088
0.510775144907232
0.425695560831543
0.535604994699604
0.540252505106468
0.517774988791903
0.500964181859310
0.505001509507158
0.518501227418743
0.469733636222700
0.468327492746383
0.607835802524583
0.563002525204882
0.534588609839039
0.458728089955509
0.413068754219811
0.470817218877030
0.568156523592394
0.453822657085405
0.533753183516977
0.622946697995402
0.412095974183527
0.499420331115649
0.506519894044051
0.529535798405875
0.414365179675656
0.443047075731801
0.451538954563602
0.424131246542739
0.527221048996778
0.403438885704995
0.582927219601082
0.435956076980083
0.524818022752294
0.511049950881337
0.551536791674297
0.440526529136956
0.595494212684274
0.542230813689034
0.490167674699971
0.415605995474775
0.540160564264167
0.475169848921991
0.454430551656874
0.504531791303424
0.443644514429566
0.448377530248151
0.494058415857708
0.508817503879500
0.495092082097247
0.489011459186561
0.550067827555749
0.433379506285533
0.529015048896860
0.556121124528684
0.524215178041605
0.479088554750592
0.488442638171090
0.446735093068313
0.477621217288719
0.550189795867565
0.519692383089141
0.538083240640788
0.487469660600219
0.625299967952440
0.434092382479010
0.496437866254642
0.464427972003455
0.550303692924514
0.532367697632752
0.497304261863680
0.537559147041028
0.460524586660830
0.543215891071757
0.465485761736999
0.482150565383741
0.562755155036580
0.450860970819809
0.511705181685409
0.527558805043897
0.521250493735995
0.477302065543476
0.639930972277973
0.458445822098685
0.459668054910037
0.453432957782219
0.426450077727627
0.523182220070735
0.530260987872181
0.555049386447233
0.412668432293172
0.556014885728755
0.481801188967515
0.582550071999894
0.547722767589395
0.494749725165047
0.516710466398469
0.428600685821711
0.477628249007249
0.538749942593729
0.457847278370381
0.510932904706042
0.501209778173288
0.491553541613537
0.509660581276521
0.561790915526240
0.492517239871615
0.484253241880620
0.442192659714435
0.413483609804379
0.398430406312607
0.478450869773732
0.535613549351665
0.464250350806889
0.453814994168313
0.524508245349494
0.475091950167980
0.488775595722328
0.560183915632066
0.528754517065205
0.480713189762114
0.529978967604696
0.650424372478656
0.566270962167761
0.460628118237753
0.459492144654781
0.465989709225156
0.514501447420028
0.489961599415093
0.511962792699790
0.534092824891094
0.494532342494162
0.428828067473017
0.468059498822819
0.523263577728787
0.476979100636045
0.543215413644671
0.444899486899457
0.474672047827186
0.541781467398866
0.485906119596525
0.606198775116696
0.479697503815087
0.471622291419619
0.487565923301699
0.543115598307476
0.465450368852582
0.578680521111222
0.432298890898618
0.587508459693349
0.568644927628465
0.452026560067978
0.445874198870963
0.538320129258526
0.513813523065456
0.495091539133370
0.545646411763566
0.553498856181854
0.510115736818743
0.571992863245156
0.442800820108634
0.471437436202200
0.476940556421439
0.467537128046670
0.488390474123804
0.502653269727297
0.459195933690455
0.540129074943217
0.508747253081508
0.518000669215256
0.512921024563498
0.504975120424111
0.599936640522826
0.610360350478823
0.491494571471686
0.557689459702641
0.496692600786964
0.476297469199155
0.504324377575751
0.581392265049846
0.546258804091733
0.596610594483356
0.593108193650652
0.425484879512636
0.505094663936896
0.472832675456677
0.486153564307800
0.458939967214321
0.514350879182658
0.525459581306728
0.503308374908125
0.529512457061032
0.446259973591574
0.693978594542719
0.397420743249282
0.538064653643286
0.527448570541151
0.434205963974792
0.507202655842464
0.500919801998453
0.548718923325903
0.501907555263388
0.461685075327694
0.480746013927583
0.486923669650469
0.504897878838514
0.447654463475064
0.512425338979733
0.422454769721929
0.500524932510712
0.394084948046182
0.436078049564967
0.566292155597747
0.588181212458920
0.580225938620986
0.504889453287882
0.502810180066793
0.469099495363612
0.491904400338547
0.481537510889906
0.561644912934073
0.511375225247286
0.530610478648778
0.481485035857281
0.457233656479925
0.501361187007706
0.595472562229447
0.515687201125477
0.513125102870919
0.396630904797021
0.510407304069844
0.518792279959922
0.394478704921016
0.468712862274034
0.424518879591632
0.460849454146696
0.533866023340481
0.491249281257865
0.418419981101944
0.495124844978680
0.542662197738815
0.520884825633918
0.532924038394320
0.433736449921486
0.489215560219789
0.548821367477275
0.453127278175638
0.473941202141770
0.547920335839923
0.460543002952165
0.507996670221959
0.561752970741210
0.467959552202160
0.486006179851918
0.524810656553648
0.502319978946681
0.524492569210919
0.595222889279024
0.582650459392845
0.429784441166472
0.564858235279180
0.482543802436048
0.528388532425817
0.510745175881730
0.541358242488200
0.555231150622247
0.494405632787084
0.562666529431309
0.470903088956324
0.487006736526728
0.612240242541936
0.438349509515686
0.486717750618405
0.474995552568820
0.472751064551987
0.382703239228820
0.552479039235672
0.375835438170564
0.430025165160457
0.490842292668334
0.552442005949439
0.482055097060178
0.570480437917403
0.504785889776295
0.413916819072946
0.480861001211548
0.505747420391403
0.585181737120618
0.503550906442077
0.597462495424427
0.557764613850816
0.554376776221187
0.572702076697753
0.501144275706136
0.463612798840632
0.535203601170554
0.445456594173041
0.524765914392137
0.417336838408699
0.468255460709072
0.481405689363095
0.557768272408550
0.484864197602484
0.508565073976127
0.484991596636456
0.450961692395516
0.649111630737970
0.492673182692498
0.518092980893409
0.523062505008505
0.426164015344168
0.485289327218706
0.525409515993616
0.481353704800747
0.529296480291983
0.479650538414140
0.490284217520583
0.587403619419200
0.580199910908545
0.467390921686931
0.447122865543913
0.500536225751793
0.623301959012398
0.398218823240458
0.446891854725378
0.501538186360124
0.546004384882982
0.506820096964148
0.472720912718205
0.559232638000470
0.454999049654257
0.528342241183668
0.563167819741734
0.578761072285003
0.495263948447907
0.531021645644476
0.541114901162088
0.551818355421362
0.517107847653588
0.483420826312083
0.466481124709044
0.466981940102361
0.452672721734189