/*--------------------------------*- C++ -*----------------------------------*\
  =========                 |
  \\      /  F ield         | OpenFOAM: The Open Source CFD Toolbox
   \\    /   O peration     | Website:  https://openfoam.org
    \\  /    A nd           | Version:  7
     \\/     M anipulation  |
\*---------------------------------------------------------------------------*/
FoamFile
{
    version     2.0;
    format      ascii;
    class       surfaceScalarField;
    location    "4500";
    object      alphaPhi;
}
// * * * * * * * * * * * * * * * * * * * * * * * * * * * * * * * * * * * * * //

dimensions      [0 3 -1 0 0 0 0];

internalField   nonuniform List<scalar> 
319200
(
-5.88556e-18
5.21855e-17
-6.63885e-18
-2.12876e-18
-1.29737e-16
-8.2023e-18
-2.63131e-16
-1.50309e-17
-3.30379e-16
-7.51685e-17
-4.18828e-16
-6.94779e-17
-5.28159e-16
-8.65687e-17
-5.31774e-16
-9.51391e-18
-6.57984e-16
1.09165e-17
-7.38532e-16
-1.51767e-17
-7.82523e-16
-5.59959e-17
-8.85122e-16
-2.38454e-17
-8.94145e-16
-1.26117e-16
-7.56225e-16
-2.69809e-16
-6.68871e-16
-1.93207e-16
-7.40182e-16
-4.44258e-17
-7.51369e-16
-1.02511e-16
-8.87132e-16
2.05219e-17
-1.04657e-15
9.50753e-17
-1.17754e-15
6.75569e-17
-1.2765e-15
3.751e-17
-1.44451e-15
5.6591e-17
-1.59347e-15
3.22606e-17
-1.7812e-15
6.29583e-17
-2.06526e-15
1.36051e-17
-1.95626e-15
-1.92391e-16
-1.75688e-15
-3.2327e-16
-1.23806e-15
-1.48407e-16
-1.63514e-15
-1.43396e-16
-9.52951e-16
-3.14552e-17
-1.66944e-15
1.01447e-16
-5.32579e-16
1.96139e-16
-2.6303e-15
4.33941e-17
-1.81002e-15
-5.90507e-17
-2.31702e-15
-1.1234e-16
-2.39658e-15
-3.1327e-17
-2.58238e-15
7.15107e-17
-2.48641e-15
-2.18418e-16
-2.10934e-15
-4.7258e-16
-1.67889e-15
-6.61662e-17
-2.40969e-15
7.84756e-17
-2.25696e-15
8.11842e-17
-2.34649e-15
-1.93047e-17
-2.33091e-15
-1.09774e-16
-2.37281e-15
-6.51324e-17
-2.45527e-15
-2.38253e-17
-2.03719e-15
7.65299e-17
-2.36276e-15
-4.16203e-17
-2.0248e-15
-9.37699e-17
-2.56742e-15
1.67311e-16
-3.06432e-15
5.91836e-16
-3.48737e-15
9.9498e-17
-1.79887e-15
-2.59679e-16
-3.21027e-15
-1.879e-16
-2.91636e-16
-8.0475e-17
-2.34788e-15
-3.13492e-16
-2.23513e-16
-1.58242e-16
-5.48831e-16
-1.50259e-16
-5.92559e-16
8.06177e-17
-8.43083e-16
2.18016e-16
-8.62101e-16
1.35251e-17
-8.43014e-16
-1.89693e-16
-7.57518e-16
-9.32235e-17
-8.56064e-16
-6.14678e-17
-2.82524e-15
1.37189e-16
-1.09865e-15
2.6961e-16
-2.93067e-15
-1.88358e-16
-6.55515e-16
-3.41049e-16
-9.35592e-16
-2.71081e-16
-9.94754e-16
1.96849e-16
-1.0415e-15
2.67648e-16
-1.08663e-15
2.21832e-16
-9.66748e-16
9.49705e-17
-7.45103e-16
-3.49116e-17
-4.65026e-16
-8.45963e-17
-8.44609e-16
-3.05712e-17
-5.54075e-16
4.34389e-17
-9.89271e-16
1.01301e-17
-5.26156e-16
-6.61226e-18
-1.15908e-15
5.57846e-17
-1.03438e-15
1.73697e-16
-1.44345e-15
-8.26391e-17
-8.82502e-16
-2.84921e-16
-5.71738e-16
-3.49752e-16
-5.11853e-16
-7.50345e-17
-7.00026e-16
8.46387e-17
-8.20619e-16
1.13032e-16
-1.02507e-15
1.07545e-16
-2.47814e-15
2.42235e-17
-1.04807e-15
1.02395e-17
-2.03916e-15
1.09472e-16
-1.18166e-15
9.94735e-17
-1.31838e-15
2.94216e-17
-1.25046e-15
-1.5256e-17
-1.11367e-15
-1.41242e-16
-8.6427e-16
-1.14446e-16
-5.25589e-16
-8.15551e-17
-5.12776e-16
-3.59906e-17
-8.43492e-16
-4.96917e-17
-8.92433e-16
-5.40225e-17
-9.88536e-16
-2.52378e-17
-2.01232e-15
1.51775e-16
-1.88533e-16
-1.65178e-16
-8.84073e-16
-1.1551e-16
-1.05716e-15
2.16308e-16
-1.06577e-15
6.04161e-17
-9.38161e-16
-8.5129e-17
-9.82001e-16
9.544e-17
-1.30309e-15
1.53702e-16
1.15873e-15
1.07248e-16
-1.75542e-15
6.11446e-17
-1.43904e-15
1.22927e-16
-2.09271e-15
-2.89754e-17
-1.38667e-15
-2.34921e-16
-8.27007e-16
-1.34548e-16
-1.13959e-15
-6.0636e-17
-1.11815e-15
1.42127e-17
-1.0289e-15
1.22403e-16
-7.18398e-16
-1.6273e-16
-4.65295e-16
-2.05096e-16
-6.4165e-16
1.39429e-16
-8.14755e-16
3.64881e-16
-1.47288e-15
3.28436e-16
-1.50486e-15
2.55614e-16
-2.77478e-15
2.21936e-16
-1.94405e-15
-5.10023e-17
-2.89422e-15
-3.6035e-16
-1.62887e-15
-2.56737e-16
-2.28732e-15
-8.70492e-18
-1.92982e-15
8.84976e-18
-2.38982e-15
-1.65469e-16
-2.27653e-15
-1.53915e-16
-4.45133e-15
1.86996e-16
-1.98314e-15
2.11153e-16
-3.94628e-15
-3.41925e-16
-9.98208e-16
-5.92598e-16
-2.69356e-15
-3.13972e-16
-1.05008e-15
4.15044e-16
-1.83456e-15
3.11864e-17
-1.98136e-15
8.8894e-17
-2.41371e-15
-1.09047e-17
-1.85888e-15
-1.63049e-16
-1.71696e-15
6.14118e-17
-1.1907e-15
3.91837e-16
-1.09879e-15
2.16392e-16
-1.72065e-16
-1.71825e-17
-2.96034e-16
-8.18228e-17
-1.65982e-15
-1.62336e-16
-1.13517e-15
-2.79601e-16
-9.07029e-16
-4.94812e-16
-4.46942e-16
2.92255e-17
-1.32375e-15
3.81075e-16
-8.6676e-16
5.95885e-17
-1.2355e-15
-6.89018e-17
-6.85333e-16
1.09705e-16
-2.7102e-15
1.56475e-16
-8.82077e-16
4.91191e-16
-3.1317e-15
1.85832e-16
-1.20294e-15
-9.73153e-17
-1.14345e-15
-2.21781e-16
-9.39342e-16
-1.89959e-16
-8.55978e-16
7.01976e-17
-1.3091e-15
2.45502e-16
-1.63374e-15
4.79318e-18
-1.52159e-15
-1.59854e-16
-1.14902e-15
-2.13736e-16
-9.27901e-16
-6.25012e-17
-7.43182e-16
4.4561e-17
-6.90338e-16
1.93243e-16
-8.03978e-16
3.42639e-16
-4.10183e-16
-1.08094e-16
-7.174e-16
-1.3411e-16
-8.78032e-16
-2.02375e-16
-1.07429e-15
-2.35928e-16
-1.50752e-15
6.5066e-17
-1.41279e-15
-2.1463e-16
-1.71367e-15
3.25655e-16
-2.2649e-15
4.19518e-16
-1.62335e-15
1.87027e-16
-3.08126e-15
-3.59761e-16
-2.6416e-15
-9.22025e-17
-2.9286e-15
-3.60109e-16
-1.93996e-15
-5.4265e-16
-1.29225e-15
-5.0827e-16
-9.09035e-16
-1.84892e-16
-8.48802e-16
9.1303e-17
-7.70503e-16
7.86624e-17
-5.78766e-16
-3.18362e-17
-9.67452e-17
7.3749e-17
7.45606e-17
3.57765e-16
-4.52985e-17
3.04869e-16
-5.12412e-16
3.39566e-16
-8.67209e-16
-5.99602e-16
1.50138e-15
-8.31555e-16
-6.87245e-16
-4.96986e-16
-2.17143e-16
-9.28515e-19
9.72011e-16
2.68633e-16
1.22898e-16
-1.4434e-15
4.88302e-16
-2.76454e-15
-5.57536e-15
-9.26374e-16
2.04045e-16
-6.6099e-16
-3.24938e-15
-1.03541e-15
-2.92975e-15
-4.03264e-16
-2.27697e-15
-1.54781e-16
-2.35662e-15
2.70331e-16
-2.91913e-15
3.03532e-16
-6.77182e-15
-5.45741e-16
-1.08176e-15
2.48402e-16
-6.29878e-15
-4.91352e-16
-2.41574e-15
3.0829e-17
-5.22295e-15
-3.81863e-16
-2.9552e-15
-4.1183e-16
-3.58732e-15
-3.01092e-16
-3.62023e-15
3.08755e-17
-3.56405e-15
-2.48484e-16
-3.40371e-15
-2.52768e-16
-3.78853e-15
4.35338e-16
-1.51428e-15
5.02248e-16
-8.92296e-15
1.08897e-16
-3.9338e-15
-4.04512e-17
-8.22467e-15
-5.409e-16
-4.29518e-15
-9.28708e-16
-4.12186e-15
-6.81144e-16
-3.65722e-15
-2.66724e-16
-2.67879e-15
-1.89016e-16
-4.75241e-15
-1.62279e-16
-9.5299e-16
1.44543e-17
-4.4762e-15
-1.43843e-16
-1.08678e-15
8.57377e-18
-1.34271e-15
-1.15742e-16
-1.22624e-15
-4.43837e-18
-9.00834e-16
-1.87016e-16
-6.26803e-16
6.81846e-17
-9.66382e-16
4.77863e-16
-8.21981e-16
2.08893e-16
-7.40459e-16
8.72078e-17
-7.06178e-16
-2.32103e-17
-1.13797e-15
1.04274e-16
-1.53358e-15
1.27106e-16
-2.43114e-15
2.08994e-17
-2.37959e-15
-1.84197e-16
-1.81233e-15
-4.34429e-16
-1.39127e-15
-2.27361e-16
-1.17685e-15
2.40157e-16
-3.22381e-16
3.13722e-16
6.61021e-16
3.69759e-16
7.75779e-16
7.54014e-16
2.63037e-15
-2.52871e-15
6.33633e-15
-3.27541e-15
4.3121e-15
-2.13909e-15
-2.1698e-15
-1.15816e-15
-1.02465e-15
-2.14703e-15
-3.32243e-16
-8.78973e-16
-7.26147e-16
-3.06588e-16
-1.39752e-15
-4.4608e-17
-1.95106e-15
6.05164e-17
-2.24012e-15
-1.8722e-16
-2.66874e-15
6.84877e-16
-4.38825e-15
6.04653e-16
-2.48831e-15
-7.02027e-16
-5.61162e-15
-1.10125e-15
-2.06296e-15
-1.14442e-15
-3.12921e-15
-7.70052e-16
-3.12938e-15
-2.55829e-16
-3.17144e-15
2.73443e-16
-3.24326e-15
3.61859e-16
-2.98855e-15
3.63052e-17
-2.56899e-15
2.5702e-16
-2.58314e-15
4.72804e-16
-2.0449e-15
8.56519e-17
-1.40808e-15
-6.37005e-16
-3.645e-15
-3.58674e-16
-4.37684e-17
6.10792e-17
-3.17566e-15
-2.03931e-16
-3.11141e-15
-4.32548e-17
-2.98868e-15
8.87429e-17
-5.39679e-15
4.35852e-16
-2.64278e-15
3.00032e-16
-2.88158e-15
-1.18387e-16
-1.51309e-15
-2.77196e-16
-1.2272e-15
-1.39425e-16
-1.11251e-15
1.65953e-17
5.35888e-16
-8.92902e-17
-1.30144e-15
-7.88853e-17
-1.8797e-15
7.64384e-17
-2.80581e-15
4.19737e-16
-3.96609e-15
6.30549e-16
-4.84166e-15
4.2291e-16
-5.28604e-15
-1.67704e-17
-4.58719e-15
-9.67824e-16
-3.44413e-15
-1.13919e-15
-2.96647e-15
-4.39658e-16
-3.34969e-15
3.86726e-16
-3.79749e-15
4.99473e-16
-3.11431e-15
3.68737e-16
-3.21676e-15
-1.04702e-16
-1.19478e-15
-3.97021e-16
1.94337e-16
-6.44238e-17
1.57352e-15
1.18852e-16
2.34582e-15
1.51514e-16
1.56901e-15
-3.95974e-16
-9.32109e-16
-7.6311e-15
2.36942e-14
-6.7188e-16
-2.53262e-15
-1.0012e-15
1.99276e-14
-9.51164e-16
-1.16896e-15
-1.39928e-15
2.1304e-15
-9.7091e-17
3.19196e-16
-1.62492e-16
-1.51282e-15
-4.70633e-17
-3.32062e-15
2.25677e-16
-3.47297e-15
-2.8921e-16
-3.70587e-15
-2.32912e-16
-2.22559e-15
1.27415e-16
-4.1538e-15
3.57161e-17
-1.67253e-15
-2.2631e-16
-5.32837e-15
-8.5561e-16
-5.35526e-15
-4.42939e-16
-5.09703e-15
-6.37124e-16
-5.06815e-15
-3.25687e-16
-4.7011e-15
-2.01137e-16
-4.22923e-15
1.87152e-16
-3.62997e-15
4.23947e-16
-1.17896e-15
4.67394e-16
-6.5921e-15
-1.29224e-16
6.52498e-15
-8.23554e-16
-6.264e-15
-8.53445e-16
3.95574e-15
-1.05255e-15
3.54945e-15
-5.51225e-16
2.9123e-15
-2.80268e-16
2.53209e-15
-4.93282e-16
1.76007e-15
-1.82499e-16
1.60976e-16
1.45576e-17
-2.51087e-16
-3.2193e-16
-1.54027e-15
1.93867e-16
-2.73588e-15
1.35008e-16
-3.45598e-15
3.57334e-17
-4.04613e-15
4.88978e-16
-4.57417e-15
4.99315e-16
-4.0914e-15
-5.28411e-16
-2.87176e-15
-1.2535e-15
-3.80893e-15
-5.23634e-16
-5.16286e-15
1.11173e-17
-6.20575e-15
1.88001e-16
-6.82241e-15
6.36943e-16
-6.77914e-15
-2.4864e-17
-6.41848e-15
-3.35694e-16
-5.62365e-15
-7.76611e-16
-1.06833e-14
-1.36124e-15
-1.89952e-15
2.97024e-16
-1.06737e-14
-2.54099e-16
-3.1624e-15
-4.0465e-16
-3.77213e-15
-3.58951e-16
-3.48726e-15
-3.97445e-16
-3.40311e-15
-6.87721e-17
-3.63862e-15
2.59548e-16
-3.43181e-15
-1.89756e-16
-7.30711e-15
-2.5243e-16
-2.84885e-15
-7.95361e-17
-7.10198e-15
-3.30376e-17
-3.06339e-15
-1.26523e-16
-3.46691e-15
-1.06246e-16
-3.23605e-15
9.76475e-17
-2.83428e-15
2.08744e-16
-3.92367e-15
2.20395e-16
-1.86185e-15
-3.72181e-16
3.15367e-16
-5.48878e-16
1.36227e-15
3.38894e-16
2.61829e-15
3.70016e-16
2.19111e-15
-9.04541e-17
1.17041e-15
-5.27148e-16
3.68844e-16
2.85526e-16
-1.11722e-15
8.02849e-16
-4.77134e-16
9.44834e-16
-3.75716e-15
1.94827e-16
-3.82421e-15
-3.39725e-16
-3.67727e-15
-6.06777e-16
-2.90582e-15
-1.16318e-15
-2.35693e-15
-3.85755e-16
-1.76527e-15
-2.43227e-16
-1.26404e-15
-1.80289e-16
-1.20918e-15
-6.59777e-19
-1.18779e-15
-6.9443e-17
-5.619e-16
6.39989e-16
-4.34317e-15
7.82794e-16
-1.41259e-15
3.24203e-16
-4.60337e-15
8.14453e-17
-3.93023e-16
1.42306e-17
-2.31917e-15
-4.33818e-16
-1.49508e-15
-5.54797e-16
-1.21385e-15
-6.42789e-17
-9.66226e-16
1.02191e-16
-4.74498e-16
-6.72231e-17
-1.04144e-16
7.79187e-17
-1.26765e-16
1.1702e-16
3.91728e-16
1.33396e-16
-3.24461e-15
3.81154e-17
-1.7776e-15
-2.21091e-17
-3.35614e-15
2.35499e-16
-8.16485e-15
1.73352e-16
-1.02991e-16
-3.77713e-17
-6.93716e-17
-8.02935e-17
-7.33171e-17
1.22168e-17
-5.46169e-17
-1.29933e-16
-7.73627e-17
-2.66626e-16
-6.30583e-17
-3.66858e-16
-6.55517e-17
-4.47896e-16
-1.12362e-16
-3.37987e-16
-3.81904e-17
-3.7125e-16
-4.06143e-17
-4.21302e-16
-4.46726e-17
-5.23285e-16
-3.5844e-17
-5.09928e-16
-1.19622e-17
-4.76055e-16
-8.71637e-17
-6.41212e-16
-2.29979e-16
-3.01647e-16
-7.69799e-17
-4.34885e-16
-5.39489e-17
-7.62014e-16
7.98631e-17
-9.8669e-16
1.24327e-16
-8.87383e-16
-6.10634e-17
-8.78757e-16
-9.76297e-17
-7.8618e-16
-1.73584e-17
-9.97225e-16
7.56692e-17
-9.54598e-16
3.92765e-17
-1.10792e-15
-6.19487e-17
-1.0373e-15
-1.65183e-17
-1.34751e-15
7.07307e-18
-1.33038e-15
-1.63429e-16
-1.52051e-15
-3.4095e-16
-3.30979e-16
-8.98933e-17
-8.40201e-16
1.14948e-18
-2.67158e-16
-9.79399e-17
-2.72338e-16
-7.13537e-17
-2.86312e-16
-5.89925e-17
-9.29185e-16
-4.575e-17
-1.21114e-15
7.95204e-17
-1.41081e-15
5.339e-17
-8.06995e-16
-5.69233e-17
-9.69367e-16
-1.33095e-16
-9.70416e-16
-4.51863e-17
-1.69013e-15
-1.19433e-16
-9.89023e-16
-1.52095e-16
-1.4898e-15
-2.37821e-17
-1.6726e-15
-4.27519e-17
-1.78831e-15
-8.34493e-17
-2.08387e-15
1.2368e-16
-2.22174e-15
-1.80556e-18
-6.96052e-16
-1.66375e-16
-7.09471e-16
-1.59195e-16
-1.57686e-15
-9.0978e-17
-1.20146e-15
5.5988e-17
-1.00406e-15
3.46573e-16
-8.50755e-16
7.27725e-17
-1.34201e-15
2.27237e-17
-1.01544e-15
-1.16542e-16
-7.12089e-16
-2.64542e-16
-3.35913e-16
-1.56031e-16
-5.60068e-16
-1.11253e-16
-4.58652e-16
-1.91863e-16
-5.66411e-16
1.50264e-16
-3.54693e-16
1.29428e-16
-3.50802e-16
-2.47315e-17
-4.70256e-16
-7.84888e-17
-6.52476e-16
-3.38968e-18
-1.20456e-15
7.11588e-17
-1.27995e-16
-6.98649e-17
-7.06375e-16
7.06838e-17
-1.23751e-15
2.07533e-16
-1.73469e-15
1.33597e-16
-2.25086e-15
7.74879e-17
-1.92797e-15
2.70808e-17
-1.36187e-15
-2.84094e-16
-7.64287e-16
-2.40409e-16
-4.95293e-16
-1.04955e-16
-5.89516e-16
-6.17371e-17
-1.07475e-15
-4.57507e-17
-6.80629e-16
-3.0744e-18
-9.01056e-16
-1.72993e-16
-9.03397e-16
4.60859e-17
-1.17764e-15
2.19392e-16
-1.15972e-15
1.11584e-16
-9.09945e-16
-1.26196e-16
-8.47579e-16
-8.92732e-17
-1.1496e-15
2.70174e-17
-1.66234e-15
5.5189e-17
-1.65485e-15
-6.9969e-17
-1.26168e-15
-3.92669e-16
-8.53656e-16
-2.68138e-16
-1.63297e-15
1.17335e-16
-1.46439e-16
1.81886e-16
-2.27468e-15
1.58169e-16
-1.82515e-16
-4.19343e-17
-1.24156e-15
1.63703e-16
-1.12052e-15
-3.49317e-17
-9.41113e-16
-1.99375e-16
-7.50859e-16
-1.89863e-16
-5.7809e-16
-1.30024e-16
-5.24067e-16
-1.78247e-16
-1.58776e-15
-6.10225e-17
-1.05677e-15
-7.67939e-17
-1.34559e-15
-4.8945e-20
-1.14554e-15
-6.21585e-17
-1.20975e-15
-3.88535e-17
-1.38318e-15
2.67153e-16
-1.19965e-15
4.13116e-17
-1.01485e-15
-1.49667e-16
-1.11192e-15
2.04172e-16
-5.81264e-16
1.80535e-17
-2.48417e-15
-9.07474e-17
-3.01822e-16
-2.25244e-16
-2.05149e-15
-1.12638e-16
-1.03483e-15
-7.07017e-17
-8.23169e-16
-3.4481e-17
-8.34018e-16
1.11558e-16
-8.75371e-16
-1.32344e-17
-7.72267e-16
-2.12525e-17
-7.3006e-16
5.27222e-17
-8.20371e-16
9.15448e-17
-5.05172e-16
1.83804e-16
-1.89525e-16
2.30581e-16
-2.30029e-15
1.73984e-16
-3.57604e-16
-1.83171e-16
-1.24667e-15
-2.40193e-16
-5.10171e-16
1.17086e-16
-6.67255e-16
1.42856e-16
-7.13479e-16
1.36657e-16
-1.05211e-15
4.36704e-17
-1.37594e-15
-8.48419e-17
-2.57861e-15
-1.34371e-19
-2.24426e-15
1.8578e-17
-2.70925e-15
-1.53919e-16
-2.48944e-15
-5.81371e-17
-4.52892e-15
6.65549e-16
-2.50467e-15
4.63065e-16
-2.84086e-15
-1.75906e-16
-2.57141e-15
-2.10827e-16
-3.49891e-15
1.1285e-16
-1.46897e-15
-3.45546e-16
-1.93003e-15
-3.74522e-16
-1.74816e-15
5.04041e-17
-2.59572e-15
8.30163e-17
-1.62165e-15
-1.32415e-16
-2.86562e-15
-5.95548e-17
-1.87584e-15
2.25463e-16
4.80316e-16
-4.80505e-17
-1.35143e-15
3.53302e-17
-1.0532e-15
1.43466e-16
-2.17449e-15
3.89876e-17
-1.42626e-15
-4.40874e-17
-1.94048e-15
-7.28542e-17
-2.65129e-15
1.81433e-16
-2.6196e-15
-3.21078e-17
-1.96172e-15
-2.87271e-16
-2.24071e-15
-2.59253e-16
-6.19354e-16
5.83419e-17
-3.38878e-15
5.03917e-16
-5.51224e-16
1.52311e-16
-2.9112e-15
1.59528e-16
-9.73402e-16
1.66676e-16
-1.09417e-15
1.9393e-16
-1.84372e-15
8.20437e-18
-1.12224e-15
-1.40522e-16
-1.28042e-15
-2.13341e-16
-9.69738e-16
-1.39221e-16
-1.01115e-15
-5.96627e-18
-1.29397e-15
2.03092e-16
-1.46748e-15
1.04791e-16
-1.10469e-15
-3.32155e-16
-5.51779e-16
-3.56311e-16
-1.61374e-16
-2.27792e-16
2.72097e-16
3.52436e-17
-2.96214e-17
-9.55568e-18
-7.82023e-16
4.28312e-16
-1.79876e-15
6.89864e-16
-2.63182e-15
3.62638e-16
-2.42585e-15
-5.13473e-16
-1.23584e-15
-5.6827e-16
-2.15454e-15
-3.91124e-17
-1.19658e-15
3.76464e-16
-2.52607e-15
2.34685e-16
-1.83174e-15
5.24502e-17
-2.72443e-15
2.13826e-16
-2.2621e-15
-2.98296e-16
-2.6526e-15
-7.10771e-16
-2.30176e-15
-3.17804e-16
-1.73582e-15
-5.43166e-17
-1.01959e-15
-1.3419e-16
4.63484e-17
1.41503e-17
3.20764e-16
3.32976e-16
-2.21035e-15
4.35824e-16
2.21405e-16
3.71835e-16
-2.50575e-15
-1.79071e-16
-2.97225e-15
-1.39257e-15
-1.29011e-15
-1.08139e-15
2.08969e-16
-7.67616e-16
1.33754e-15
-4.5365e-16
3.2255e-15
-1.836e-16
2.49892e-15
-1.24773e-15
2.05176e-15
-2.47014e-15
-5.20536e-15
-1.53465e-15
6.81445e-16
-5.62339e-16
-2.69877e-15
-1.18351e-15
-2.89469e-15
-6.19966e-16
-3.47564e-15
2.67469e-16
-4.04992e-15
3.89828e-16
-3.84454e-15
-1.91425e-16
-2.40766e-15
-8.8572e-16
2.91706e-16
-1.11505e-15
-5.03e-15
-6.72819e-16
-3.58654e-15
-7.15861e-17
-4.12836e-15
-6.4257e-16
-3.5229e-15
-6.83928e-16
-4.06129e-15
-8.44364e-17
-4.36958e-15
5.84121e-17
-3.95041e-15
-3.5171e-16
-3.92193e-15
-1.935e-16
-4.27123e-15
4.11969e-18
-4.01004e-15
8.00052e-17
-4.57486e-15
5.76809e-17
-2.81436e-15
-2.78908e-16
-4.26461e-15
-5.25017e-16
-4.25024e-15
-3.57707e-16
-5.08095e-15
-3.17568e-17
-5.54475e-15
5.1683e-17
-5.12421e-15
1.61223e-16
-7.40836e-15
-1.23056e-16
-4.17398e-15
-3.73651e-16
-6.48132e-15
-9.73334e-16
-8.14679e-16
-4.89686e-16
-4.80938e-15
-1.35807e-16
-7.54087e-16
2.84497e-16
-3.46411e-15
1.547e-16
-2.01567e-15
4.19521e-16
-4.2573e-15
-1.2103e-16
-6.71708e-16
-7.00518e-16
-1.02468e-15
-1.91141e-16
-1.54918e-15
4.78404e-16
-2.15651e-15
2.78971e-16
-2.28866e-15
-7.20939e-17
-2.39802e-15
-3.38246e-16
-2.79482e-15
-2.20168e-16
-3.18902e-15
8.53339e-17
-3.01911e-15
1.12693e-16
-2.39844e-15
1.56777e-17
-8.08354e-16
2.23211e-16
6.37587e-17
4.59803e-16
1.55895e-15
7.04464e-16
-1.68802e-15
2.36908e-16
1.90866e-14
-1.14513e-14
6.53787e-16
-2.31114e-15
1.22223e-14
-1.19919e-15
2.46686e-16
-2.17716e-15
-1.08022e-15
-1.444e-15
-1.9159e-15
-1.0844e-15
-2.41337e-15
-9.71544e-16
-3.06583e-15
-2.21091e-16
-3.27574e-15
8.0387e-17
-3.47831e-15
2.06885e-16
-3.95503e-15
7.39957e-16
-1.25815e-15
-6.66812e-16
-6.26377e-15
-5.74384e-16
-2.37772e-15
-6.27224e-16
-4.64065e-15
-6.37867e-16
-5.04697e-15
-3.62593e-16
-5.21111e-15
-9.05647e-17
-4.19295e-15
-1.97874e-16
-3.01219e-15
-2.65321e-16
-3.03525e-15
5.26053e-16
-3.24898e-15
8.94681e-16
-2.17046e-15
-2.92362e-17
-1.09462e-15
-5.0503e-16
-5.92207e-15
-5.58222e-16
-1.57517e-15
-6.63234e-16
-5.09815e-15
-5.66672e-16
-3.49118e-15
-3.21208e-16
-3.84061e-15
3.51693e-16
-5.22001e-15
3.98588e-16
-2.42264e-15
4.69286e-16
-5.14365e-15
-3.37205e-17
-1.07469e-15
-4.2416e-16
-1.05771e-15
-1.38739e-16
-8.7631e-16
-7.83805e-17
4.9954e-16
1.22185e-16
-1.64493e-15
1.22827e-16
-3.43825e-15
-1.68394e-16
-3.35198e-15
-5.62662e-16
-3.34691e-15
-7.95848e-17
-3.54837e-15
3.95626e-16
-4.1215e-15
4.38525e-16
-4.74413e-15
3.49705e-16
-5.52219e-15
-8.13209e-16
-5.28702e-15
-1.44242e-15
-5.29388e-15
-3.89316e-16
-5.46146e-15
-1.02986e-17
-3.53713e-15
1.2158e-18
-2.34982e-15
6.76314e-16
-7.45725e-16
8.41512e-16
1.46948e-15
1.69142e-16
3.1884e-15
2.88211e-17
4.13161e-15
1.88706e-16
2.8778e-15
1.68785e-16
8.85221e-15
-4.48999e-15
1.36942e-14
-5.88609e-15
-8.94422e-15
-1.48855e-15
3.42188e-15
-9.16065e-16
8.20613e-16
-6.92041e-16
-1.71204e-15
-1.26962e-16
-3.65574e-15
-2.57507e-16
-4.05981e-15
-6.46608e-16
-4.4752e-15
-5.17281e-16
-4.28759e-15
1.24899e-16
-3.84658e-15
-1.71973e-16
-3.73582e-15
8.34856e-17
-5.63931e-15
2.59557e-16
-3.33879e-15
-1.92956e-16
-4.17968e-15
-8.5374e-16
-4.42145e-15
-1.02162e-15
-4.80507e-15
-4.00993e-16
-5.65686e-15
-6.3732e-17
-5.67032e-15
4.36487e-17
-4.81125e-15
-3.94425e-17
-3.7718e-15
3.65368e-16
-2.35153e-15
1.08597e-15
-2.00688e-15
-1.35145e-15
1.12209e-14
-2.7314e-15
-8.21748e-16
-8.85415e-16
7.46061e-15
-3.8659e-16
-7.18568e-16
-4.22258e-16
-1.35028e-15
-8.07541e-16
-2.05889e-15
-8.37657e-16
-2.67149e-15
-7.02382e-16
-2.73972e-15
-6.13674e-16
-1.84768e-15
-1.6165e-16
-2.89794e-15
-2.20675e-16
-3.14776e-15
2.11051e-16
-3.43283e-15
-1.46543e-16
-3.6371e-15
-1.76391e-17
-3.76979e-15
6.71127e-16
-3.40815e-15
2.48866e-16
-3.59176e-15
-2.13e-16
-4.57936e-15
-5.77907e-16
-5.41633e-15
-4.11795e-16
-4.29009e-15
-9.17432e-16
-3.46189e-15
-5.607e-16
-3.2425e-15
4.35963e-16
-3.08633e-15
-1.55516e-16
-3.17005e-15
-2.33244e-16
-7.09345e-15
-3.38961e-16
-3.83668e-16
8.79555e-16
-8.66775e-15
-2.16136e-16
-2.90792e-15
-5.56881e-16
-4.3229e-15
-3.26965e-16
-4.82986e-15
-1.71796e-16
-5.3216e-15
1.08852e-16
-5.43851e-15
7.07471e-17
-3.7323e-15
-5.11068e-16
-3.1587e-15
-6.93362e-16
-2.809e-15
-3.99528e-16
-3.00834e-15
1.22732e-16
-2.33266e-15
3.31092e-16
-3.55953e-15
9.39343e-17
-3.45742e-15
-8.33393e-17
-2.69576e-15
-4.68314e-17
-1.8537e-15
3.314e-16
-7.54818e-16
6.9469e-16
-9.31998e-15
2.64027e-16
-2.74974e-15
7.61691e-16
-9.86249e-15
1.33924e-16
-1.2914e-15
-4.37647e-16
-3.36082e-15
-9.31292e-16
-3.16001e-15
-9.34803e-16
-3.2353e-15
2.16689e-16
-3.20312e-15
6.19935e-16
-2.95564e-15
6.44947e-16
-3.13959e-15
4.63698e-16
-3.81744e-15
3.35003e-16
-4.7522e-15
2.60098e-16
-5.65968e-15
-2.56511e-16
-4.84131e-15
-1.28091e-15
-3.60236e-15
-1.16096e-15
-3.96107e-15
-7.33306e-17
-4.03623e-15
1.2533e-16
-4.12787e-15
3.27467e-17
-3.57939e-15
1.29394e-16
-3.13116e-15
3.47278e-16
-3.40085e-15
6.64139e-16
-3.18062e-15
1.09843e-16
-2.75843e-15
-3.93592e-16
-2.81574e-15
5.34145e-18
-2.43867e-18
3.89106e-16
-3.67679e-15
1.60624e-16
-2.42763e-15
4.1379e-17
-3.59951e-15
1.23169e-16
-1.356e-15
1.64719e-16
-4.76966e-16
-3.03528e-17
-1.8389e-16
3.07978e-16
-1.43987e-16
1.61722e-16
-4.43179e-16
-2.11798e-16
-1.75266e-15
-1.13581e-16
-5.51697e-15
3.00001e-16
1.86176e-16
-3.65911e-17
-1.40608e-16
-4.73433e-17
-1.30994e-17
-7.39207e-17
2.47843e-17
-4.50657e-18
5.23932e-18
-6.90998e-17
4.16659e-17
-1.15776e-16
-4.81331e-18
-8.94916e-17
-8.40133e-18
-1.51909e-16
1.86313e-17
-2.23278e-16
-4.09547e-18
-3.31524e-16
2.16039e-17
-2.80384e-16
-1.51706e-19
-1.78819e-16
-3.56593e-17
-1.02066e-16
-9.25849e-17
-2.0227e-17
-5.34786e-17
-1.54289e-16
4.73883e-17
-2.0224e-16
-1.51363e-17
-2.71156e-16
-3.67217e-17
-2.65411e-16
-5.26483e-17
-3.2654e-16
-9.84403e-17
-3.34053e-16
-9.41309e-17
-3.80362e-16
-1.12875e-16
-2.70514e-16
-7.14493e-17
-3.50933e-16
-4.73066e-17
-3.33893e-16
-9.4444e-17
-4.13069e-16
4.30077e-17
-2.8663e-16
7.37703e-17
-2.40161e-16
-2.39886e-17
-1.54828e-16
-1.74404e-17
-5.01398e-16
-8.56445e-17
-1.25211e-16
-1.57068e-16
-1.14301e-16
-1.08745e-16
-2.14645e-16
-1.13057e-16
-6.54813e-16
-9.20554e-17
-4.66004e-16
-2.53724e-16
-3.69283e-16
-3.44203e-17
-2.98077e-16
3.49418e-17
-4.08675e-16
-9.85355e-17
-4.27301e-16
-1.61112e-16
-3.31953e-16
-1.61764e-16
-2.79882e-16
-1.46067e-16
-3.52815e-16
4.33007e-17
-2.72201e-16
5.53162e-17
-6.19766e-16
2.09793e-17
-1.08769e-15
4.92985e-17
-9.0789e-16
-5.68749e-17
-7.04996e-16
-2.05163e-16
-6.80638e-16
-1.11993e-16
-7.42836e-16
-1.6932e-17
-8.13153e-16
7.24752e-17
-1.1069e-15
-1.69002e-16
-6.05976e-16
-2.03676e-16
-5.728e-16
4.31471e-17
-3.80994e-16
6.40369e-17
-9.35695e-16
-4.33468e-18
-8.93755e-16
7.47062e-17
-2.0179e-15
8.48501e-17
-9.8018e-16
5.04068e-17
-1.7084e-15
-1.97969e-17
-7.26254e-16
-2.82635e-16
-6.27128e-16
-2.42762e-16
-4.35196e-16
-7.27567e-17
-4.04836e-16
1.3482e-16
-9.75508e-16
6.70401e-17
-9.44607e-16
-7.86402e-17
-1.8132e-15
-3.79624e-17
-9.52525e-16
-1.26504e-16
-1.20445e-15
-2.44762e-16
-8.83363e-16
-5.94459e-17
-8.95013e-16
7.63459e-17
-9.70858e-16
1.58285e-16
-1.40609e-15
1.41697e-16
-1.4793e-15
-1.15238e-16
-1.27858e-15
-3.51104e-16
-9.91011e-16
-3.07357e-16
-3.51747e-16
1.1843e-16
-2.53715e-15
2.27428e-16
-9.95966e-16
1.03262e-16
-3.48455e-15
8.65822e-17
-6.03674e-16
-1.01881e-16
-1.47244e-15
-2.46574e-16
-1.13603e-15
-1.06845e-16
-1.81009e-15
8.59066e-17
-1.36659e-15
-5.7198e-17
-1.13018e-15
-2.27852e-16
-9.90583e-16
-1.14506e-16
-1.83606e-15
-1.64777e-16
-1.61032e-15
1.3272e-16
-2.23133e-15
-1.07021e-16
-1.26309e-15
-9.06775e-17
-4.85554e-16
1.98484e-16
-1.54224e-15
5.35751e-17
-1.23994e-15
7.22687e-18
-1.69935e-15
-5.67473e-18
-1.20642e-15
-1.68444e-16
-1.26985e-15
-1.94887e-16
-1.34374e-15
-3.85824e-17
-1.66659e-15
1.66513e-16
-1.54424e-15
-1.61992e-16
-1.10175e-15
-2.64426e-16
-9.71401e-16
2.33477e-17
-1.06869e-15
1.97099e-16
-1.18337e-15
3.70343e-17
-7.52298e-16
1.60495e-16
-3.1384e-16
1.54111e-16
-6.16729e-16
-3.6875e-17
-6.96248e-16
-8.0502e-17
-8.24649e-16
5.63442e-17
-9.95549e-16
9.90627e-17
-1.39225e-15
9.64385e-17
-1.46558e-15
-1.0659e-16
-1.29614e-15
-3.13741e-16
-1.13389e-15
-1.03022e-16
-1.06521e-15
4.40162e-17
-1.15257e-15
1.33097e-16
-1.11614e-15
8.34551e-17
-9.27604e-16
-2.72931e-17
-4.67503e-16
7.53826e-17
-6.5991e-16
1.04418e-16
-8.75534e-16
1.36475e-16
-8.76058e-16
3.94931e-17
-1.1202e-15
-4.77773e-17
-7.76106e-16
-5.55139e-18
-1.50752e-15
-3.71709e-17
-1.09672e-15
-1.17141e-16
-1.09462e-15
9.8832e-17
-1.22833e-15
2.55257e-16
-2.00992e-15
2.56219e-16
-1.29165e-15
2.04068e-16
-2.27823e-15
-2.83507e-17
-1.69733e-15
1.25741e-16
-3.12635e-15
2.6463e-16
-2.04185e-15
1.53912e-16
-1.53765e-15
2.1595e-16
-1.63219e-15
-1.19672e-16
-1.71773e-15
1.38147e-16
-1.42928e-15
4.7869e-17
-1.46576e-15
-1.58511e-16
-1.59978e-15
-8.23183e-17
-1.50597e-15
9.86233e-17
-1.35576e-15
3.74208e-16
-2.84415e-15
5.65251e-16
-2.73594e-15
-7.16711e-17
-2.01307e-15
-4.87127e-16
-2.61655e-15
-3.33429e-16
-9.27704e-16
-3.39675e-16
-1.883e-15
-1.99798e-17
-1.0811e-15
3.41224e-16
-1.72038e-15
4.0375e-17
-1.31178e-15
-2.49349e-16
-1.4421e-15
1.33115e-16
-1.32715e-15
2.59321e-16
-2.20229e-15
2.44739e-16
-2.28438e-15
5.65439e-16
-3.00244e-15
1.01691e-16
-2.03588e-15
-4.86925e-16
-1.36148e-15
-3.50692e-16
-1.33046e-15
-1.87754e-17
-1.45444e-15
2.38808e-16
-1.2293e-15
9.36839e-18
-1.29153e-15
5.76596e-17
-2.35978e-15
2.06492e-16
-1.85298e-15
8.30963e-17
-2.83527e-15
-2.37493e-17
-7.15911e-16
3.67031e-17
-2.3411e-15
-4.5735e-17
-1.53451e-15
-1.33705e-16
-1.42882e-15
-3.32689e-16
-1.68489e-15
-1.28691e-16
-1.9981e-15
5.47569e-17
-2.21737e-15
2.20791e-16
-2.99106e-15
5.97709e-17
-2.71622e-15
-2.1146e-16
-1.26762e-15
-2.45506e-16
-1.40553e-15
1.87906e-16
-2.29164e-15
4.25993e-16
-3.06468e-15
3.219e-16
-2.87791e-15
-9.29499e-17
-2.08795e-15
-2.82986e-16
-1.51923e-15
-2.18646e-16
-1.75332e-15
6.25811e-19
-1.53896e-15
2.53099e-16
-2.04004e-15
2.39369e-16
-2.37662e-15
-7.53733e-17
-1.82155e-15
-1.22842e-16
-7.34588e-16
1.21303e-16
-4.04528e-17
2.62319e-16
1.55065e-16
3.97313e-16
-2.23259e-15
2.74002e-16
3.38211e-16
3.35939e-16
-1.15239e-15
-1.76479e-15
2.84427e-15
-1.27857e-15
-1.02431e-15
-1.6622e-15
-2.34311e-16
-6.75531e-16
6.47162e-16
-1.07736e-15
8.03948e-16
-8.73449e-16
1.02713e-15
-7.38971e-16
1.25694e-15
-9.89377e-16
-1.42732e-15
-8.98684e-16
-2.94861e-15
-8.4991e-16
-3.03452e-15
-9.36686e-16
-3.30942e-15
-5.25086e-16
-3.28901e-15
-2.22009e-16
-3.34205e-15
3.54527e-16
-3.21162e-15
2.42822e-16
-2.95439e-15
-4.99526e-16
-4.27053e-15
-4.79047e-16
-4.2871e-15
-6.80536e-16
-4.12039e-15
-5.732e-16
-4.34523e-15
-8.26585e-16
-3.78208e-15
-8.86879e-16
-4.43837e-15
-3.19371e-16
-4.63148e-15
2.87449e-16
-4.72034e-15
-7.41359e-17
-4.65614e-15
-2.73553e-16
-4.2194e-15
-8.29169e-17
-4.18203e-15
-1.2378e-16
-4.14704e-15
-1.7039e-16
-3.55724e-15
-1.2025e-16
-4.61137e-15
-1.25575e-16
-4.96436e-15
2.37998e-18
-4.85815e-15
-3.4088e-17
-5.15469e-15
1.22141e-17
-4.60269e-15
3.43913e-16
-5.52422e-15
2.11467e-16
-3.85561e-15
-1.90062e-16
-3.4742e-15
-5.31914e-16
-3.36819e-15
-3.34068e-16
-3.19636e-15
-4.08487e-16
-1.80607e-15
-5.66212e-16
-1.6005e-15
-2.03938e-16
-1.86871e-15
3.79608e-16
-4.23888e-15
4.86781e-16
-2.50375e-15
7.27469e-17
-2.95298e-15
-8.79859e-18
-2.85706e-15
-1.19239e-16
-2.30273e-15
-3.97035e-16
-2.23645e-15
-7.67584e-18
-3.04982e-15
5.26792e-16
-4.27521e-15
6.79967e-16
-4.70275e-15
6.41576e-16
-4.54366e-15
2.99437e-16
-4.06231e-15
-1.96875e-17
-2.4076e-15
1.94681e-17
-7.82037e-16
8.4267e-17
2.55926e-16
4.28107e-16
-3.41743e-15
2.86579e-16
5.06137e-15
-1.58867e-15
-5.88925e-15
-1.30313e-14
7.70952e-15
-1.73799e-15
-3.55844e-15
-2.06816e-15
-1.78399e-15
-1.64256e-15
-2.31234e-15
-1.03586e-15
-2.87243e-15
-1.11133e-15
-3.93703e-15
-4.84122e-16
-3.87516e-15
2.88599e-17
-3.4038e-15
-1.01446e-16
-3.71676e-15
1.07325e-16
-3.51838e-15
2.19948e-16
-6.6539e-15
-3.83573e-16
-3.28548e-15
-1.27468e-17
-4.52098e-15
-5.03123e-16
-4.72244e-15
-3.9217e-16
-5.00871e-15
-4.47893e-17
-4.92855e-15
2.46369e-16
-4.9659e-15
-3.97987e-17
-3.65161e-15
-5.00319e-16
-1.79556e-15
-2.3003e-16
-7.38978e-16
3.37305e-16
-3.14117e-16
-2.09999e-16
-1.33123e-15
-2.18498e-16
-2.58072e-15
3.62198e-16
-6.49245e-15
3.42349e-16
-4.10325e-15
-3.97278e-16
-4.04918e-15
-2.14392e-16
-3.57744e-15
2.9104e-16
-3.23582e-15
8.54608e-16
-6.03612e-15
3.98766e-16
-2.13873e-15
-2.45214e-16
-5.49508e-15
-2.25688e-16
-1.69602e-15
-3.51e-16
-1.88078e-15
-5.66411e-16
-2.08974e-15
-6.65385e-16
-2.23047e-15
-7.17874e-16
-3.10383e-15
-1.97844e-16
-4.38655e-15
2.92933e-16
-4.89858e-15
2.05709e-16
-4.7715e-15
3.73454e-17
-4.90329e-15
9.13044e-17
-6.26423e-15
8.31105e-16
-7.39458e-15
8.07695e-16
-7.28207e-15
-9.26966e-16
-5.14083e-15
-7.01255e-16
-3.48201e-15
3.31039e-16
-2.46375e-15
6.29493e-16
-3.99362e-16
7.37245e-16
4.34784e-15
-1.15066e-15
1.00758e-14
-2.85303e-15
1.26195e-14
-9.26886e-16
1.2453e-14
-9.07383e-16
1.52163e-14
-1.01281e-15
9.27138e-15
-7.3676e-16
-6.28239e-15
-8.0107e-16
-2.02518e-15
2.57595e-16
-4.28789e-15
2.50381e-16
-5.36037e-15
-4.90719e-16
-4.97513e-15
-9.06522e-16
-4.75262e-15
-8.80986e-16
-4.6721e-15
-8.76732e-16
-4.786e-15
-3.09947e-16
-4.08369e-15
-1.98439e-16
-3.19156e-15
-4.12877e-16
-2.59174e-15
3.594e-17
-2.67065e-15
6.36794e-17
-3.41875e-15
-2.64892e-16
-4.29107e-15
-3.43898e-16
-5.50447e-15
-1.31567e-16
-5.80378e-15
-2.22572e-16
-4.7101e-15
-6.9085e-16
-3.91627e-15
1.14967e-16
-3.32622e-15
8.57683e-16
-1.51443e-15
9.31321e-16
-2.00809e-16
-5.08853e-16
9.37327e-15
-3.59664e-15
-2.86577e-15
-7.38569e-16
5.08005e-15
1.66209e-16
-1.70452e-15
-6.10521e-16
-2.00196e-15
-4.88654e-16
-3.26544e-15
-2.70068e-16
-4.72206e-15
2.21557e-17
-5.48968e-15
-3.79156e-16
-4.41555e-15
-1.03202e-15
-4.55952e-15
-9.66983e-16
-3.93938e-15
-4.27152e-16
-4.05658e-15
1.91063e-16
-4.70031e-15
4.01449e-16
-4.94235e-15
4.28775e-16
-4.86196e-15
1.12594e-15
-4.56982e-15
6.09248e-16
-4.46618e-15
2.2024e-16
-4.10591e-15
-6.30699e-16
-3.65816e-15
-4.34729e-16
-3.8101e-15
8.68062e-17
-2.50679e-15
-5.76669e-16
-1.01089e-16
-4.00449e-16
2.1707e-16
3.11297e-16
-7.97995e-16
5.15685e-16
1.78328e-15
-2.94376e-16
-6.2074e-15
-6.32984e-16
-2.46099e-15
2.48078e-16
-3.83162e-15
3.78116e-16
-4.8956e-15
5.37724e-16
-5.67668e-15
2.35991e-16
-5.6152e-15
-2.37925e-16
-4.78678e-15
-6.79059e-16
-4.96006e-15
-2.65538e-16
-5.22233e-15
-3.6486e-16
-5.60676e-15
-8.28029e-16
-2.74936e-15
-1.05056e-15
-3.19976e-15
-2.20619e-16
-3.50277e-15
8.41528e-16