/*--------------------------------*- C++ -*----------------------------------*\
  =========                 |
  \\      /  F ield         | OpenFOAM: The Open Source CFD Toolbox
   \\    /   O peration     | Website:  https://openfoam.org
    \\  /    A nd           | Version:  7
     \\/     M anipulation  |
\*---------------------------------------------------------------------------*/
FoamFile
{
    version     2.0;
    format      ascii;
    class       volScalarField;
    location    "4500";
    object      alpha.wetting;
}
// * * * * * * * * * * * * * * * * * * * * * * * * * * * * * * * * * * * * * //

dimensions      [0 0 0 0 0 0 0];

internalField   nonuniform List<scalar> 
160000
(
0.522206
0.522209
0.474038
0.473373
0.444073
0.450882
0.535023
0.58257
0.521301
0.506384
0.487754
0.474858
0.477779
0.477621
0.477621
0.510074
0.534624
0.534624
0.538378
0.538379
0.53838
0.46798
0.46798
0.498374
0.529116
0.460864
0.460391
0.460386
0.460394
0.460376
0.514036
0.531131
0.531161
0.531131
0.531148
0.47008
0.47008
0.47008
0.47008
0.527881
0.530992
0.530984
0.461606
0.461606
0.461606
0.461606
0.528403
0.552844
0.552837
0.552844
0.473569
0.455045
0.455033
0.455064
0.455024
0.45508
0.533139
0.533156
0.494344
0.490884
0.497329
0.511688
0.511686
0.511688
0.508371
0.508332
0.508371
0.508332
0.508343
0.444794
0.444788
0.444782
0.444776
0.444782
0.50108
0.523428
0.526589
0.526596
0.526654
0.526665
0.526654
0.526662
0.526654
0.50854
0.491307
0.491308
0.491304
0.491305
0.491837
0.491807
0.488737
0.488717
0.500445
0.511743
0.511746
0.493615
0.5052
0.516008
0.524509
0.523762
0.523765
0.511239
0.511204
0.511223
0.479682
0.479679
0.479677
0.479674
0.482826
0.535537
0.53559
0.535537
0.535549
0.535537
0.515565
0.515574
0.498538
0.481921
0.495655
0.545684
0.546547
0.52271
0.522716
0.52271
0.523284
0.533706
0.533725
0.533701
0.53371
0.533697
0.533706
0.514161
0.496234
0.496184
0.49623
0.49618
0.496227
0.496181
0.496201
0.488783
0.497922
0.497913
0.497372
0.497378
0.497398
0.497405
0.501247
0.517821
0.526265
0.526271
0.486483
0.486493
0.486479
0.486489
0.486475
0.486493
0.486446
0.51921
0.519172
0.519183
0.480864
0.47546
0.475464
0.516857
0.511798
0.484454
0.484457
0.453823
0.453817
0.453823
0.453829
0.563826
0.563818
0.563811
0.56378
0.496801
0.496799
0.496801
0.514038
0.535734
0.535702
0.535712
0.5357
0.511466
0.502091
0.507809
0.507813
0.507817
0.424171
0.381857
0.408197
0.410118
0.446143
0.534185
0.534214
0.486061
0.291509
0.291542
0.623124
0.69816
0.698058
0.698143
0.696482
0.519077
0.410089
0.410094
0.446051
0.542823
0.542933
0.54282
0.542879
0.542814
0.542828
0.542808
0.542806
0.542666
0.507781
0.492504
0.492622
0.549363
0.549451
0.549375
0.549376
0.494328
0.487753
0.487767
0.487694
0.487774
0.508276
0.553957
0.545562
0.526454
0.502837
0.502833
0.502825
0.502824
0.490091
0.507049
0.507042
0.534681
0.556558
0.524313
0.524316
0.519054
0.496841
0.387839
0.277221
0.226992
0.226978
0.249949
0.671124
0.72694
0.726922
0.651668
0.516507
0.487471
0.48746
0.442128
0.407848
0.407821
0.432967
0.537381
0.537423
0.504717
0.50038
0.500374
0.500369
0.498258
0.401077
0.401086
0.424771
0.583543
0.583488
0.583562
0.583488
0.46406
0.462418
0.46237
0.5316
0.545344
0.545366
0.448393
0.428223
0.428257
0.443895
0.528666
0.528656
0.528645
0.496175
0.507423
0.522659
0.522658
0.522659
0.522659
0.59045
0.613347
0.613342
0.493738
0.3355
0.175118
0.175138
0.175251
0.693296
0.693671
0.693294
0.693619
0.693241
0.647001
0.539332
0.428284
0.42009
0.42008
0.416642
0.416682
0.41664
0.506979
0.516837
0.516829
0.516821
0.496701
0.471981
0.415096
0.347024
0.347052
0.346893
0.34709
0.376734
0.547886
0.547869
0.547852
0.531976
0.493696
0.493663
0.493528
0.490467
0.485048
0.429932
0.380901
0.3809
0.380901
0.451546
0.500771
0.48185
0.425667
0.425667
0.425667
0.425667
0.517773
0.566327
0.566485
0.566332
0.566341
0.493205
0.477983
0.477983
0.477983
0.530914
0.554049
0.554139
0.554049
0.554062
0.515094
0.508839
0.480903
0.480882
0.492139
0.492711
0.49274
0.549753
0.549745
0.549713
0.549331
0.517112
0.517144
0.509485
0.509475
0.509464
0.486034
0.488747
0.498577
0.540451
0.552445
0.529434
0.529461
0.529396
0.529459
0.529377
0.529427
0.529379
0.489167
0.486257
0.446516
0.425484
0.37972
0.262686
0.262724
0.262655
0.227002
0.268964
0.281111
0.490684
0.490684
0.558041
0.478885
0.461502
0.455918
0.455919
0.493678
0.497238
0.510672
0.510671
0.506711
0.481768
0.477621
0.488223
0.534174
0.534178
0.480808
0.480806
0.480807
0.50211
0.472154
0.529119
0.529122
0.529118
0.460397
0.460391
0.460396
0.478669
0.522199
0.522192
0.501193
0.514453
0.531137
0.531131
0.47008
0.493371
0.47008
0.48501
0.530993
0.53098
0.530992
0.498991
0.461606
0.461606
0.461606
0.477908
0.488506
0.537391
0.552828
0.508474
0.456865
0.511653
0.527226
0.52723
0.487328
0.533148
0.509686
0.490885
0.49088
0.490876
0.511686
0.509131
0.494603
0.499862
0.508347
0.476584
0.476583
0.476584
0.497481
0.497485
0.497486
0.461609
0.464535
0.505392
0.526586
0.526597
0.52259
0.499174
0.499171
0.499169
0.499166
0.497539
0.497538
0.497536
0.497538
0.497537
0.488735
0.488698
0.488736
0.488697
0.49293
0.511743
0.511746
0.493615
0.493607
0.516047
0.522338
0.52721
0.527215
0.52721
0.527215
0.490041
0.490033
0.492395
0.479682
0.491808
0.535574
0.535537
0.535575
0.535537
0.51634
0.500605
0.497541
0.493476
0.492605
0.48191
0.481911
0.486946
0.546743
0.546712
0.546743
0.54671
0.546715
0.53642
0.53371
0.533706
0.518974
0.533697
0.533706
0.533692
0.496243
0.496193
0.518242
0.530611
0.502982
0.506358
0.506393
0.488772
0.488778
0.488759
0.488778
0.497339
0.526273
0.526312
0.526274
0.526294
0.526274
0.52628
0.492097
0.492097
0.492097
0.486493
0.486454
0.486493
0.486439
0.486496
0.493432
0.475712
0.475451
0.475434
0.475451
0.527355
0.528023
0.490612
0.484459
0.487859
0.456688
0.440429
0.460341
0.521005
0.571484
0.502401
0.502398
0.525015
0.535696
0.535722
0.535699
0.535726
0.535701
0.535713
0.5357
0.535712
0.481694
0.481673
0.504199
0.461607
0.30212
0.204878
0.204827
0.244475
0.664479
0.749401
0.680409
0.465674
0.291509
0.291543
0.300925
0.68287
0.698057
0.698113
0.651471
0.519759
0.42199
0.410094
0.410089
0.535016
0.542939
0.54282
0.542138
0.542814
0.528384
0.499046
0.511138
0.524195
0.502318
0.502316
0.512111
0.549356
0.549401
0.549363
0.515108
0.487785
0.487759
0.487774
0.487709
0.487774
0.487661
0.487784
0.553856
0.566454
0.566399
0.566443
0.566399
0.566414
0.473488
0.473486
0.507047
0.543373
0.555377
0.556574
0.511931
0.511917
0.49335
0.304872
0.214857
0.214898
0.323917
0.727244
0.727038
0.72722
0.727005
0.56415
0.505319
0.505368
0.487926
0.441264
0.418987
0.430584
0.537489
0.537403
0.537446
0.472924
0.472924
0.501773
0.501786
0.501796
0.401037
0.40105
0.458529
0.583576
0.583484
0.583571
0.583488
0.524404
0.462424
0.462366
0.462424
0.479037
0.545366
0.462321
0.428245
0.428257
0.503496
0.528684
0.528677
0.528666
0.513057
0.494892
0.494903
0.502715
0.540203
0.624084
0.624067
0.582878
0.536812
0.537547
0.399401
0.17512
0.17514
0.175108
0.430114
0.69364
0.693418
0.69334
0.534898
0.423119
0.415218
0.415223
0.451579
0.441276
0.416672
0.416682
0.416641
0.515556
0.516854
0.516846
0.516837
0.490683
0.464277
0.405065
0.347098
0.347102
0.346942
0.612665
0.623648
0.623786
0.547953
0.535366
0.526355
0.458102
0.453419
0.453437
0.464126
0.482106
0.501049
0.459481
0.444293
0.475793
0.465244
0.454792
0.52064
0.520647
0.425668
0.425667
0.425667
0.53142
0.566314
0.566494
0.566319
0.566351
0.516712
0.477995
0.477983
0.507595
0.539079
0.520999
0.51815
0.554049
0.554074
0.554049
0.527891
0.492154
0.480841
0.556528
0.568825
0.568971
0.568825
0.568892
0.543411
0.51841
0.518487
0.520853
0.488356
0.485457
0.483364
0.483362
0.483364
0.496106
0.515013
0.556723
0.556724
0.556723
0.556722
0.537472
0.539092
0.539096
0.509866
0.507029
0.507091
0.507022
0.494832
0.494811
0.448659
0.316418
0.327426
0.248219
0.227023
0.263205
0.281111
0.490684
0.498286
0.558044
0.550492
0.550498
0.491787
0.492845
0.519149
0.492661
0.492663
0.509285
0.509289
0.481772
0.484624
0.512351
0.512348
0.534174
0.534173
0.480806
0.480804
0.480802
0.529117
0.52912
0.506798
0.506801
0.513956
0.51396
0.496787
0.522194
0.522192
0.474543
0.493659
0.526358
0.531125
0.510839
0.481574
0.519634
0.519633
0.515619
0.487649
0.48091
0.480906
0.486088
0.493836
0.510236
0.510237
0.484329
0.484334
0.484338
0.497327
0.508467
0.48336
0.478085
0.47809
0.478082
0.478092
0.524162
0.536473
0.536463
0.536469
0.475622
0.467127
0.494613
0.494605
0.489702
0.508328
0.508343
0.508326
0.476586
0.491067
0.48624
0.486237
0.486341
0.486341
0.46848
0.4685
0.46846
0.4685
0.499404
0.521933
0.521909
0.521917
0.521909
0.521895
0.5045
0.472771
0.488173
0.509208
0.509195
0.488715
0.490719
0.498942
0.49391
0.493897
0.493901
0.456323
0.456321
0.456311
0.497797
0.495572
0.48032
0.527204
0.519292
0.480992
0.492392
0.516478
0.535892
0.507455
0.504529
0.504528
0.504529
0.517742
0.517745
0.503897
0.506958
0.506961
0.481899
0.482892
0.518182
0.53477
0.498612
0.48077
0.480785
0.49694
0.521281
0.516927
0.493785
0.493764
0.493785
0.493764
0.493785
0.540154
0.545507
0.545511
0.530612
0.509586
0.493945
0.49394
0.493937
0.488767
0.506261
0.539415
0.539418
0.494853
0.494827
0.494853
0.497887
0.526285
0.526274
0.486501
0.486492
0.486497
0.486479
0.489755
0.504492
0.504492
0.493008
0.517369
0.517368
0.517368
0.475451
0.475433
0.47545
0.52993
0.529975
0.529934
0.502031
0.440429
0.440429
0.440429
0.497585
0.579622
0.579615
0.579622
0.523832
0.504518
0.504514
0.50451
0.504501
0.532522
0.5357
0.533154
0.514097
0.506161
0.425152
0.299108
0.212104
0.204878
0.204829
0.228862
0.787629
0.787676
0.749418
0.581855
0.41086
0.312225
0.291534
0.330192
0.492064
0.584554
0.540752
0.451405
0.402896
0.435082
0.517489
0.564656
0.564638
0.526178
0.497342
0.497324
0.520986
0.497272
0.497277
0.49727
0.514994
0.502316
0.51466
0.54934
0.549367
0.533049
0.487796
0.487801
0.487781
0.487782
0.544788
0.571459
0.542805
0.51207
0.548127
0.554548
0.554593
0.566448
0.566399
0.528368
0.438421
0.478056
0.513687
0.505664
0.505659
0.534971
0.576205
0.576213
0.485761
0.314522
0.227049
0.214892
0.214787
0.40511
0.727038
0.72724
0.727038
0.556493
0.448875
0.448862
0.461962
0.445582
0.418987
0.418977
0.473028
0.537407
0.537434
0.477645
0.468062
0.507706
0.521132
0.491408
0.410691
0.400999
0.514131
0.586
0.548852
0.539296
0.539232
0.565874
0.530327
0.462415
0.462424
0.462364
0.462433
0.462371
0.498032
0.540999
0.540977
0.540954
0.528705
0.481346
0.481342
0.510575
0.546962
0.548361
0.546191
0.488239
0.372033
0.269661
0.269609
0.269557
0.269558
0.211173
0.175144
0.17512
0.304929
0.693382
0.693296
0.602542
0.462295
0.435564
0.435544
0.507639
0.504168
0.476099
0.464336
0.454835
0.454447
0.509672
0.516873
0.516865
0.506007
0.489331
0.486058
0.434005
0.347199
0.347155
0.470126
0.623803
0.623648
0.623798
0.582391
0.482971
0.476005
0.474139
0.453441
0.453436
0.519617
0.533751
0.534883
0.544571
0.518963
0.51616
0.552109
0.579807
0.594973
0.578234
0.51441
0.486903
0.495626
0.502485
0.542752
0.566492
0.566314
0.560962
0.481282
0.483991
0.524903
0.539093
0.539092
0.539093
0.506743
0.506693
0.554073
0.554049
0.514191
0.480875
0.480798
0.480835
0.56882
0.568883
0.543668
0.568114
0.567567
0.51833
0.518327
0.526538
0.568166
0.568167
0.556989
0.545536
0.563684
0.546307
0.494784
0.494784
0.511593
0.516206
0.538789
0.556713
0.556713
0.539092
0.539085
0.541055
0.541063
0.541068
0.476738
0.476721
0.476719
0.45469
0.427317
0.375571
0.234646
0.228777
0.281206
0.281201
0.494345
0.520459
0.527722
0.526711
0.531606
0.531608
0.512006
0.519147
0.492658
0.505434
0.505436
0.503254
0.502697
0.480844
0.480841
0.480837
0.482682
0.490824
0.480806
0.499292
0.478413
0.478411
0.478408
0.486449
0.531873
0.531874
0.508951
0.522192
0.52219
0.457286
0.457276
0.457278
0.457265
0.457269
0.457251
0.535897
0.535896
0.517581
0.480915
0.48091
0.480905
0.4809
0.481039
0.481042
0.490046
0.508076
0.508075
0.508072
0.502434
0.478092
0.478093
0.478089
0.47809
0.478079
0.485539
0.485536
0.473773
0.473231
0.455965
0.455967
0.455965
0.467115
0.510836
0.47839
0.478389
0.478388
0.472856
0.438648
0.48605
0.527176
0.527184
0.470578
0.469517
0.469511
0.479148
0.51638
0.516392
0.51638
0.516392
0.472736
0.472769
0.472721
0.472769
0.472698
0.472769
0.472699
0.472771
0.505731
0.50921
0.509195
0.499792
0.498945
0.498941
0.498839
0.46861
0.483869
0.48388
0.456309
0.456308
0.456305
0.456309
0.429344
0.429348
0.47662
0.504064
0.550677
0.561072
0.545179
0.540787
0.540784
0.504531
0.51333
0.517744
0.491603
0.481909
0.481893
0.481897
0.481876
0.503188
0.517087
0.485527
0.48364
0.483621
0.47325
0.473244
0.473249
0.503977
0.504003
0.496298
0.496303
0.494536
0.50732
0.502259
0.480784
0.470963
0.511743
0.524602
0.524606
0.513509
0.536971
0.559445
0.539426
0.494854
0.494794
0.494853
0.494794
0.494854
0.509928
0.502543
0.507401
0.507386
0.5074
0.507385
0.482804
0.482502
0.482484
0.482493
0.482474
0.482485
0.477534
0.501203
0.530354
0.530352
0.530384
0.519539
0.452613
0.44043
0.440429
0.440429
0.589851
0.589873
0.577333
0.53351
0.533454
0.533499
0.533451
0.533461
0.523656
0.48431
0.4843
0.528134
0.527436
0.453416
0.402751
0.324079
0.241894
0.204923
0.204832
0.363489
0.825738
0.825816
0.770511
0.602161
0.561707
0.555085
0.483217
0.38364
0.370611
0.419291
0.459543
0.457359
0.402898
0.402899
0.402886
0.528485
0.564638
0.564649
0.53033
0.525193
0.525188
0.513108
0.497277
0.497271
0.513648
0.548635
0.548636
0.54864
0.548645
0.533859
0.491601
0.487808
0.487795
0.532309
0.574683
0.574684
0.574683
0.556369
0.528295
0.500707
0.477033
0.488615
0.534431
0.524899
0.452063
0.434387
0.503261
0.553705
0.582539
0.582541
0.582539
0.576219
0.492922
0.350349
0.23569
0.214893
0.214811
0.214893
0.532026
0.727241
0.727038
0.578689
0.458651
0.457965
0.45249
0.443029
0.443027
0.443002
0.504509
0.53741
0.537458
0.530838
0.455118
0.465
0.521132
0.521134
0.486431
0.389359
0.389342
0.431409
0.585984
0.586084
0.585985
0.586083
0.585985
0.480022
0.462433
0.462363
0.462433
0.462388
0.591861
0.591841
0.554196
0.497654
0.470351
0.470349
0.481349
0.482556
0.506426
0.547948
0.548372
0.509797
0.352207
0.26974
0.269697
0.269654
0.269597
0.413313
0.603005
0.626616
0.626569
0.626575
0.477054
0.539908
0.49586
0.495846
0.539746
0.565379
0.573663
0.548784
0.526316
0.521835
0.492274
0.470928
0.492552
0.516878
0.513965
0.512848
0.493277
0.407181
0.34727
0.347257
0.378579
0.620877
0.623643
0.623721
0.54722
0.471284
0.453144
0.473963
0.483622
0.483626
0.477378
0.466849
0.460805
0.460727
0.573697
0.607227
0.631468
0.631462
0.631462
0.631461
0.596748
0.534153
0.486937
0.48697
0.503061
0.541218
0.516636
0.49746
0.493044
0.481253
0.487412
0.490959
0.506763
0.532217
0.534973
0.513425
0.49044
0.49041
0.530063
0.542899
0.542903
0.532543
0.465484
0.466055
0.484867
0.482046
0.510493
0.571627
0.571609
0.571066
0.554878
0.556905
0.566782
0.573728
0.573713
0.570979
0.521515
0.494784
0.494784
0.527288
0.516222
0.51623
0.537652
0.556705
0.556705
0.545775
0.545784
0.504233
0.504232
0.507538
0.501692
0.452693
0.452679
0.452687
0.394234
0.305687
0.2813
0.281204
0.281206
0.519128
0.541712
0.525147
0.516221
0.508818
0.508385
0.489231
0.489224
0.490747
0.489228
0.497886
0.489217
0.489228
0.49258
0.507227
0.480813
0.480795
0.48081
0.480792
0.500983
0.500972
0.490755
0.478406
0.478404
0.478404
0.46153
0.461529
0.461527
0.461521
0.513802
0.519279
0.519269
0.509174
0.519259
0.453282
0.453293
0.453268
0.453303
0.506596
0.550721
0.491681
0.527459
0.527459
0.493007
0.483539
0.483538
0.483537
0.483535
0.492471
0.492981
0.486819
0.487868
0.487862
0.475597
0.475595
0.475592
0.475586
0.499074
0.499074
0.471732
0.455967
0.466821
0.534525
0.540241
0.540237
0.540233
0.54022
0.438648
0.438631
0.438668
0.438629
0.43869
0.473711
0.48151
0.479146
0.50899
0.488785
0.488786
0.510071
0.510069
0.510064
0.472769
0.481352
0.514809
0.514795
0.514813
0.514794
0.486285
0.476422
0.476419
0.476419
0.453294
0.453294
0.453294
0.453291
0.473176
0.49438
0.494401
0.49442
0.494436
0.517245
0.429344
0.429339
0.429343
0.429316
0.524393
0.56107
0.555751
0.517742
0.518224
0.507695
0.506069
0.506102
0.513291
0.513309
0.513291
0.48188
0.481884
0.485021
0.481873
0.483022
0.483069
0.473254
0.473244
0.494648
0.494637
0.478099
0.446179
0.446171
0.483394
0.522096
0.522154
0.522097
0.52212
0.435577
0.435577
0.435573
0.453998
0.497017
0.553683
0.559443
0.559445
0.55944
0.529064
0.498402
0.498411
0.497581
0.481812
0.481807
0.4818
0.4811
0.469825
0.487454
0.523819
0.52376
0.523818
0.52376
0.504827
0.43263
0.432577
0.43263
0.432528
0.432631
0.508059
0.544825
0.452613
0.49386
0.44043
0.440429
0.466409
0.58332
0.574243
0.553866
0.522149
0.522148
0.522146
0.522147
0.5147
0.494209
0.484288
0.484286
0.484275
0.484286
0.364165
0.202258
0.312464
0.677792
0.825834
0.825751
0.825829
0.789701
0.57471
0.469079
0.515343
0.555055
0.502221
0.422332
0.434809
0.501483
0.47982
0.481144
0.402899
0.402898
0.402897
0.528369
0.564656
0.564638
0.543341
0.516555
0.505368
0.497284
0.497272
0.51918
0.548623
0.548631
0.527725
0.495392
0.495403
0.496878
0.541662
0.541663
0.541665
0.517923
0.526447
0.546733
0.522663
0.484619
0.471078
0.471078
0.471079
0.479406
0.521026
0.499153
0.49001
0.432137
0.561553
0.561566
0.554648
0.489272
0.469067
0.469037
0.462317
0.337746
0.214911
0.214813
0.275421
0.519954
0.72701
0.72702
0.597057
0.452018
0.441248
0.456386
0.455611
0.456337
0.484926
0.526969
0.53741
0.537426
0.53741
0.496734
0.452343
0.441107
0.441101
0.482538
0.446199
0.431983
0.389342
0.389342
0.518056
0.585984
0.586069
0.575134
0.462471
0.462469
0.462386
0.535673
0.6042
0.604272
0.604201
0.538284
0.488348
0.488351
0.507652
0.487306
0.479036
0.479031
0.503906
0.54834
0.548361
0.452181
0.309904
0.26978
0.269738
0.269687
0.452831
0.737117
0.737115
0.737117
0.587156
0.478283
0.375012
0.375014
0.557704
0.574332
0.574238
0.574287
0.573682
0.525205
0.503281
0.489233
0.471016
0.470949
0.602025
0.604151
0.604149
0.546488
0.469897
0.389549
0.347324
0.386107
0.563504
0.623627
0.623713
0.583122
0.467398
0.425542
0.425547
0.425518
0.471459
0.483626
0.483626
0.448258
0.460824
0.414707
0.461832
0.565854
0.609725
0.631462
0.628685
0.561702
0.561361
0.561324
0.561378
0.561296
0.561334
0.523879
0.487929
0.48793
0.487149
0.48125
0.487431
0.541762
0.541794
0.541788
0.517909
0.500296
0.498555
0.490397
0.490377
0.5099
0.49424
0.436917
0.386295
0.400653
0.410382
0.482058
0.423564
0.536556
0.574358
0.574341
0.590143
0.623832
0.623844
0.619254
0.523366
0.52335
0.523343
0.512791
0.502348
0.527346
0.549756
0.553871
0.553871
0.553697
0.513342
0.51312
0.524105
0.524111
0.504575
0.511467
0.51963
0.519632
0.51963
0.429431
0.407209
0.377774
0.356998
0.269094
0.26913
0.490852
0.527591
0.504813
0.500209
0.489229
0.489231
0.489223
0.489229
0.489219
0.489228
0.489215
0.489227
0.489208
0.489228
0.507207
0.513941
0.513946
0.480807
0.48081
0.480796
0.483404
0.513721
0.513718
0.478406
0.482495
0.500654
0.466203
0.474209
0.449167
0.451122
0.519288
0.519278
0.519269
0.519271
0.45328
0.453268
0.453292
0.453255
0.471834
0.55072
0.550718
0.542612
0.508375
0.483544
0.48354
0.502081
0.502083
0.489031
0.477168
0.492986
0.492981
0.475605
0.475599
0.4756
0.475593
0.475597
0.508407
0.508402
0.488699
0.488703
0.488696
0.464213
0.499443
0.540248
0.54024
0.540235
0.540232
0.456469
0.438671
0.438636
0.511952
0.554714
0.554738
0.529713
0.479153
0.506822
0.506828
0.506823
0.494055
0.472765
0.47278
0.472748
0.481379
0.478395
0.478392
0.47839
0.511026
0.514465
0.514465
0.514465
0.470376
0.453294
0.454908
0.492713
0.484878
0.48487
0.451037
0.445051
0.445055
0.517247
0.51727
0.429344
0.429348
0.429334
0.531624
0.576124
0.521808
0.507783
0.509827
0.51822
0.518219
0.518217
0.480171
0.480172
0.490201
0.513298
0.513284
0.481868
0.481873
0.481828
0.481857
0.481823
0.481845
0.49595
0.495952
0.483326
0.467007
0.454146
0.470172
0.522093
0.522155
0.522097
0.522154
0.522096
0.435576
0.435577
0.435574
0.529703
0.57268
0.574587
0.555994
0.511492
0.506107
0.529055
0.529057
0.497591
0.497587
0.501838
0.501837
0.501835
0.480574
0.469808
0.469823
0.469817
0.523299
0.523753
0.470999
0.437492
0.432605
0.43263
0.432529
0.43263
0.432694
0.527705
0.544871
0.54483
0.544861
0.44043
0.440429
0.532496
0.556813
0.522155
0.522154
0.52215
0.533388
0.5529
0.536289
0.517549
0.490681
0.490675
0.490676
0.405489
0.221406
0.0655806
0.127743
0.66825
0.825838
0.825755
0.825834
0.778443
0.55073
0.461744
0.45497
0.467075
0.55503
0.529657
0.458019
0.457031
0.507507
0.480252
0.481435
0.402899
0.402899
0.404141
0.552465
0.564638
0.564641
0.536234
0.509701
0.497284
0.497279
0.497284
0.547057
0.548619
0.548623
0.517959
0.495403
0.495373
0.495403
0.495386
0.540228
0.520954
0.492079
0.49206
0.492053
0.492048
0.48616
0.471078
0.483063
0.504421
0.504435
0.504479
0.440054
0.440059
0.419071
0.511699
0.538002
0.454765
0.433986
0.486822
0.503622
0.40838
0.32264
0.322609
0.518646
0.573948
0.573966
0.573994
0.549989
0.482678
0.439071
0.439068
0.439065
0.475558
0.522689
0.537433
0.537407
0.537433
0.527761
0.458373
0.441097
0.441101
0.441097
0.462333
0.479744
0.405836
0.405848
0.389342
0.461928
0.58598
0.58603
0.577167
0.504719
0.462489
0.462423
0.503322
0.604196
0.604256
0.587462
0.522826
0.502687
0.502645
0.536272
0.536223
0.536271
0.536223
0.536237
0.534391
0.531081
0.493424
0.385063
0.269868
0.269822
0.278365
0.64583
0.68079
0.680835
0.590576
0.531696
0.412945
0.408656
0.375012
0.375012
0.544366
0.574238
0.574316
0.574238
0.524509
0.471086
0.471086
0.471055
0.471033
0.529308
0.604151
0.604149
0.604005
0.499701
0.438272
0.426501
0.445336
0.479526
0.528877
0.547502
0.511933
0.458313
0.427063
0.427048
0.427049
0.425518
0.453668
0.483626
0.483626
0.420471
0.420485
0.414707
0.414707
0.595349
0.631439
0.63146
0.580782
0.561705
0.590898
0.587786
0.532725
0.532728
0.561282
0.561308
0.512369
0.481187
0.481186
0.511493
0.523422
0.541806
0.5418
0.541794
0.537423
0.511732
0.512729
0.512428
0.478869
0.426922
0.409046
0.402532
0.3854
0.385424
0.391077
0.469492
0.423564
0.423564
0.554806
0.630208
0.630211
0.611862
0.612358
0.625053
0.625054
0.62242
0.591842
0.524096
0.49136
0.491351
0.53136
0.5162
0.507645
0.507652
0.513358
0.513103
0.513086
0.512876
0.512857
0.514846
0.514847
0.517137
0.476068
0.417221
0.417274
0.417163
0.415177
0.368534
0.368506
0.527315
0.491015
0.492239
0.490775
0.490172
0.519784
0.519788
0.508963
0.496694
0.514472
0.489228
0.491481
0.507754
0.507747
0.500964
0.513945
0.486086
0.489292
0.480801
0.499067
0.514808
0.51481
0.478412
0.478408
0.495611
0.500654
0.472016
0.476412
0.449166
0.466823
0.519284
0.519278
0.513425
0.519251
0.45328
0.453293
0.453263
0.514689
0.514668
0.506213
0.549302
0.549303
0.531892
0.498459
0.524772
0.523812
0.477728
0.477724
0.475616
0.47561
0.47561
0.475601
0.475605
0.478082
0.491401
0.491401
0.508402
0.508403
0.499403
0.486414
0.464213
0.464207
0.529427
0.54024
0.540235
0.500597
0.540042
0.438671
0.438647
0.438691
0.438648
0.438691
0.490874
0.544256
0.544258
0.533495
0.486977
0.505947
0.505942
0.505939
0.505928
0.50509
0.478395
0.478392
0.47839
0.478382
0.501986
0.473788
0.465613
0.465611
0.46561
0.465572
0.492714
0.492714
0.492714
0.446053
0.446048
0.48589
0.498763
0.498764
0.517298
0.429348
0.429343
0.429353
0.547584
0.582419
0.582425
0.507781
0.502208
0.502207
0.499158
0.480175
0.480172
0.508462
0.51328
0.513284
0.48189
0.481884
0.517157
0.537627
0.537583
0.537596
0.501937
0.468888
0.468893
0.46888
0.468885
0.468875
0.462883
0.472374
0.511454
0.522118
0.489777
0.518898
0.435577
0.435576
0.435576
0.545548
0.590925
0.59093
0.530165
0.500532
0.500528
0.500534
0.506728
0.523058
0.523032
0.520323
0.475429
0.469825
0.469814
0.46982
0.4698
0.483426
0.523721
0.523738
0.459467
0.432626
0.43263
0.449338
0.514925
0.514824
0.514854
0.498241
0.544825
0.544871
0.544835
0.44043
0.440429
0.455212
0.581843
0.581851
0.522155
0.522155
0.564322
0.564574
0.564575
0.559665
0.541792
0.494759
0.385609
0.228331
0.0764556
0.0540232
0.057165
0.563374
0.825756
0.825838
0.789901
0.612625
0.507246
0.468344
0.45497
0.45497
0.456834
0.529634
0.524148
0.50753
0.507518
0.507507
0.507487
0.402899
0.402899
0.409532
0.481943
0.514565
0.558414
0.558416
0.527094
0.497279
0.510651
0.525482
0.523438
0.511174
0.532395
0.52812
0.4954
0.495403
0.495372
0.495404
0.50035
0.525389
0.525389
0.506125
0.49206
0.492054
0.523489
0.523491
0.499532
0.484274
0.484282
0.504435
0.455215
0.455192
0.374915
0.374888
0.374954
0.374846
0.374966
0.374893
0.507414
0.523827
0.494423
0.50033
0.554891
0.573932
0.573948
0.511356
0.46186
0.448064
0.445828
0.462268
0.471257
0.471512
0.471521
0.478952
0.526847
0.537407
0.537414
0.528059
0.528068
0.528061
0.475731
0.417723
0.451337
0.44429
0.444247
0.389362
0.431956
0.545353
0.555004
0.557387
0.518939
0.470564
0.495922
0.580216
0.604212
0.596375
0.557397
0.550622
0.54982
0.520178
0.488875
0.485797
0.485782
0.500565
0.515998
0.521813
0.508559
0.449535
0.32994
0.269915
0.269868
0.385318
0.680717
0.680781
0.517947
0.408649
0.425088
0.417435
0.417442
0.388889
0.476294
0.56171
0.574252
0.574238
0.570077
0.50924
0.471116
0.522548
0.575927
0.575869
0.553729
0.520424
0.495241
0.495
0.494994
0.521669
0.521697
0.520129
0.507878
0.523859
0.546737
0.545684
0.49755
0.44198
0.425491
0.425517
0.425461
0.425518
0.474167
0.483597
0.483597
0.483593
0.414707
0.414706
0.528208
0.631439
0.631439
0.561737
0.561721
0.594272
0.594281
0.574325
0.532468
0.548839
0.561258
0.520884
0.481186
0.481187
0.486038
0.544656
0.544663
0.537336
0.506411
0.4991
0.531477
0.534277
0.521603
0.480287
0.459613
0.452818
0.438311
0.408794
0.438026
0.453955
0.46942
0.423564
0.437301
0.614136
0.616982
0.611862
0.611857
0.61186
0.611853
0.637428
0.547
0.524038
0.524035
0.541747
0.541744
0.521622
0.509942
0.509932
0.517672
0.51315
0.51312
0.532935
0.543846
0.543848
0.514845
0.517962
0.52093
0.520938
0.437548
0.392022
0.353618
0.353614
0.354368
0.368404
0.490205
0.491011
0.487696
0.50453
0.504536
0.494447
0.494445
0.494442
0.518236
0.518238
0.514724
0.486831
0.486829
0.486828
0.486826
0.486084
0.486088
0.516922
0.516926
0.499643
0.514807
0.498903
0.498899
0.511372
0.507464
0.494483
0.494459
0.494467
0.45775
0.499634
0.519291
0.489543
0.470116
0.470112
0.469636
0.533158
0.533165
0.508839
0.498077
0.506114
0.496817
0.496812
0.496807
0.498888
0.524771
0.524788
0.524771
0.524781
0.524771
0.524772
0.503491
0.503491
0.503489
0.477132
0.478528
0.47142
0.471417
0.471413
0.468609
0.468604
0.4686
0.469399
0.504199
0.507896
0.465707
0.438704
0.438704
0.438671
0.489885
0.539688
0.574107
0.574107
0.574108
0.533287
0.486978
0.486975
0.486972
0.48697
0.482227
0.482227
0.482227
0.482224
0.498951
0.498945
0.498924
0.488963
0.479432
0.482802
0.51867
0.482982
0.455644
0.455645
0.455644
0.460572
0.484109
0.504138
0.49565
0.482779
0.482776
0.514653
0.517323
0.429348
0.499589
0.511092
0.511095
0.511099
0.511102
0.512228
0.52562
0.52562
0.525618
0.512056
0.485115
0.480392
0.480394
0.480392
0.501843
0.517955
0.517952
0.498169
0.498177
0.498153
0.498177
0.501075
0.502316
0.502317
0.456917
0.456918
0.456917
0.470304
0.510972
0.436643
0.435607
0.435604
0.435576
0.55076
0.589564
0.589573
0.580264
0.520806
0.52306
0.523044
0.523077
0.523042
0.523067
0.52304
0.50517
0.475856
0.475847
0.495751
0.49576
0.469813
0.469815
0.469805
0.508726
0.521711
0.495251
0.490603
0.482279
0.493645
0.514824
0.513661
0.450871
0.450869
0.463975
0.543453
0.48803
0.44043
0.543903
0.581822
0.581828
0.534329
0.534314
0.591522
0.591526
0.536145
0.519323
0.51933
0.487774
0.313485
0.142142
0.0540146
0.0540196
0.0540093
0.0903905
0.523877
0.825801
0.736208
0.551224
0.508969
0.508969
0.508967
0.471445
0.45497
0.45497
0.457849
0.499905
0.462008
0.438067
0.438065
0.441623
0.435733
0.487042
0.487037
0.481966
0.481976
0.481987
0.543722
0.543718
0.543712
0.543707
0.525495
0.490737
0.490737
0.490737
0.505051
0.499423
0.511436
0.537282
0.537274
0.537284
0.528514
0.506143
0.506128
0.524495
0.524498
0.524474
0.485367
0.488473
0.488483
0.470145
0.435641
0.43564
0.435641
0.440301
0.440358
0.374949
0.377647
0.482763
0.570722
0.566234
0.538627
0.515045
0.482203
0.466677
0.466675
0.481244
0.470642
0.461839
0.471065
0.482845
0.472454
0.471528
0.471521
0.471529
0.471538
0.474291
0.512747
0.512313
0.528061
0.528051
0.526292
0.448189
0.390132
0.390132
0.390132
0.427469
0.40331
0.451366
0.4838
0.556461
0.557377
0.557384
0.522731
0.52878
0.566599
0.586994
0.560274
0.51539
0.505484
0.523675
0.522664
0.510956
0.504237
0.483569
0.460084
0.460084
0.490623
0.508558
0.484029
0.334094
0.269959
0.269941
0.387591
0.680707
0.676806
0.454394
0.358092
0.358085
0.358082
0.415598
0.517168
0.573154
0.573164
0.537502
0.513783
0.513765
0.513737
0.554544
0.575928
0.575869
0.575875
0.503238
0.46898
0.468981
0.504896
0.540514
0.527852
0.50587
0.505892
0.505824
0.505892
0.505809
0.542149
0.503763
0.456574
0.460833
0.480945
0.480985
0.480942
0.424266
0.424267
0.430991
0.451512
0.414707
0.48626
0.561016
0.631438
0.631438
0.59115
0.581097
0.594281
0.59202
0.526052
0.502606
0.502592
0.520518
0.490536
0.490155
0.518342
0.518327
0.534033
0.541363
0.501249
0.497286
0.497183
0.534311
0.534258
0.534311
0.534258
0.478539
0.451083
0.451062
0.474188
0.477018
0.46369
0.463678
0.47841
0.580665
0.638955
0.638964
0.611859
0.611863
0.640725
0.640732
0.640735
0.585164
0.524035
0.54329
0.543287
0.518033
0.509959
0.509948
0.517205
0.517636
0.543733
0.551832
0.55183
0.543856
0.517658
0.517618
0.530254
0.520949
0.467092
0.467039
0.473598
0.386616
0.267764
0.267737
0.356609
0.490774
0.487757
0.487692
0.504535
0.502725
0.506227
0.504063
0.49444
0.489564
0.482356
0.496296
0.502751
0.502925
0.502925
0.486086
0.486088
0.48608
0.497716
0.499398
0.512008
0.514808
0.498905
0.510714
0.511374
0.507171
0.507157
0.507168
0.485332
0.480362
0.523725
0.523739
0.523725
0.523738
0.523724
0.466903
0.466915
0.466892
0.466925
0.466904
0.542147
0.542131
0.519574
0.496347
0.496347
0.498804
0.514882
0.522671
0.487248
0.487251
0.487242
0.487248
0.477134
0.477132
0.477131
0.475018
0.471424
0.471818
0.476134
0.480636
0.488212
0.488432
0.503472
0.53158
0.531524
0.531566
0.531524
0.531541
0.438704
0.438701
0.438705
0.438661
0.516757
0.547946
0.530934
0.530934
0.530933
0.530932
0.503826
0.482227
0.482227
0.51938
0.519383
0.509943
0.485704
0.485702
0.479432
0.479425
0.50062
0.518671
0.518674
0.508578
0.45836
0.477701