/*--------------------------------*- C++ -*----------------------------------*\
  =========                 |
  \\      /  F ield         | OpenFOAM: The Open Source CFD Toolbox
   \\    /   O peration     | Website:  https://openfoam.org
    \\  /    A nd           | Version:  7
     \\/     M anipulation  |
\*---------------------------------------------------------------------------*/
FoamFile
{
    version     2.0;
    format      ascii;
    class       volScalarField;
    location    "4500";
    object      epss;
}
// * * * * * * * * * * * * * * * * * * * * * * * * * * * * * * * * * * * * * //

dimensions      [0 0 0 0 0 0 0];

internalField   nonuniform List<scalar> 
160000
(
0.550613
0.51672
0.540868
0.501724
0.470596
0.543396
0.478748
0.553262
0.52275
0.451325
0.48135
0.520816
0.458115
0.465853
0.571297
0.531394
0.563666
0.557605
0.483251
0.490912
0.506519
0.524185
0.501644
0.463856
0.486548
0.45478
0.452269
0.499752
0.480727
0.537789
0.540297
0.492614
0.414269
0.485941
0.503088
0.47639
0.46454
0.426339
0.552515
0.503396
0.503002
0.504069
0.474327
0.533637
0.470908
0.473729
0.491517
0.546797
0.484444
0.536778
0.497853
0.418763
0.463087
0.493278
0.431161
0.536246
0.435897
0.557607
0.574234
0.531859
0.386457
0.511536
0.51759
0.541843
0.568774
0.437345
0.478867
0.457612
0.589771
0.651891
0.441765
0.553247
0.456912
0.527889
0.477786
0.500241
0.468528
0.511158
0.444082
0.496914
0.434284
0.407066
0.476297
0.504741
0.508229
0.519278
0.519696
0.562578
0.520757
0.473153
0.564385
0.444051
0.423645
0.441947
0.483019
0.556788
0.499227
0.527589
0.522246
0.56499
0.507363
0.595141
0.46567
0.526054
0.571742
0.488153
0.579277
0.490829
0.468664
0.46902
0.43949
0.55089
0.444286
0.51788
0.538448
0.50501
0.554471
0.516209
0.448139
0.478468
0.501716
0.539421
0.482581
0.462915
0.443961
0.395933
0.426693
0.521309
0.495258
0.489209
0.526582
0.558148
0.498232
0.411604
0.463894
0.488618
0.539735
0.504917
0.5517
0.594897
0.492337
0.459645
0.61362
0.486589
0.412368
0.482504
0.478437
0.48603
0.503054
0.553623
0.576645
0.523951
0.571482
0.48345
0.585205
0.497923
0.495383
0.432357
0.479936
0.46978
0.530672
0.508088
0.535094
0.454616
0.582001
0.485969
0.486569
0.543882
0.51049
0.544441
0.431762
0.399938
0.506625
0.409609
0.471586
0.5424
0.506648
0.497315
0.418216
0.432176
0.579635
0.457247
0.547246
0.581265
0.569926
0.557341
0.53764
0.548709
0.582402
0.514893
0.488287
0.519767
0.499124
0.44948
0.415367
0.591378
0.530963
0.362275
0.278779
0.295252
0.355388
0.432792
0.506567
0.556247
0.538241
0.448179
0.40079
0.423652
0.459802
0.479908
0.477414
0.482508
0.513626
0.525627
0.505431
0.518885
0.553611
0.508643
0.421256
0.398684
0.415374
0.4818
0.605188
0.626398
0.600134
0.556859
0.489864
0.579936
0.491121
0.519363
0.630368
0.538727
0.56342
0.494371
0.500436
0.486035
0.55849
0.503663
0.569983
0.51626
0.549692
0.580217
0.536852
0.558328
0.515827
0.527484
0.49185
0.486941
0.334176
0.288315
0.308146
0.385999
0.482896
0.546173
0.565008
0.521631
0.537683
0.61813
0.560486
0.362102
0.27924
0.400198
0.533925
0.620496
0.588065
0.484112
0.481998
0.602515
0.543977
0.381889
0.468956
0.529504
0.492062
0.515007
0.581298
0.622744
0.551114
0.402466
0.444808
0.487532
0.550447
0.545821
0.517871
0.474502
0.461211
0.481657
0.457841
0.53682
0.539945
0.518819
0.525558
0.648431
0.569682
0.522017
0.502812
0.485823
0.464955
0.601094
0.503536
0.544257
0.419122
0.24678
0.193334
0.22973
0.295759
0.361299
0.416017
0.458893
0.499749
0.524145
0.527567
0.560703
0.575691
0.501299
0.419651
0.365304
0.372637
0.493035
0.603229
0.599791
0.622765
0.616213
0.605123
0.461098
0.333364
0.298706
0.341791
0.392027
0.413679
0.436076
0.484376
0.48995
0.487103
0.504412
0.505828
0.50888
0.532177
0.51397
0.415308
0.427326
0.568975
0.581402
0.543079
0.555886
0.46125
0.484473
0.464899
0.40052
0.38832
0.419855
0.459998
0.528204
0.535284
0.535469
0.492439
0.484745
0.483828
0.485407
0.490203
0.538851
0.570004
0.575048
0.535423
0.551649
0.472673
0.435757
0.482369
0.38958
0.378471
0.464556
0.513955
0.495081
0.49762
0.412067
0.514893
0.453113
0.532972
0.536746
0.565924
0.55019
0.525918
0.536307
0.545912
0.489812
0.473725
0.472344
0.454781
0.46488
0.504622
0.52352
0.496691
0.526184
0.483456
0.512006
0.563909
0.440096
0.487397
0.60247
0.40843
0.459916
0.42286
0.570448
0.513497
0.54923
0.56325
0.534654
0.483798
0.514837
0.509335
0.494547
0.480045
0.529518
0.511708
0.492426
0.451305
0.544143
0.537827
0.417263
0.429676
0.474122
0.529098
0.510643
0.46689
0.471871
0.564948
0.510062
0.406264
0.427384
0.496217
0.454246
0.484184
0.524535
0.499424
0.526968
0.558302
0.465614
0.432253
0.639025
0.477627
0.425468
0.497472
0.53845
0.477699
0.558136
0.471515
0.427329
0.50015
0.5602
0.490884
0.442579
0.519591
0.491645
0.517077
0.406423
0.578758
0.493275
0.470131
0.542074
0.51898
0.513288
0.505195
0.484936
0.540528
0.548694
0.496205
0.513179
0.559991
0.451341
0.45473
0.414907
0.42935
0.478365
0.563004
0.514179
0.518188
0.475914
0.519595
0.518865
0.522822
0.45147
0.469286
0.497761
0.494682
0.492266
0.407141
0.414516
0.537354
0.518844
0.502125
0.465556
0.441679
0.472128
0.41182
0.453041
0.534836
0.483473
0.503277
0.483024
0.49563
0.546925
0.477963
0.508337
0.559439
0.421292
0.483093
0.537483
0.45958
0.433948
0.475963
0.466727
0.48869
0.560426
0.535812
0.54273
0.520202
0.509824
0.507563
0.482777
0.465413
0.41529
0.425404
0.494888
0.499587
0.499057
0.50756
0.494056
0.503031
0.533054
0.495797
0.524857
0.543952
0.600418
0.429963
0.400925
0.463585
0.552495
0.417381
0.522032
0.572157
0.537993
0.490117
0.462749
0.479717
0.456391
0.455099
0.536503
0.488683
0.516038
0.53538
0.569604
0.43963
0.565013
0.557575
0.511752
0.502109
0.460146
0.515755
0.470848
0.538395
0.482373
0.494249
0.467595
0.49696
0.517757
0.533955
0.486905
0.447413
0.517112
0.489787
0.494898
0.487726
0.503527
0.565756
0.430194
0.501062
0.493099
0.482631
0.512591
0.489376
0.519709
0.534612
0.502408
0.556678
0.611886
0.500743
0.519767
0.514691
0.578243
0.517035
0.407421
0.364904
0.40656
0.450133
0.44656
0.475016
0.451328
0.32871
0.272149
0.303366
0.356863
0.421285
0.476877
0.515356
0.511146
0.453726
0.400342
0.40769
0.455492
0.499586
0.511758
0.517641
0.541029
0.556848
0.544167
0.538478
0.55251
0.54434
0.506744
0.49397
0.533792
0.585444
0.632661
0.631849
0.598879
0.545806
0.506405
0.480904
0.53541
0.489239
0.509118
0.506871
0.499548
0.410854
0.413153
0.541698
0.547904
0.514476
0.505877
0.566704
0.545321
0.576875
0.58448
0.49946
0.495069
0.581535
0.468106
0.422684
0.295867
0.219401
0.264592
0.353319
0.441035
0.484171
0.506525
0.523188
0.530492
0.567055
0.5529
0.437681
0.357942
0.431231
0.554613
0.607943
0.580886
0.506454
0.478052
0.578609
0.578454
0.427093
0.375066
0.483102
0.511252
0.488787
0.550752
0.594773
0.574336
0.476832
0.412888
0.466914
0.525957
0.52435
0.496762
0.455783
0.416771
0.433621
0.493684
0.553299
0.593273
0.59576
0.587168
0.632315
0.591451
0.534332
0.520842
0.610016
0.512245
0.45515
0.498091
0.499173
0.316255
0.190657
0.191252
0.270658
0.371416
0.456149
0.516351
0.552509
0.563893
0.565264
0.562844
0.561738
0.560676
0.524603
0.462221
0.428591
0.455755
0.543449
0.628253
0.630307
0.608704
0.609433
0.592615
0.47208
0.282435
0.244516
0.326789
0.414066
0.445031
0.454321
0.493147
0.523355
0.516969
0.521772
0.52569
0.512449
0.522674
0.537213
0.509647
0.499498
0.551926
0.569117
0.514832
0.507812
0.501176
0.472496
0.451479
0.44314
0.449384
0.476734
0.503674
0.549346
0.575652
0.569709
0.52239
0.509031
0.541826
0.557443
0.549065
0.548308
0.552077
0.556101
0.538901
0.529821
0.509789
0.431175
0.432538
0.4507
0.438068
0.507085
0.571855
0.566925
0.577509
0.553228
0.565527
0.533192
0.563405
0.542879
0.506127
0.55731
0.527689
0.461021
0.595873
0.452289
0.503501
0.583193
0.489075
0.523654
0.555399
0.519378
0.464242
0.540758
0.497934
0.46081
0.525131
0.551172
0.447081
0.589421
0.509188
0.574791
0.474259
0.59267
0.609662
0.481661
0.577641
0.453919
0.586191
0.512676
0.460843
0.552696
0.461292
0.412409
0.472952
0.521764
0.453925
0.401696
0.477072
0.407667
0.451141
0.525175
0.46208
0.508443
0.493301
0.536764
0.563995
0.553383
0.520654
0.502292
0.491981
0.407968
0.495144
0.515771
0.48064
0.482583
0.475428
0.564932
0.524506
0.497977
0.536174
0.536709
0.517686
0.494157
0.497702
0.498478
0.508649
0.409782
0.532723
0.559961
0.552538
0.47957
0.414906
0.497967
0.548473
0.542333
0.510378
0.486618
0.476774
0.420494
0.442946
0.409026
0.525906
0.529416
0.509689
0.461824
0.556826
0.539149
0.463984
0.550734
0.56485
0.598285
0.519258
0.587057
0.475964
0.497264
0.588947
0.55122
0.499459
0.496378
0.463655
0.424352
0.491471
0.464631
0.451256
0.458698
0.537909
0.486996
0.521276
0.46336
0.460798
0.534196
0.554239
0.477443
0.531809
0.57486
0.521524
0.587884
0.601151
0.538182
0.517332
0.510978
0.538368
0.540766
0.480225
0.527621
0.494208
0.457276
0.490016
0.50068
0.543949
0.503242
0.463272
0.512625
0.50549
0.530173
0.563915
0.505998
0.522661
0.509217
0.4874
0.494439
0.514157
0.548833
0.54503
0.521487
0.534049
0.546072
0.543194
0.556431
0.521958
0.515062
0.553933
0.527215
0.456541
0.446464
0.496738
0.504185
0.519896
0.499933
0.491913
0.528289
0.525237
0.463785
0.402829
0.481074
0.486374
0.454195
0.503545
0.50854
0.503699
0.517573
0.536343
0.488472
0.530719
0.509479
0.423904
0.434119
0.54342
0.495618
0.505908
0.528911
0.53726
0.565432
0.497049
0.49848
0.500767
0.508162
0.508749
0.513344
0.526113
0.479615
0.438319
0.454912
0.463318
0.490024
0.540214
0.602267
0.526826
0.461672
0.472653
0.532879
0.527414
0.550042
0.587042
0.563911
0.519415
0.53862
0.523911
0.516519
0.465919
0.363042
0.268713
0.31598
0.40924
0.452456
0.4575
0.445
0.418564
0.397896
0.396862
0.418523
0.454132
0.490501
0.516705
0.516191
0.492715
0.474117
0.477096
0.50261
0.530561
0.536279
0.538424
0.559116
0.577221
0.568236
0.555984
0.561364
0.561841
0.54385
0.537193
0.565899
0.602719
0.604855
0.574993
0.542732
0.515428
0.503265
0.504465
0.533878
0.528153
0.482761
0.514005
0.544423
0.500554
0.477036
0.554239
0.546198
0.509724
0.555826
0.583138
0.563007
0.501554
0.477602
0.51111
0.500828
0.542044
0.494924
0.454952
0.284541
0.199015
0.250494
0.357707
0.470096
0.517143
0.520683
0.528729
0.546951
0.559846
0.56258
0.530931
0.482733
0.487377
0.549776
0.587449
0.570489
0.533427
0.51131
0.532775
0.551046
0.503425
0.454782
0.498457
0.545677
0.515071
0.485992
0.507683
0.523366
0.521861
0.465916
0.433042
0.472818
0.489042
0.471997
0.451163
0.459579
0.502293
0.562469
0.582018
0.574092
0.573907
0.566804
0.561325
0.559013
0.578207
0.606835
0.592017
0.478565
0.322741
0.336509
0.431595
0.299446
0.217306
0.241635
0.327245
0.435759
0.512642
0.544979
0.546441
0.539456
0.542415
0.556874
0.559357
0.544199
0.528619
0.515376
0.503375
0.516939
0.568598
0.609329
0.589147
0.551095
0.5562
0.551477
0.461466
0.330357
0.292825
0.361845
0.456601
0.513074
0.527178
0.535267
0.549239
0.544069
0.521769
0.528669
0.550734
0.56163
0.570424
0.560752
0.529838
0.519253
0.526697
0.520747
0.522028
0.513262
0.478595
0.467029
0.475006
0.46923
0.473107
0.523086
0.581703
0.580445
0.545428
0.501521
0.479373
0.522679
0.561326
0.544882
0.515261
0.533885
0.587471
0.587614
0.538758
0.486283
0.464227
0.460259
0.5276
0.548446
0.523738
0.553242
0.560437
0.517648
0.480857
0.4808
0.489101
0.497594
0.519089
0.533056
0.5726
0.582434
0.526836
0.562616
0.545261
0.507626
0.483978
0.527534
0.565479
0.507087
0.492222
0.483526
0.514951
0.561653
0.480377
0.478088
0.509948
0.480503
0.511093
0.581546
0.500149
0.50627
0.546458
0.439589
0.448048
0.437175
0.42764
0.421104
0.428982
0.468678
0.424894
0.473533
0.443422
0.524254
0.513382
0.504492
0.52679
0.417481
0.473822
0.443281
0.462126
0.484175
0.478883
0.540787
0.419124
0.546061
0.487759
0.41784
0.554115
0.522609
0.473867
0.534057
0.630421
0.56309
0.53324
0.489676
0.465293
0.451573
0.477636
0.46731
0.59482
0.513904
0.418471
0.418965
0.471121
0.4921
0.484898
0.461919
0.497843
0.495432
0.527424
0.506622
0.528232
0.434479
0.472948
0.583493
0.480481
0.503843
0.537135
0.546904
0.509198
0.516916
0.467221
0.49515
0.441544
0.515624
0.539282
0.518923
0.498342
0.502985
0.512839
0.475642
0.473633
0.585147
0.569914
0.532214
0.465983
0.418792
0.462464
0.539563
0.471444
0.520265
0.591906
0.451846
0.476626
0.507434
0.520719
0.437404
0.433844
0.4417
0.435102
0.496656
0.437728
0.532531
0.472929
0.504765
0.518961
0.538131
0.473031
0.558973
0.554712
0.500281
0.438058
0.506249
0.486364
0.464203
0.485344
0.450889
0.441773
0.477219
0.501662
0.492503
0.490889
0.528678
0.472324
0.504455
0.541909
0.524787
0.491399
0.482144
0.451911
0.463912
0.522905
0.530606
0.527195
0.506824
0.571066
0.495886
0.469874
0.471709
0.520125
0.536496
0.515006
0.521298
0.482846
0.504611
0.493009
0.490433
0.534183
0.497726
0.504838
0.525739
0.512711
0.483144
0.56727
0.520426
0.474476
0.468603
0.450528
0.493637
0.532882
0.548428
0.470106
0.518235
0.518003
0.549844
0.544428
0.516206
0.511134
0.455068
0.470561
0.532441
0.4999
0.490252
0.478855
0.471379
0.490125
0.540585
0.522559
0.485718
0.443191
0.406992
0.392549
0.44562
0.517421
0.503716
0.471566
0.495828
0.492216
0.493414
0.544819
0.559123
0.518406
0.517858
0.599262
0.598949
0.522636
0.506145
0.498114
0.477955
0.332909
0.264382
0.317064
0.392358
0.458422
0.471105
0.458429
0.463555
0.482629
0.488986
0.484032
0.473226
0.476142
0.500905
0.527451
0.529936
0.508442
0.489273
0.491921
0.511951
0.525955
0.528993
0.540087
0.555816
0.547324
0.521135
0.513643
0.527857
0.543732
0.55862
0.573261
0.582277
0.570846
0.537508
0.507731
0.493763
0.488688
0.498621
0.520696
0.548406
0.559988
0.55934
0.560341
0.543986
0.547635
0.59725
0.600452
0.572069
0.55865
0.542065
0.527285
0.553145
0.560869
0.56402
0.577665
0.533599
0.512019
0.456822
0.31114
0.223484
0.263115
0.359024
0.479516
0.542459
0.548018
0.541906
0.551572
0.55541
0.540968
0.515855
0.489456
0.485909
0.521079
0.563686
0.566967
0.535283
0.502534
0.502114
0.531897
0.552107
0.516841
0.477399
0.46646
0.442499
0.427384
0.483114
0.571884
0.599484
0.541212
0.466139
0.44444
0.462398
0.480516
0.497881
0.521781
0.543673
0.550826
0.544872
0.556904
0.579911
0.577833
0.542803
0.528825
0.574888
0.610928
0.583555
0.469685
0.305674
0.251585
0.317825
0.372023
0.370454
0.368817
0.411753
0.482138
0.532252
0.539807
0.521377
0.509611
0.512441
0.522484
0.532359
0.531237
0.526168
0.529331
0.527922
0.519578
0.52885
0.55327
0.566623
0.576616
0.576246
0.535161
0.464287
0.401923
0.397726
0.444767
0.508272
0.551013
0.563879
0.55938
0.544426
0.533648
0.535119
0.537833
0.535124
0.526692
0.500026
0.476092
0.46711
0.453425
0.448218
0.482189
0.523277
0.538372
0.535478
0.510565
0.472947
0.459405
0.499311
0.549937
0.57788
0.589215
0.583414
0.574237
0.565575
0.544151
0.541849
0.537258
0.536531
0.533299
0.520996
0.498599
0.504998
0.513502
0.515426
0.527637
0.505864
0.544935
0.567129
0.545587
0.546669
0.522576
0.502759
0.525158
0.519405
0.523529
0.525671
0.520757
0.567876
0.613555
0.564409
0.507521
0.510087
0.601866
0.484943
0.443862
0.494924
0.55032
0.537493
0.495644
0.554742
0.490893
0.524977
0.569509
0.590252
0.521475
0.542508
0.555214
0.565239
0.531797
0.498654
0.477752
0.466057
0.451652
0.428409
0.491865
0.505553
0.511595
0.558244
0.476854
0.496034
0.555665
0.544018
0.643232
0.4446
0.399875
0.526144
0.567264
0.459469
0.464713
0.424681
0.407837
0.515873
0.538433
0.579779
0.533119
0.531899
0.589322
0.47877
0.439067
0.505802
0.469596
0.488923
0.55652
0.502533
0.45038
0.495623
0.577123
0.530045
0.488354
0.42666
0.464117
0.513165
0.45323
0.517607
0.546865
0.533249
0.494969
0.524082
0.459704
0.404769
0.489026
0.482591
0.484369
0.5091
0.539642
0.500938
0.487903
0.540047
0.492569
0.496407
0.550089
0.522056
0.523541
0.51903
0.560888
0.538864
0.466973
0.482913
0.476563
0.516082
0.492387
0.543204
0.538817
0.474839
0.489946
0.452399
0.447695
0.509891
0.496256
0.487795
0.427552
0.546137
0.524599
0.501075
0.512384
0.482077
0.457758
0.501948
0.502834
0.504217
0.503167
0.521359
0.533491
0.506365
0.511172
0.528608
0.485124
0.49345
0.530458
0.538376
0.463898
0.443475
0.493823
0.552323
0.462512
0.464097
0.440638
0.456953
0.50458
0.499178
0.500946
0.526521
0.514067
0.449349
0.418301
0.463117
0.562349
0.531873
0.445189
0.488299
0.518624
0.493285
0.514777
0.51001
0.499048
0.450249
0.487228
0.545209
0.543905
0.520971
0.509974
0.527528
0.477506
0.473615
0.487944
0.519008
0.510934
0.538938
0.517651
0.464289
0.463476
0.471744
0.489293
0.464551
0.513061
0.494976
0.480795
0.530538
0.541135
0.504305
0.515049
0.52908
0.514171
0.487713
0.465271
0.467725
0.460438
0.478114
0.548456
0.567186
0.503797
0.464539
0.455859
0.464106
0.519433
0.564908
0.521433
0.437148
0.433432
0.462054
0.466229
0.51501
0.512014
0.515651
0.5329
0.497682
0.502091
0.517712
0.524588
0.5301
0.523799
0.500211
0.499106
0.539326
0.569818
0.576685
0.450392
0.290048
0.245306
0.319445
0.398012
0.482281
0.508659
0.504402
0.506972
0.529678
0.550455
0.541948
0.506829
0.4727
0.463324
0.479918
0.500272
0.503439
0.492138
0.485243
0.496447
0.51938
0.532824
0.528139
0.512456
0.487996
0.463239
0.462056
0.489684
0.526608
0.550441
0.550245
0.536837
0.5214
0.504983
0.500283
0.510945
0.519666
0.524176
0.540408
0.559306
0.558931
0.547394
0.538307
0.542095
0.534805
0.550458
0.585698
0.563511
0.519049
0.521346
0.549221
0.571531
0.569963
0.512678
0.464869
0.465172
0.468997
0.429311
0.318845
0.261076
0.300021
0.369421
0.471079
0.542845
0.569205
0.564787
0.554918
0.546582
0.533948
0.517395
0.504642
0.500817
0.510534
0.537074
0.562994
0.569935
0.556775
0.536725
0.533633
0.543274
0.511416
0.428919
0.380935
0.410045
0.460252
0.513011
0.568939
0.575832
0.519986
0.453867
0.421037
0.439177
0.4832
0.524829
0.553393
0.559954
0.55406
0.560033
0.572264
0.559237
0.519184
0.504045
0.532193
0.574774
0.59886
0.58377
0.494125
0.332482
0.250898
0.298836
0.377131
0.435606
0.459799
0.481945
0.503547
0.510894
0.501922
0.490712
0.491036
0.505971
0.532586
0.558742
0.564168
0.542557
0.512017
0.482225
0.451043
0.435848
0.455654
0.491228
0.509945
0.505264
0.482523
0.445077
0.408057
0.405712
0.438359
0.488008
0.537692
0.56486
0.557509
0.531817
0.504561
0.498873
0.522671
0.549095
0.541258
0.510532
0.500467
0.514324
0.512496
0.488171
0.487474
0.520804
0.535871
0.507427
0.474312
0.466258
0.493827
0.544929
0.574577
0.578144
0.577732
0.584607
0.565786
0.528951
0.515797
0.522321
0.54208
0.546458
0.529976
0.516232
0.522789
0.521563
0.521595
0.524927
0.518541
0.510046
0.495321
0.482012
0.484171
0.510161
0.508773
0.529117
0.536922
0.524697
0.516603
0.549215
0.616705
0.610748
0.529871
0.549683
0.539503
0.499652
0.488773
0.503697
0.470556
0.476094
0.563469
0.566197
0.516368
0.451119
0.483349
0.523747
0.505383
0.513996
0.488251
0.564537
0.613381
0.524737
0.522638
0.509047
0.651546
0.496387
0.56688
0.567752
0.437443
0.4786
0.528739
0.484325
0.564785
0.54915
0.610479
0.530667
0.472169
0.538482
0.437999
0.451933
0.440828
0.410882
0.528133
0.518295
0.492162
0.445011
0.456755
0.442427
0.514714
0.582016
0.532657
0.529372
0.60574
0.5257
0.557431
0.417501
0.507276
0.505766
0.490882
0.48768
0.46091
0.530508
0.526202
0.487463
0.449048
0.452081
0.497228
0.489359
0.539516
0.532204
0.495938
0.494924
0.510497
0.503497
0.476642
0.411365
0.465975
0.534236
0.488045
0.479893
0.523037
0.488897
0.476743
0.505864
0.532927
0.505902
0.525558
0.549016
0.481612
0.528454
0.484886
0.417023
0.461743
0.502871
0.466873
0.431478
0.47162
0.441631
0.446911
0.510535
0.494495
0.431232
0.47671
0.512049
0.534995
0.530818
0.486171
0.481452
0.51323
0.508544
0.467896
0.455694
0.460771
0.418583
0.442568
0.490875
0.536597
0.485059
0.446721
0.506827
0.528923
0.51854
0.584034
0.566115
0.520333
0.567643
0.540945
0.514897
0.464136
0.448435
0.499737
0.523687
0.544375
0.496934
0.454561
0.458658
0.510992
0.554601
0.545305
0.499934
0.520119
0.552374
0.555791
0.536536
0.458931
0.461678
0.479897
0.441341
0.481154
0.441469
0.454005
0.482455
0.474836
0.487619
0.498796
0.498919
0.478163
0.460246
0.509707
0.546296
0.519125
0.464613
0.50354
0.501534
0.504671
0.497864
0.50975
0.511952
0.473727
0.463068
0.509304
0.520886
0.481278
0.468005
0.489444
0.536102
0.531292
0.517455
0.483516
0.501472
0.493452
0.525805
0.538162
0.506121
0.490265
0.447969
0.433412
0.449207
0.494515
0.491824
0.496102
0.504585
0.503328
0.52529
0.554015
0.544244
0.55361
0.558153
0.49884
0.46926
0.491597
0.526714
0.505098
0.509377
0.499926
0.462406
0.483345
0.537629
0.551617
0.532192
0.413413
0.250111
0.234138
0.321089
0.411051
0.49518
0.517694
0.50832
0.498735
0.502665
0.517209
0.528637
0.519937
0.491849
0.46518
0.457374
0.4695
0.488479
0.498382
0.49777
0.500252
0.512574
0.523801
0.52157
0.508955
0.495638
0.484324
0.479366
0.488672
0.508
0.524059
0.528434
0.520979
0.509001
0.508945
0.531704
0.565099
0.583133
0.573355
0.550772
0.542288
0.549093
0.553322
0.541912
0.524595
0.521709
0.55817
0.599881
0.57478
0.511375
0.497536
0.53504
0.560586
0.55188
0.510542
0.463028
0.468723
0.484526
0.435959
0.353719
0.321017
0.349639
0.398613
0.460265
0.510876
0.548743
0.564645
0.556935
0.536459
0.517949
0.510497
0.513898
0.522837
0.533216
0.547401
0.557126
0.541562
0.506932
0.486336
0.496737
0.511264
0.482943
0.411615
0.362155
0.395057
0.468699
0.529367
0.555565
0.556115
0.528534
0.476938
0.432635
0.432705
0.475916
0.52425
0.541022
0.527231
0.50557
0.4973
0.502825
0.508501
0.515125
0.52873
0.538326
0.535552
0.532709
0.534978
0.499861
0.380677
0.283306
0.31238
0.394286
0.473078
0.503667
0.517618
0.534363
0.541236
0.52672
0.502889
0.491723
0.502317
0.523734
0.543551
0.552447
0.536827
0.497567
0.457928
0.432703
0.422278
0.436888
0.48393
0.53972
0.567062
0.552875
0.516357
0.486645
0.485312
0.506156
0.533649
0.555109
0.561207
0.542521
0.515838
0.509562
0.518258
0.523346
0.537562
0.561614
0.562124
0.533463
0.51205
0.508599
0.505067
0.504511
0.522667
0.542473
0.529721
0.509827
0.516535
0.521526
0.506119
0.505084
0.531375
0.552346
0.541564
0.512444
0.502437
0.504232
0.48492
0.47994
0.504329
0.524664
0.527964
0.518215
0.517999
0.533196
0.546242
0.52305
0.507198
0.500764
0.484631
0.495704
0.532655
0.575718
0.55992
0.501391
0.467408
0.506718
0.512749
0.506899
0.518732
0.522627
0.48283
0.528635
0.552491
0.528775
0.509207
0.52122
0.602407
0.57279
0.578219
0.638936
0.574523
0.51386
0.527749
0.496941
0.481424
0.540495
0.506996
0.575137
0.548233
0.426489
0.428065
0.493759
0.554671
0.5318
0.529478
0.528665
0.50304
0.471074
0.455431
0.37596
0.454654
0.475848
0.519924
0.504166
0.541076
0.471383
0.442988
0.469141
0.512309
0.505087
0.546091
0.502519
0.530653
0.427905
0.383314
0.498704
0.536794
0.525893
0.453426
0.447686
0.524362
0.469694
0.517553
0.447647
0.474397
0.476133
0.556703
0.506132
0.524751
0.437755
0.445816
0.449407
0.520335
0.498689
0.44346
0.453041
0.522973
0.523289
0.486081
0.530963
0.55123
0.510436
0.517735
0.46366
0.444019
0.518841
0.482482
0.460902
0.507981
0.511829
0.478849
0.520968
0.528093
0.542356
0.558703
0.514294
0.452528
0.458568
0.553878
0.524485
0.45247
0.474671
0.516671
0.547183
0.497206
0.439833
0.444122
0.473456
0.460037
0.490257
0.497515
0.478934
0.512151
0.522947
0.517257
0.546831
0.55356
0.455457
0.476781
0.492064
0.49717
0.501397
0.496229
0.485682
0.529677
0.484566
0.454915
0.489888
0.544181
0.573167
0.475173
0.435494
0.522305
0.546356
0.475855
0.457541
0.43383
0.460333
0.479812
0.471048
0.516399
0.536405
0.463725
0.494295
0.565487
0.544031
0.48697
0.46718
0.495668
0.55297
0.534689
0.450674
0.434091
0.428487
0.460226
0.492509
0.518956
0.473964
0.4569
0.496358
0.478291
0.464365
0.493501
0.520371
0.538598
0.538295
0.530505
0.52374
0.461826
0.450575
0.443439
0.474365
0.522143
0.529701
0.540716
0.510615
0.486092
0.468531
0.466625
0.464675
0.491411
0.531831
0.545415
0.519192
0.45154
0.491363
0.503569
0.490911
0.519242
0.558587
0.564074
0.508171
0.472031
0.432222
0.403891
0.45479
0.538423
0.530722
0.503193
0.495507
0.504713
0.504016
0.517932
0.509843
0.482242
0.513125
0.52264
0.476233
0.472099
0.493572
0.494123
0.489807
0.493815
0.491867
0.532314
0.556036
0.540392
0.406141
0.24785
0.244889
0.336397
0.434847
0.507699
0.529768
0.530395
0.525634
0.51345
0.491438
0.474419
0.474457
0.480463
0.477395
0.469156
0.471816
0.49182
0.515968
0.525266
0.516169
0.499609
0.485188
0.482824
0.497088
0.510604
0.503334
0.488393
0.492689
0.510348
0.516642
0.514966
0.52216
0.529671
0.522373
0.515316
0.526329
0.537779
0.534877
0.532931
0.539384
0.535698
0.516611
0.512093
0.534385
0.559644
0.570026
0.575663
0.565568
0.529106
0.493936
0.489178
0.50084
0.496654
0.456128
0.397479
0.380082
0.409532
0.418077
0.394545
0.37843
0.389413
0.426716
0.473245
0.519043
0.558475
0.58058
0.580482
0.566246
0.551369
0.542695
0.535348
0.521771
0.504955
0.49632
0.498001
0.498253
0.492462
0.494375
0.508387
0.50924
0.477813
0.43368
0.415751
0.446808
0.500734
0.544956
0.558195
0.553975
0.546762
0.529254
0.492182
0.458132
0.457285
0.483048
0.502337
0.506517
0.513401
0.527386
0.536635
0.53583
0.534755
0.541203
0.54897
0.548136
0.536987
0.52999
0.517558
0.443183
0.336154
0.316506
0.382216
0.475354
0.524407
0.530181
0.523179
0.516531
0.506336
0.499515
0.506221
0.519322
0.526133
0.52658
0.528679
0.527369
0.507561
0.477619
0.46789
0.487115
0.514551
0.535969
0.550587
0.547674
0.525545
0.506619
0.501482
0.502571
0.501991
0.498315
0.497686
0.505195
0.514655
0.515373
0.505113
0.487699
0.472467
0.46814
0.480762
0.50385
0.518469
0.521324
0.523439
0.519186
0.5007
0.494392
0.521766
0.543657
0.527701
0.509407
0.519262
0.538412
0.545389
0.546781
0.556804
0.571509
0.565667
0.527032
0.491259
0.500901
0.528997
0.541863
0.547019
0.536757
0.519931
0.52344
0.535405
0.524038
0.512182
0.503645
0.510465
0.510106
0.486585
0.475692
0.49879
0.510976
0.516848
0.541069
0.549687
0.537056
0.53069
0.522998
0.537871
0.584953
0.584945
0.531294
0.49422
0.495185
0.543025
0.572754
0.562713
0.498892
0.546306
0.569402
0.503304
0.44397
0.466888
0.497017
0.538682
0.500876
0.554087
0.559099
0.599911
0.509205
0.523818
0.480248
0.572836
0.456115
0.551785
0.495695
0.576789
0.468499
0.471291
0.508672
0.490123
0.448883
0.464778
0.529241
0.538067
0.618695
0.479204
0.522036
0.501945
0.563358
0.449075
0.462652
0.525268
0.579822
0.496484
0.524062
0.487271
0.508834
0.499613
0.47304
0.381254
0.491997
0.488851
0.462958
0.499647
0.532543
0.507008
0.462633
0.48976
0.514125
0.529188
0.556066
0.504762
0.520706
0.500217
0.461574
0.462785
0.476181
0.428579
0.467847
0.455662
0.457589
0.437257
0.483085
0.490071
0.475775
0.494064
0.534455
0.505603
0.537293
0.496482
0.505181
0.495549
0.457617
0.48632
0.484113
0.458353
0.484545
0.509238
0.486007
0.445515
0.44303
0.486727
0.499297
0.462845
0.437179
0.506319
0.552364
0.546583
0.50855
0.489785
0.535728
0.520471
0.500165
0.499679
0.496117
0.464935
0.503828
0.50074
0.52518
0.497036
0.460541
0.507941
0.558544
0.54509
0.512736
0.489478
0.489158
0.477074
0.475774
0.503386
0.484805
0.453143
0.461089
0.507849
0.52828
0.508942
0.538901
0.546257
0.510304
0.512113
0.479855
0.450053
0.492958
0.518973
0.563295
0.58386
0.565988
0.538611
0.509056
0.468311
0.452302
0.502243
0.507787
0.49654
0.521744
0.501305
0.436246
0.471113
0.559884
0.564069
0.491562
0.436502
0.478229
0.562063
0.569237
0.49438
0.434273
0.441118
0.480364
0.469125
0.502553
0.546969
0.531065
0.486916
0.491828
0.505181
0.469867
0.462825
0.519555
0.569038
0.52759
0.499625
0.507464
0.514209
0.527972
0.483398
0.464735
0.529241
0.564522
0.549142
0.520682
0.501395
0.46045
0.45674
0.517875
0.553087
0.493712
0.467492
0.496806
0.51928
0.475467
0.442932
0.48885
0.548124
0.510441
0.460641
0.477035
0.546512
0.562239
0.530542
0.504601
0.537084
0.56581
0.556456
0.499169
0.378215
0.252857
0.247155
0.333121
0.446548
0.523715
0.540161
0.527438
0.521625
0.532617
0.5389
0.520994
0.490648
0.473461
0.475805
0.483128
0.483811
0.483825
0.493211
0.507496
0.512711
0.503851
0.487211
0.469386
0.45785
0.462156
0.481742
0.506653
0.530698
0.547547
0.549232
0.536619
0.519927
0.505837
0.493184
0.485243
0.488239
0.499891
0.513966
0.523379
0.515242
0.485797
0.466525
0.490375
0.530684
0.541263
0.528438
0.521327
0.530037
0.527024
0.489541
0.459795
0.473104
0.502645
0.495088
0.457045
0.439893
0.453632
0.464708
0.461153
0.452005
0.458767
0.482102
0.503122
0.522309
0.543261
0.558903
0.564976
0.568248
0.570993
0.565612
0.546495
0.516817
0.491512
0.485719
0.493632
0.499203
0.50035
0.505306
0.517136
0.525476
0.510108
0.469062
0.43889
0.458397
0.512359
0.551411
0.550369
0.535012
0.539618
0.562119
0.569538
0.546
0.516684
0.50814
0.519866
0.533899
0.537739
0.53327
0.528111
0.524907
0.526263
0.533627
0.530392
0.503176
0.471696
0.469499
0.492394
0.480708
0.407526
0.350218
0.359145
0.428567
0.514889
0.573854
0.588945
0.564302
0.523644
0.494372
0.494958
0.523254
0.554833
0.562485
0.541231
0.511536
0.494589
0.493466
0.501432
0.516678
0.536443
0.548241
0.541384
0.525712
0.524489
0.54363
0.559802
0.547584
0.51308
0.485361
0.477601
0.484624
0.499992
0.509915
0.504005
0.489326
0.480825
0.493682
0.529875
0.55654
0.544282
0.516292
0.504013
0.50429
0.49773
0.478797
0.470449
0.483587
0.499556
0.507531
0.521015
0.550593
0.572868
0.57816
0.584416
0.596465
0.588136
0.555738
0.540791
0.552564
0.556959
0.551103
0.540643
0.512876
0.481389
0.476925
0.501536
0.528745
0.551986
0.556146
0.54235
0.533688
0.537669
0.551418
0.569181
0.578821
0.549619
0.519861
0.528841
0.547917
0.541278
0.509484
0.49595
0.518083
0.560738
0.583858
0.552894
0.525687
0.561438
0.585413
0.535096
0.466641
0.506394
0.498607
0.456596
0.476228
0.463778
0.537372
0.511107
0.496635
0.501687
0.527882
0.547771
0.446713
0.47364
0.543803
0.588039
0.499834
0.423309
0.489708
0.494309
0.438787
0.425279
0.485286
0.360878
0.474335
0.448984
0.488713
0.469486
0.428358
0.466624
0.454455
0.482954
0.568282
0.519004
0.451122
0.543279
0.52779
0.516999
0.498355
0.531047
0.484514
0.475694
0.529906
0.472162
0.469742
0.531018
0.506703
0.493708
0.515381
0.522849
0.501264
0.444758
0.496228
0.54057
0.522075
0.528811
0.411016
0.42941
0.477633
0.540223
0.526131
0.502652
0.50002
0.515214
0.507732
0.542447
0.487586
0.479719
0.528704
0.526362
0.455303
0.483083
0.525808
0.493924
0.483002
0.487605
0.458037
0.441478
0.478454
0.48673
0.469085
0.465595
0.459379
0.467784
0.471996
0.437126
0.4607
0.49515
0.486775
0.483838
0.516952
0.529637
0.488528
0.501831
0.549828
0.568466
0.534999
0.460615
0.454011
0.492818
0.514793
0.515411
0.510351
0.517317
0.477238
0.478312
0.483245
0.509106
0.544914
0.549475
0.516412
0.523229