/*--------------------------------*- C++ -*----------------------------------*\
  =========                 |
  \\      /  F ield         | OpenFOAM: The Open Source CFD Toolbox
   \\    /   O peration     | Website:  https://openfoam.org
    \\  /    A nd           | Version:  7
     \\/     M anipulation  |
\*---------------------------------------------------------------------------*/
FoamFile
{
    version     2.0;
    format      ascii;
    class       volScalarField;
    location    "4500";
    object      k1Write;
}
// * * * * * * * * * * * * * * * * * * * * * * * * * * * * * * * * * * * * * //

dimensions      [0 2 0 0 0 0 0];

internalField   nonuniform List<scalar> 
160000
(
1.23642e-18
1.74019e-18
1.23209e-18
1.82147e-18
2.32148e-18
1.1304e-18
2.56239e-18
1.31097e-18
1.5971e-18
3.15239e-18
2.24741e-18
1.46936e-18
2.75468e-18
2.54248e-18
8.71337e-19
1.40055e-18
1.05021e-18
1.11531e-18
2.37615e-18
2.19521e-18
1.87285e-18
1.35887e-18
1.70012e-18
2.62954e-18
2.22285e-18
2.64649e-18
2.70301e-18
1.682e-18
2.02792e-18
1.13985e-18
1.23754e-18
2.06333e-18
4.47777e-18
2.1945e-18
1.84518e-18
2.12594e-18
2.38545e-18
3.47447e-18
9.79765e-19
1.80765e-18
1.82156e-18
1.7984e-18
2.09829e-18
1.1552e-18
2.16177e-18
2.09772e-18
2.00793e-18
1.19962e-18
2.24564e-18
1.32427e-18
1.67677e-18
3.52498e-18
2.26774e-18
1.6772e-18
3.09982e-18
1.08414e-18
3.45358e-18
1.01631e-18
7.90844e-19
1.21498e-18
5.23983e-18
1.55022e-18
1.45637e-18
1.13673e-18
8.53426e-19
3.20146e-18
2.1188e-18
2.6119e-18
6.79437e-19
2.96952e-19
2.66304e-18
8.69143e-19
2.28621e-18
1.12378e-18
2.08905e-18
1.74272e-18
2.40095e-18
1.56793e-18
3.05212e-18
1.80466e-18
3.35585e-18
4.39316e-18
2.20867e-18
1.60457e-18
1.49546e-18
1.3368e-18
1.3299e-18
8.56485e-19
1.31484e-18
2.11408e-18
8.33957e-19
2.79803e-18
3.50442e-18
2.98665e-18
1.98639e-18
9.07925e-19
1.66607e-18
1.27828e-18
1.37066e-18
8.82241e-19
1.58798e-18
6.24878e-19
2.34483e-18
1.28152e-18
7.50608e-19
1.75699e-18
6.92549e-19
1.70901e-18
2.14304e-18
2.3675e-18
3.17057e-18
1.0375e-18
3.02086e-18
1.45121e-18
1.13353e-18
1.58892e-18
9.2907e-19
1.32628e-18
2.68563e-18
2.18853e-18
1.73818e-18
1.13543e-18
2.01092e-18
2.4436e-18
2.95064e-18
4.85046e-18
3.56973e-18
1.39185e-18
1.80762e-18
1.91972e-18
1.31903e-18
9.19477e-19
1.63082e-18
3.85242e-18
2.29409e-18
1.79446e-18
1.07232e-18
1.52479e-18
9.4827e-19
5.92803e-19
1.7352e-18
2.40077e-18
4.91988e-19
1.83574e-18
3.83304e-18
1.91232e-18
2.00678e-18
1.92262e-18
1.64886e-18
9.86788e-19
7.17406e-19
1.23572e-18
7.57725e-19
1.85495e-18
6.5562e-19
1.60642e-18
1.6479e-18
3.28759e-18
2.05218e-18
2.27044e-18
1.1432e-18
1.42017e-18
1.08123e-18
2.62952e-18
7.1547e-19
1.80696e-18
1.7968e-18
9.44807e-19
1.32608e-18
9.40044e-19
2.90191e-18
4.94995e-18
1.71516e-18
4.49765e-18
2.43362e-18
1.0532e-18
1.5133e-18
1.66216e-18
3.77166e-18
3.42388e-18
7.7255e-19
2.67339e-18
1.08385e-18
7.25951e-19
8.03523e-19
9.27037e-19
1.13582e-18
1.01452e-18
5.96287e-19
1.07721e-18
1.50371e-18
1.10266e-18
1.47657e-18
2.8961e-18
4.06399e-18
6.23164e-19
7.01543e-19
3.79064e-18
1.9803e-17
1.8467e-17
9.75774e-18
4.48557e-18
2.15157e-18
9.67814e-19
9.20634e-19
2.26753e-18
3.95128e-18
3.83186e-18
2.68063e-18
2.19688e-18
2.25354e-18
2.14333e-18
1.57136e-18
1.39285e-18
1.70808e-18
1.49247e-18
9.80474e-19
1.50336e-18
3.58463e-18
5.00906e-18
4.24433e-18
2.19799e-18
6.16484e-19
4.38994e-19
5.78933e-19
9.15802e-19
1.80633e-18
7.20159e-19
1.86153e-18
1.5296e-18
4.65401e-19
1.19572e-18
8.85866e-19
1.78862e-18
1.68455e-18
1.94609e-18
9.11236e-19
1.64796e-18
8.37351e-19
1.5332e-18
1.13628e-18
7.78838e-19
1.22261e-18
9.71104e-19
1.43562e-18
9.96833e-19
1.02002e-18
8.77762e-19
4.07646e-18
7.37078e-18
1.59288e-17
7.69049e-18
2.93695e-18
1.39215e-18
9.08496e-19
1.33875e-18
1.13809e-18
4.4043e-19
7.53868e-19
5.52547e-18
1.42401e-17
4.96255e-18
1.30902e-18
4.91704e-19
6.94522e-19
2.01421e-18
2.05835e-18
5.93039e-19
8.84929e-19
4.47459e-18
1.99428e-18
1.49548e-18
2.18006e-18
1.73372e-18
8.76032e-19
4.4431e-19
9.52901e-19
4.21693e-18
3.186e-18
2.14099e-18
1.13451e-18
9.78827e-19
1.24294e-18
1.91845e-18
2.26998e-18
2.20854e-18
2.79852e-18
1.27003e-18
1.15523e-18
1.46493e-18
1.41036e-18
3.77195e-19
8.96626e-19
1.46431e-18
2.00789e-18
2.47261e-18
3.04359e-18
6.07872e-19
1.13536e-18
3.92643e-19
1.37202e-18
8.64077e-18
6.84581e-17
4.22596e-17
1.94853e-17
9.75e-18
5.62081e-18
3.43149e-18
1.90668e-18
1.18531e-18
1.12358e-18
8.00109e-19
6.78662e-19
1.454e-18
3.27123e-18
6.87487e-18
6.50797e-18
1.96263e-18
6.28782e-19
6.2755e-19
4.63442e-19
4.38563e-19
4.14312e-19
1.81476e-18
6.57254e-18
9.54094e-18
6.54267e-18
5.70236e-18
4.59497e-18
3.68055e-18
2.2152e-18
1.94563e-18
2.00227e-18
1.6847e-18
1.6513e-18
1.58442e-18
1.11032e-18
1.18305e-18
3.15573e-18
2.80179e-18
7.99099e-19
7.77671e-19
1.11577e-18
8.64163e-19
2.2414e-18
1.78074e-18
2.16333e-18
4.98683e-18
6.16616e-18
4.50286e-18
3.02527e-18
1.53068e-18
1.24076e-18
1.20055e-18
1.8522e-18
2.00029e-18
2.24275e-18
2.30462e-18
2.19808e-18
1.34657e-18
9.75874e-19
8.60591e-19
1.28162e-18
1.02587e-18
2.27383e-18
3.35505e-18
2.11687e-18
5.32354e-18
6.64459e-18
2.8203e-18
1.7237e-18
2.08146e-18
1.91063e-18
4.4671e-18
1.5836e-18
2.93023e-18
1.31916e-18
1.21118e-18
9.01465e-19
1.08275e-18
1.50407e-18
1.38353e-18
1.20191e-18
2.11785e-18
2.48508e-18
2.51989e-18
2.99862e-18
2.71369e-18
1.82709e-18
1.39595e-18
1.81705e-18
1.24046e-18
1.81429e-18
1.21727e-18
4.95448e-19
1.72189e-18
1.07705e-18
2.84147e-19
2.41413e-18
1.51422e-18
4.1723e-18
9.42006e-19
1.91439e-18
1.13843e-18
9.45637e-19
1.24991e-18
2.07676e-18
1.64327e-18
1.74372e-18
2.06989e-18
2.38371e-18
1.43564e-18
1.62898e-18
1.9527e-18
2.99258e-18
1.2877e-18
1.36978e-18
4.09389e-18
3.60843e-18
2.31653e-18
1.3909e-18
1.57151e-18
2.71632e-18
2.57845e-18
1.00291e-18
1.52513e-18
4.26705e-18
3.44943e-18
1.80701e-18
2.98327e-18
2.21148e-18
1.41307e-18
1.8626e-18
1.45403e-18
1.05224e-18
2.36572e-18
3.44668e-18
3.85337e-19
2.15207e-18
3.94154e-18
1.92505e-18
1.27047e-18
2.19355e-18
8.9818e-19
2.14882e-18
3.32179e-18
1.66608e-18
9.22937e-19
2.04737e-18
3.39424e-18
1.44726e-18
1.7177e-18
1.48823e-18
4.60107e-18
8.0951e-19
1.78996e-18
2.46065e-18
1.14021e-18
1.3864e-18
1.46588e-18
1.58744e-18
2.02243e-18
1.14806e-18
1.02418e-18
1.75805e-18
1.50606e-18
8.74304e-19
2.60574e-18
2.51631e-18
3.89286e-18
3.36827e-18
2.06981e-18
8.14159e-19
1.34806e-18
1.40687e-18
2.23392e-18
1.44182e-18
1.43981e-18
1.31995e-18
2.6859e-18
2.24893e-18
1.69237e-18
1.73773e-18
1.77836e-18
4.13473e-18
3.83807e-18
1.12582e-18
1.33318e-18
1.57554e-18
2.26525e-18
2.86673e-18
2.13698e-18
4.03054e-18
2.67601e-18
1.13838e-18
1.90601e-18
1.63427e-18
2.02317e-18
1.79982e-18
1.07073e-18
2.14321e-18
1.58193e-18
8.72949e-19
3.48682e-18
1.89771e-18
1.06933e-18
2.39084e-18
3.35411e-18
2.21096e-18
2.4221e-18
1.9464e-18
9.06297e-19
1.13149e-18
1.04741e-18
1.30579e-18
1.44657e-18
1.44716e-18
1.85287e-18
2.22362e-18
4.10181e-18
3.70849e-18
1.86111e-18
1.77525e-18
1.7843e-18
1.60748e-18
1.83032e-18
1.67298e-18
1.2015e-18
1.79788e-18
1.34244e-18
1.10498e-18
5.67172e-19
3.21048e-18
4.47598e-18
2.46056e-18
9.53424e-19
3.71131e-18
1.30998e-18
7.54928e-19
1.07519e-18
1.74139e-18
2.28537e-18
1.96531e-18
2.62091e-18
2.65507e-18
1.17581e-18
1.90292e-18
1.44712e-18
1.18978e-18
7.81355e-19
2.89536e-18
8.2004e-19
8.76056e-19
1.39788e-18
1.54026e-18
2.33811e-18
1.34364e-18
2.13404e-18
1.04485e-18
1.83484e-18
1.63054e-18
2.12586e-18
1.7613e-18
1.43182e-18
1.12935e-18
1.79023e-18
2.66789e-18
1.24802e-18
1.58305e-18
1.57297e-18
1.91289e-18
1.79265e-18
8.35609e-19
3.2664e-18
1.68994e-18
1.8678e-18
2.07393e-18
1.53789e-18
1.94095e-18
1.43271e-18
1.23234e-18
1.7063e-18
9.83339e-19
4.91272e-19
1.56211e-18
1.35136e-18
1.3028e-18
4.43618e-19
5.6531e-19
1.68217e-18
3.08303e-18
5.51022e-18
4.03472e-18
3.79699e-18
1.96128e-18
1.55337e-18
5.36689e-18
1.03081e-17
1.65157e-17
9.60547e-18
5.02492e-18
2.70452e-18
1.4699e-18
1.24572e-18
2.14512e-18
3.64681e-18
4.42393e-18
2.79586e-18
1.80464e-18
1.59628e-18
1.50724e-18
1.15771e-18
9.29646e-19
1.08577e-18
1.18098e-18
9.80435e-19
1.06706e-18
1.59331e-18
1.94337e-18
1.30236e-18
7.61655e-19
4.25737e-19
4.07125e-19
5.86497e-19
1.02577e-18
1.53015e-18
1.97509e-18
1.14282e-18
1.82031e-18
1.69543e-18
1.77465e-18
1.91068e-18
4.61175e-18
4.5101e-18
1.25047e-18
9.81452e-19
1.37966e-18
1.61181e-18
9.28679e-19
1.18523e-18
8.5595e-19
7.26783e-19
1.74082e-18
1.75409e-18
4.47477e-19
1.00017e-18
1.5701e-18
8.77127e-18
4.88318e-17
2.80881e-17
1.07208e-17
4.44476e-18
2.25052e-18
1.61362e-18
1.36537e-18
1.22495e-18
7.60699e-19
8.37259e-19
2.73349e-18
7.59972e-18
3.64195e-18
1.05804e-18
5.28839e-19
7.08083e-19
1.61497e-18
2.1453e-18
7.71147e-19
6.17706e-19
2.84641e-18
5.48096e-18
2.38088e-18
1.79798e-18
2.2527e-18
1.20473e-18
6.81751e-19
7.47708e-19
2.01499e-18
3.80121e-18
2.30655e-18
1.45609e-18
1.25537e-18
1.53528e-18
2.30806e-18
3.99699e-18
3.55288e-18
1.95933e-18
1.0718e-18
6.83311e-19
6.42077e-19
7.04473e-19
4.36197e-19
7.35346e-19
1.54219e-18
1.7693e-18
6.49887e-19
1.66164e-18
2.93954e-18
1.42647e-18
6.19074e-19
3.92748e-18
1.79329e-17
4.37113e-17
2.58302e-17
8.78287e-18
3.77282e-18
1.59839e-18
8.75118e-19
7.63501e-19
7.53039e-19
8.40324e-19
8.31072e-19
7.93839e-19
1.14957e-18
2.14446e-18
3.70423e-18
2.8391e-18
1.17927e-18
4.76573e-19
4.42297e-19
5.32314e-19
4.60939e-19
4.74241e-19
1.62708e-18
1.14157e-17
3.14062e-17
1.26707e-17
5.20698e-18
3.3659e-18
3.00096e-18
2.00762e-18
1.29075e-18
1.36321e-18
1.29928e-18
1.27872e-18
1.51876e-18
1.42436e-18
1.1273e-18
1.44125e-18
1.70931e-18
9.82616e-19
8.03632e-19
1.60546e-18
1.72343e-18
1.50642e-18
2.00501e-18
2.46998e-18
3.35012e-18
3.35723e-18
2.5619e-18
1.95861e-18
1.23293e-18
8.55536e-19
8.42699e-19
1.371e-18
1.66612e-18
1.26959e-18
1.04495e-18
1.13349e-18
1.22183e-18
1.17563e-18
1.12795e-18
1.28295e-18
1.3123e-18
1.56991e-18
3.96938e-18
4.00357e-18
3.34615e-18
3.79175e-18
1.9106e-18
9.40582e-19
9.45054e-19
8.45852e-19
1.09511e-18
9.03821e-19
1.25381e-18
9.14892e-19
1.13116e-18
1.64143e-18
1.00083e-18
1.40761e-18
2.96281e-18
7.47695e-19
3.23108e-18
1.94234e-18
8.27004e-19
2.17267e-18
1.53601e-18
1.05013e-18
1.50865e-18
2.61607e-18
1.21426e-18
1.82638e-18
2.6414e-18
1.25989e-18
6.81036e-19
2.00254e-18
3.57638e-19
7.48751e-19
4.42959e-19
1.31355e-18
7.4673e-19
6.28484e-19
2.63158e-18
9.7318e-19
3.39483e-18
7.88666e-19
1.68213e-18
2.95986e-18
1.11156e-18
2.77869e-18
4.64838e-18
2.54266e-18
1.47201e-18
2.90374e-18
5.13975e-18
2.42555e-18
5.01863e-18
3.25059e-18
1.39386e-18
2.61028e-18
1.64047e-18
2.09479e-18
1.34827e-18
9.72728e-19
1.08315e-18
1.53019e-18
1.83559e-18
1.96158e-18
4.73335e-18
1.98758e-18
1.46528e-18
2.16048e-18
2.25408e-18
2.43617e-18
9.44534e-19
1.34542e-18
1.89105e-18
1.28361e-18
1.26402e-18
1.44661e-18
1.80223e-18
1.73583e-18
1.73732e-18
1.59084e-18
4.38029e-18
1.28349e-18
9.19089e-19
9.90673e-19
2.06516e-18
4.01787e-18
1.79805e-18
1.02319e-18
1.07595e-18
1.48495e-18
1.87967e-18
2.06939e-18
3.95613e-18
3.23567e-18
4.52332e-18
1.41039e-18
1.20482e-18
1.4418e-18
2.45516e-18
9.41668e-19
1.11671e-18
2.45912e-18
1.02629e-18
8.85281e-19
5.81263e-19
1.36088e-18
6.67268e-19
2.07188e-18
1.6742e-18
6.51588e-19
9.31346e-19
1.5721e-18
1.61922e-18
2.23926e-18
3.5191e-18
1.88822e-18
2.46243e-18
2.80822e-18
2.60599e-18
1.17769e-18
1.8986e-18
1.26069e-18
2.31852e-18
2.47829e-18
1.18777e-18
9.27342e-19
2.01974e-18
1.18945e-18
7.53901e-19
1.30473e-18
6.556e-19
5.24743e-19
1.01563e-18
1.25395e-18
1.45731e-18
1.09868e-18
1.03844e-18
2.09427e-18
1.28198e-18
1.66044e-18
2.45148e-18
1.85695e-18
1.73129e-18
1.05776e-18
1.58717e-18
2.36117e-18
1.44323e-18
1.59033e-18
1.23936e-18
8.5224e-19
1.54752e-18
1.30809e-18
1.4233e-18
1.77317e-18
1.77329e-18
1.50154e-18
9.83665e-19
9.86029e-19
1.25281e-18
1.13973e-18
1.05703e-18
1.07941e-18
8.99477e-19
1.27929e-18
1.37131e-18
9.22588e-19
1.21257e-18
2.68639e-18
2.99733e-18
1.81958e-18
1.64274e-18
1.34706e-18
1.5956e-18
1.72857e-18
1.19931e-18
1.22406e-18
2.34286e-18
4.5707e-18
2.10304e-18
1.83035e-18
2.51868e-18
1.54231e-18
1.47611e-18
1.63809e-18
1.42508e-18
1.08925e-18
1.76363e-18
1.15378e-18
1.42998e-18
3.36939e-18
3.13706e-18
1.05181e-18
1.66623e-18
1.57789e-18
1.25153e-18
1.14987e-18
7.9039e-19
1.58602e-18
1.56402e-18
1.70431e-18
1.58319e-18
1.57426e-18
1.42451e-18
1.09894e-18
1.75164e-18
2.63815e-18
2.52993e-18
2.71263e-18
2.08143e-18
1.2556e-18
5.91188e-19
1.25345e-18
2.40452e-18
2.15745e-18
1.18017e-18
1.3174e-18
1.05214e-18
7.10974e-19
8.75308e-19
1.36013e-18
9.40533e-19
7.68794e-19
5.87707e-19
9.40945e-19
2.62974e-18
8.12124e-18
1.65503e-17
6.35955e-18
3.94308e-18
2.91372e-18
2.32967e-18
2.30212e-18
2.64299e-18
3.0265e-18
3.63619e-18
3.03692e-18
1.95929e-18
1.25866e-18
1.12986e-18
1.54461e-18
2.21172e-18
2.3444e-18
1.81906e-18
1.2797e-18
1.14184e-18
1.11773e-18
9.46827e-19
7.48136e-19
8.22749e-19
9.35216e-19
9.16513e-19
8.90059e-19
1.0988e-18
1.25626e-18
9.34823e-19
6.133e-19
5.48674e-19
7.55927e-19
1.05733e-18
1.39599e-18
1.76279e-18
1.82815e-18
1.29123e-18
1.29192e-18
2.18169e-18
1.61617e-18
1.18755e-18
1.89175e-18
2.39255e-18
1.02461e-18
9.24231e-19
1.4602e-18
9.81854e-19
7.26347e-19
8.98206e-19
1.77808e-18
2.43294e-18
1.74239e-18
1.62942e-18
6.95957e-19
8.08984e-19
1.13957e-18
6.59149e-18
3.56929e-17
3.31533e-17
1.02413e-17
3.33111e-18
1.59507e-18
1.24224e-18
1.14577e-18
9.79625e-19
8.27553e-19
7.56829e-19
1.04852e-18
1.92158e-18
2.08597e-18
1.11141e-18
6.66065e-19
7.81495e-19
1.24364e-18
1.59746e-18
1.2133e-18
8.4152e-19
1.33302e-18
2.77389e-18
2.0501e-18
1.19171e-18
1.59916e-18
2.14025e-18
1.80957e-18
1.44895e-18
1.28355e-18
2.24572e-18
3.11146e-18
2.09999e-18
1.78813e-18
2.28297e-18
3.05027e-18
2.80803e-18
1.83731e-18
9.73476e-19
7.22103e-19
7.85657e-19
8.35485e-19
9.64814e-19
1.02473e-18
1.04609e-18
7.65242e-19
4.28988e-19
3.65265e-19
1.16748e-18
5.62717e-18
4.87008e-18
1.45911e-18
4.70937e-18
1.2478e-17
1.5996e-17
1.38542e-17
4.61152e-18
1.86705e-18
1.03213e-18
9.58455e-19
1.03005e-18
1.16534e-18
9.97707e-19
9.18658e-19
1.04818e-18
1.20418e-18
1.37619e-18
1.74199e-18
1.54235e-18
9.08446e-19
5.75413e-19
6.92638e-19
1.02609e-18
8.69521e-19
7.30736e-19
1.80705e-18
9.18507e-18
1.82784e-17
8.79855e-18
3.41402e-18
1.8171e-18
1.30744e-18
1.1874e-18
1.02547e-18
1.03464e-18
1.29878e-18
1.38847e-18
1.13862e-18
1.01969e-18
9.47405e-19
9.99185e-19
1.36561e-18
1.62655e-18
1.58487e-18
1.72785e-18
1.65821e-18
1.61206e-18
2.15798e-18
2.46459e-18
2.30945e-18
2.6425e-18
2.65495e-18
1.61058e-18
8.70697e-19
7.57276e-19
1.09727e-18
1.85655e-18
2.37843e-18
1.54221e-18
1.03824e-18
1.15693e-18
1.56344e-18
1.41623e-18
8.11018e-19
7.51708e-19
1.17038e-18
1.985e-18
2.47163e-18
3.04184e-18
1.55257e-18
1.19949e-18
1.61301e-18
1.19229e-18
1.01084e-18
1.56591e-18
2.29867e-18
2.48226e-18
2.28587e-18
2.05918e-18
1.62568e-18
1.45831e-18
9.39423e-19
7.66964e-19
1.36407e-18
9.76965e-19
1.17961e-18
1.80345e-18
2.36001e-18
1.52481e-18
9.99711e-19
1.81491e-18
2.11362e-18
2.30498e-18
1.68354e-18
9.20377e-19
2.09584e-18
2.14413e-18
1.48806e-18
1.87651e-18
1.21515e-18
3.67668e-19
8.26055e-19
9.55017e-19
6.3539e-19
3.56133e-18
3.43644e-18
3.86721e-18
4.22788e-18
4.53777e-18
4.18247e-18
2.70989e-18
4.22575e-18
2.46876e-18
3.40204e-18
1.51519e-18
1.67843e-18
1.8275e-18
1.39208e-18
4.12173e-18
2.35107e-18
3.18438e-18
2.67898e-18
2.10247e-18
2.29454e-18
1.17643e-18
3.95298e-18
1.10836e-18
2.02436e-18
4.41558e-18
1.12518e-18
1.48177e-18
2.46882e-18
1.34647e-18
4.21228e-19
8.70203e-19
1.1803e-18
1.82484e-18
2.31928e-18
2.65036e-18
2.39357e-18
2.64573e-18
6.92539e-19
1.48536e-18
3.82682e-18
3.79952e-18
2.26121e-18
1.83225e-18
1.96451e-18
2.5087e-18
1.81627e-18
1.8569e-18
1.34357e-18
1.63553e-18
1.24919e-18
3.17448e-18
2.16456e-18
7.00594e-19
2.00148e-18
1.60739e-18
1.1463e-18
1.01036e-18
1.47725e-18
1.31488e-18
2.15554e-18
1.63038e-18
2.83859e-18
1.48305e-18
1.09098e-18
1.33956e-18
1.64462e-18
1.54961e-18
1.30034e-18
2.08589e-18
2.30478e-18
7.38317e-19
7.73149e-19
1.13673e-18
2.2033e-18
3.5845e-18
2.50303e-18
1.15435e-18
2.28468e-18
1.40117e-18
6.09375e-19
2.53166e-18
1.9781e-18
1.45345e-18
1.2701e-18
2.90899e-18
3.00999e-18
2.78243e-18
3.17448e-18
1.73388e-18
3.1087e-18
1.18374e-18
2.14592e-18
1.56135e-18
1.35234e-18
1.04502e-18
2.07262e-18
8.69484e-19
8.56376e-19
1.48708e-18
2.75619e-18
1.39901e-18
1.60454e-18
1.99817e-18
1.79724e-18
2.67339e-18
3.19469e-18
2.28988e-18
1.7432e-18
1.89393e-18
1.92374e-18
1.22722e-18
2.19432e-18
1.60629e-18
1.04365e-18
1.21742e-18
1.70152e-18
1.86512e-18
2.51604e-18
2.33221e-18
1.32924e-18
1.15408e-18
1.18979e-18
1.46062e-18
7.40515e-19
1.5939e-18
2.06411e-18
2.1581e-18
1.33021e-18
1.10925e-18
1.3789e-18
1.28936e-18
1.94372e-18
1.54854e-18
1.66449e-18
1.6728e-18
1.17034e-18
1.73243e-18
1.61341e-18
1.27948e-18
1.52597e-18
2.1365e-18
8.77021e-19
1.30123e-18
2.05982e-18
2.18381e-18
2.61184e-18
1.70303e-18
1.18236e-18
9.94018e-19
2.20731e-18
1.36518e-18
1.36864e-18
9.89678e-19
9.95828e-19
1.32601e-18
1.39568e-18
2.43928e-18
2.09261e-18
1.12603e-18
1.54745e-18
1.78881e-18
2.12068e-18
2.28468e-18
1.89697e-18
1.1177e-18
1.16994e-18
1.64739e-18
2.51212e-18
3.59974e-18
5.57222e-18
3.28813e-18
1.57505e-18
1.67097e-18
2.30226e-18
1.80945e-18
1.8764e-18
1.85491e-18
1.08382e-18
8.65179e-19
1.31235e-18
1.4397e-18
6.16785e-19
5.32263e-19
1.0476e-18
9.95689e-19
8.05799e-19
8.34841e-19
3.59084e-18
1.3556e-17
1.71423e-17
7.88946e-18
3.81966e-18
2.63384e-18
2.78712e-18
2.61929e-18
1.88802e-18
1.40787e-18
1.42964e-18
1.80177e-18
1.91952e-18
1.49362e-18
1.00776e-18
9.8322e-19
1.2221e-18
1.94283e-18
2.02286e-18
1.65639e-18
1.35148e-18
1.29854e-18
1.16044e-18
9.64949e-19
1.02141e-18
1.3345e-18
1.48751e-18
1.37717e-18
1.17205e-18
1.00584e-18
8.63728e-19
7.64537e-19
7.94784e-19
1.11403e-18
1.50644e-18
1.89163e-18
2.14952e-18
1.94798e-18
1.56158e-18
1.14064e-18
9.61464e-19
9.18003e-19
8.6611e-19
1.05097e-18
1.10796e-18
6.46094e-19
5.37842e-19
6.99991e-19
9.3356e-19
1.21942e-18
1.49237e-18
1.14623e-18
1.05873e-18
1.0141e-18
7.52239e-19
8.44479e-19
7.07151e-19
1.11788e-18
4.91718e-18
1.36696e-17
2.08825e-17
1.00972e-17
3.03175e-18
1.28173e-18
9.6012e-19
1.02141e-18
9.14352e-19
8.60979e-19
9.9955e-19
1.29046e-18
1.91557e-18
2.11526e-18
1.48823e-18
9.50405e-19
7.87909e-19
1.11696e-18
1.74331e-18
1.75181e-18
1.21178e-18
7.89123e-19
1.13109e-18
1.86018e-18
2.8182e-18
3.57573e-18
4.15537e-18
2.3938e-18
9.71093e-19
5.93103e-19
1.05433e-18
2.2405e-18
2.77978e-18
2.32828e-18
2.49155e-18
2.09695e-18
1.54542e-18
1.11129e-18
9.76445e-19
1.03874e-18
9.39564e-19
7.40692e-19
7.9507e-19
1.23895e-18
1.43067e-18
8.27038e-19
3.88092e-19
3.99694e-19
1.27467e-18
6.75775e-18
1.25e-17
9.09947e-18
7.56294e-18
7.98992e-18
8.12859e-18
5.28273e-18
2.00272e-18
1.37127e-18
1.16665e-18
1.40764e-18
1.72595e-18
1.75813e-18
1.61292e-18
1.39664e-18
1.3555e-18
1.41562e-18
1.29392e-18
1.25628e-18
1.43045e-18
1.36732e-18
1.05944e-18
9.20631e-19
7.97639e-19
6.61298e-19
8.6356e-19
1.75698e-18
3.5584e-18
6.08898e-18
3.83382e-18
2.04036e-18
1.16003e-18
8.74697e-19
8.81722e-19
1.07659e-18
1.22697e-18
1.20924e-18
1.16151e-18
1.1682e-18
1.25674e-18
1.64394e-18
2.59911e-18
3.00851e-18
3.58411e-18
3.77507e-18
2.69674e-18
1.7875e-18
1.44949e-18
1.3368e-18
1.56846e-18
2.28354e-18
2.69878e-18
1.95345e-18
1.11683e-18
8.03779e-19
7.06414e-19
7.33738e-19
8.19137e-19
9.03809e-19
1.16472e-18
1.25278e-18
1.32013e-18
1.27674e-18
1.26076e-18
1.42852e-18
1.93407e-18
1.85849e-18
1.70679e-18
1.6425e-18
1.26932e-18
1.58315e-18
1.10883e-18
8.76203e-19
1.16013e-18
1.28496e-18
1.64276e-18
2.00361e-18
1.55413e-18
1.65349e-18
1.6144e-18
1.59938e-18
1.68109e-18
1.03158e-18
5.77356e-19
9.27136e-19
1.65732e-18
1.7215e-18
6.49777e-19
2.16726e-18
3.39221e-18
2.11637e-18
1.20815e-18
1.35105e-18
2.06052e-18
1.04568e-18
1.9963e-18
1.42726e-18
8.9232e-19
6.46391e-19
1.31908e-18
1.06508e-18
8.13853e-19
5.68633e-19
7.38342e-19
1.03066e-18
1.26921e-18
2.87769e-18
3.45157e-18
4.1976e-18
2.1916e-18
1.87759e-18
1.75969e-18
1.04894e-18
2.37972e-18
1.9658e-18
1.06695e-18
1.22043e-18
4.09625e-19
3.22507e-18
5.04765e-18
1.47338e-18
9.12388e-19
2.70233e-18
2.55807e-18
3.79171e-18
4.65759e-18
1.58617e-18
1.23266e-18
7.7997e-19
1.26182e-18
1.27417e-18
6.74458e-19
2.0839e-18
3.08009e-18
1.58307e-18
2.52139e-18
2.09785e-18
1.05539e-18
1.78718e-18
3.05287e-18
1.6966e-18
7.35752e-19
1.19447e-18
1.81191e-18
3.72446e-18
2.78768e-18
1.52311e-18
2.96104e-18
1.55582e-18
1.07761e-18
1.21239e-18
1.77895e-18
1.3253e-18
2.51549e-18
4.40989e-18
1.90953e-18
2.00656e-18
1.97198e-18
1.53754e-18
1.09827e-18
1.62094e-18
1.84294e-18
1.08807e-18
1.83992e-18
1.76787e-18
9.68811e-19
1.24445e-18
1.25311e-18
1.49947e-18
9.86116e-19
1.23555e-18
2.53729e-18
2.16285e-18
1.86791e-18
1.25679e-18
1.59152e-18
9.51609e-19
9.94191e-19
2.03857e-18
1.78094e-18
2.56906e-18
2.8557e-18
1.47559e-18
1.68956e-18
1.91622e-18
3.47811e-18
1.06124e-18
1.2239e-18
1.5772e-18
1.50447e-18
2.03454e-18
2.58701e-18
1.6656e-18
1.55802e-18
1.50409e-18
1.51866e-18
1.2637e-18
1.06232e-18
1.39595e-18
1.32914e-18
1.11375e-18
1.79739e-18
1.72723e-18
1.18964e-18
1.09677e-18
2.31235e-18
2.95925e-18
1.48959e-18
8.23275e-19
2.03071e-18
1.99779e-18
3.07658e-18
2.79935e-18
1.72585e-18
1.69631e-18
1.66736e-18
1.26222e-18
1.4262e-18
2.71524e-18
3.74471e-18
2.40109e-18
8.8177e-19
1.13212e-18
2.68922e-18
1.76456e-18
1.29347e-18
1.67117e-18
1.34722e-18
1.38433e-18
1.54466e-18
2.62085e-18
1.81577e-18
9.77731e-19
9.24595e-19
1.1674e-18
1.41275e-18
1.27803e-18
2.10957e-18
2.1922e-18
1.90118e-18
1.16184e-18
1.26019e-18
9.4895e-19
1.22756e-18
2.28856e-18
2.57011e-18
2.39257e-18
2.00975e-18
2.56962e-18
1.49848e-18
1.69215e-18
1.94901e-18
1.18142e-18
1.02694e-18
1.49075e-18
1.33845e-18
1.15995e-18
1.31716e-18
1.7811e-18
2.39221e-18
2.33491e-18
2.51053e-18
2.10713e-18
9.99894e-19
7.05779e-19
1.34814e-18
1.99333e-18
2.17235e-18
2.00305e-18
1.3546e-18
9.11725e-19
1.18332e-18
2.9896e-18
2.76708e-18
2.08492e-18
2.1192e-18
1.62992e-18
1.65425e-18
1.53877e-18
1.21871e-18
1.73844e-18
1.66412e-18
1.42303e-18
1.30914e-18
1.18918e-18
1.24271e-18
1.57606e-18
1.59424e-18
1.06265e-18
5.83174e-19
3.01479e-19
1.67205e-18
1.88601e-17
3.86115e-17
1.67031e-17
7.45129e-18
3.0883e-18
1.72795e-18
1.47261e-18
1.57753e-18
1.35195e-18
9.89602e-19
9.08688e-19
1.33583e-18
2.16616e-18
2.27579e-18
1.93681e-18
1.32485e-18
1.28425e-18
1.43861e-18
2.02193e-18
1.9336e-18
1.53691e-18
1.29134e-18
1.28827e-18
1.47754e-18
1.85802e-18
2.37712e-18
2.51263e-18
2.01934e-18
1.39469e-18
1.05225e-18
9.90373e-19
1.13704e-18
1.33473e-18
1.7174e-18
1.80126e-18
1.6197e-18
1.41936e-18
1.3793e-18
1.2152e-18
9.56762e-19
8.91147e-19
9.76507e-19
1.07249e-18
1.03241e-18
1.13262e-18
1.04922e-18
6.95441e-19
8.63017e-19
1.20088e-18
1.52577e-18
1.14911e-18
9.00621e-19
8.08161e-19
1.39443e-18
2.24707e-18
2.20965e-18
1.55523e-18
1.46713e-18
4.52398e-18
1.10538e-17
1.3444e-17
9.07088e-18
3.29424e-18
1.31631e-18
7.58946e-19
7.76385e-19
8.90299e-19
9.69166e-19
1.10534e-18
1.38993e-18
1.7181e-18
1.82174e-18
1.65381e-18
1.26505e-18
8.95771e-19
7.59137e-19
8.49646e-19
1.04477e-18
1.18026e-18
9.89669e-19
1.3245e-18
2.712e-18
4.38294e-18
4.35909e-18
2.99897e-18
1.7743e-18
9.82402e-19
7.35193e-19
1.30743e-18
2.5286e-18
4.0582e-18
3.82633e-18
2.47528e-18
1.63171e-18
1.08626e-18
9.21289e-19
9.7992e-19
9.58085e-19
8.09848e-19
9.12678e-19
1.37543e-18
1.68569e-18
1.38167e-18
8.90161e-19
5.67971e-19
4.57892e-19
9.99404e-19
5.07408e-18
1.26e-17
1.22383e-17
8.77393e-18
4.89544e-18
3.85486e-18
2.46655e-18
1.62071e-18
1.1812e-18
1.29318e-18
2.15214e-18
2.21034e-18
1.90452e-18
1.45669e-18
1.11291e-18
9.63425e-19
1.15477e-18
1.53089e-18
1.98595e-18
2.70637e-18
4.02337e-18
3.32027e-18
2.3336e-18
1.75126e-18
1.57894e-18
1.64318e-18
2.12449e-18
3.41207e-18
5.1001e-18
4.08295e-18
2.49722e-18
1.4165e-18
8.58259e-19
8.43865e-19
1.09896e-18
1.44734e-18
1.69826e-18
1.3721e-18
1.04841e-18
1.05356e-18
1.47936e-18
1.47322e-18
1.42827e-18
1.78314e-18
2.45166e-18
2.55768e-18
1.82404e-18
1.39915e-18
1.86475e-18
2.59499e-18
2.81201e-18
2.13851e-18
1.27674e-18
8.75919e-19
7.85924e-19
7.89602e-19
7.33139e-19
8.83456e-19
1.30743e-18
1.66035e-18
1.55511e-18
1.2723e-18
1.16313e-18
1.32993e-18
1.52336e-18
1.40283e-18
1.42064e-18
1.47708e-18
1.3846e-18
1.30592e-18
1.25798e-18
1.51235e-18
1.76906e-18
2.03434e-18
1.37899e-18
1.77172e-18
1.54484e-18
1.42709e-18
1.66064e-18
1.9053e-18
1.36731e-18
6.61835e-19
5.97411e-19
1.3985e-18
1.14219e-18
1.24254e-18
1.82062e-18
2.13065e-18
1.91387e-18
2.68247e-18
2.53931e-18
1.04846e-18
9.44847e-19
1.57359e-18
3.07861e-18
2.23671e-18
1.43661e-18
1.75207e-18
1.63263e-18
2.1125e-18
9.7363e-19
4.77009e-19
1.14814e-18
1.08803e-18
1.17909e-18
1.93968e-19
1.00901e-18
9.81664e-19
1.04206e-18
3.68985e-18
2.42333e-18
1.42902e-18
2.22392e-18
9.79837e-19
1.14846e-18
5.97392e-19
1.37868e-18
2.4693e-18
1.26528e-18
3.44252e-18
2.98951e-18
3.44889e-18
4.68992e-18
1.45442e-18
1.49869e-18
1.94193e-18
3.09104e-18
2.75865e-18
3.36891e-18
1.6366e-18
7.59681e-19
1.27524e-18
1.36454e-18
5.6908e-19
1.33462e-18
9.111e-19
3.70977e-18
1.74629e-18
1.76868e-18
2.04749e-18
2.10887e-18
2.39543e-18
1.19153e-18
1.24202e-18
1.82784e-18
2.77885e-18
3.14047e-18
2.00144e-18
2.12843e-18
1.20059e-18
1.22785e-18
1.7654e-18
1.84801e-18
1.57813e-18
1.64574e-18
2.0946e-18
4.12559e-18
2.39618e-18
1.1647e-18
1.85004e-18
2.0027e-18
1.29795e-18
1.82482e-18
2.19756e-18
1.641e-18
1.19836e-18
1.57175e-18
1.28734e-18
9.60972e-19
2.03736e-18
1.37568e-18
2.127e-18
4.16233e-18
2.66835e-18
1.49552e-18
2.05361e-18
2.91151e-18
2.28035e-18
3.32105e-18
3.14803e-18
1.59452e-18
1.69154e-18
3.34712e-18
2.13058e-18
1.49552e-18
1.15453e-18
1.1515e-18
1.80119e-18
1.88564e-18
1.39625e-18
1.45305e-18
2.17643e-18
2.45362e-18
2.49015e-18
3.80441e-18
2.99648e-18
1.85417e-18
1.06888e-18
1.7283e-18
2.53445e-18
1.50913e-18
1.18756e-18
1.31813e-18
6.22904e-19
7.41887e-19
1.18575e-18
8.47451e-19
1.11629e-18
1.20606e-18
1.99949e-18
2.33433e-18
1.73557e-18
1.47755e-18
1.08346e-18
1.70224e-18
2.60216e-18
2.53864e-18
1.50692e-18
9.66229e-19
9.84882e-19
1.55808e-18
1.29821e-18
9.77844e-19
9.43573e-19
1.07924e-18
2.34638e-18
2.28253e-18
1.90479e-18
2.79012e-18
1.88016e-18
2.86695e-18
2.53183e-18
1.86053e-18
1.93871e-18
1.6601e-18
1.53714e-18
1.70456e-18
2.09606e-18
2.50302e-18
1.52965e-18
1.055e-18
1.16046e-18
1.99931e-18
1.35715e-18
1.68389e-18
1.76421e-18
1.89485e-18
1.62779e-18
1.46478e-18
2.12249e-18
2.46619e-18
1.55624e-18
1.30266e-18
1.93666e-18
2.22847e-18
1.80121e-18
1.12634e-18
1.13293e-18
1.27427e-18
1.78991e-18
1.4967e-18
1.80649e-18
1.30662e-18
1.03647e-18
1.33143e-18
1.54297e-18
2.34811e-18
2.71231e-18
2.32079e-18
1.48087e-18
1.8557e-18
1.83653e-18
1.68754e-18
1.70955e-18
1.10815e-18
8.26378e-19
1.10526e-18
1.04987e-18
9.39618e-19
1.71715e-18
2.30557e-18
1.88705e-18
1.37521e-18
1.65913e-18
1.5345e-18
1.60001e-18
2.32449e-18
1.88926e-18
9.04876e-19
4.28217e-19
1.54831e-19
9.85894e-19
2.94564e-17
4.42727e-17
1.64053e-17
6.53867e-18
2.67591e-18
1.51122e-18
1.39303e-18
1.51166e-18
1.49284e-18
1.53365e-18
1.3045e-18
1.23257e-18
1.63094e-18
2.36182e-18
2.41604e-18
2.14905e-18
1.49029e-18
1.35088e-18
1.36417e-18
1.82019e-18
1.64501e-18
1.46975e-18
1.42847e-18
1.54263e-18
1.72069e-18
1.92716e-18
2.02577e-18
2.03274e-18
1.68145e-18
1.43113e-18
1.29333e-18
1.33478e-18
1.50672e-18
1.5086e-18
1.19951e-18
9.28129e-19
7.40688e-19
7.76305e-19
9.82639e-19
1.07282e-18
1.00103e-18
9.47448e-19
1.03302e-18
1.2643e-18
1.36019e-18
9.37355e-19
6.03142e-19
6.88273e-19
1.32026e-18
1.44528e-18
1.20997e-18
9.78788e-19
9.05993e-19
1.31732e-18
2.37373e-18
2.32243e-18
1.61079e-18
2.06082e-18
4.71219e-18
1.0674e-17
8.7572e-18
5.33143e-18
2.89298e-18
1.67566e-18
1.00157e-18
7.73186e-19
8.38244e-19
1.03526e-18
1.3537e-18
1.6048e-18
1.59564e-18
1.45895e-18
1.31409e-18
1.11688e-18
8.77971e-19
9.92404e-19
1.41012e-18
1.73331e-18
1.6389e-18
1.47126e-18
1.65273e-18
3.35498e-18
5.30055e-18
4.51174e-18
2.75645e-18
1.50299e-18
1.13246e-18
9.85289e-19
1.19839e-18
2.01068e-18
3.39656e-18
4.07711e-18
2.6593e-18
1.59484e-18
1.19741e-18
1.32571e-18
1.65001e-18
1.91344e-18
1.81151e-18
1.71252e-18
1.603e-18
1.39791e-18
1.26418e-18
1.29317e-18
1.23746e-18
9.44184e-19
9.43526e-19
3.09043e-18
8.92754e-18
1.50567e-17
6.81386e-18
3.11795e-18
1.9953e-18
1.56231e-18
1.02463e-18
9.45833e-19
1.00684e-18
1.28068e-18
2.07956e-18
1.97445e-18
1.59279e-18
1.30225e-18
1.08599e-18
1.14552e-18
1.70292e-18
2.52601e-18
3.24425e-18
4.04485e-18
3.99621e-18
2.50828e-18
1.43103e-18
8.92909e-19
9.07947e-19
1.28258e-18
1.80392e-18
1.96934e-18
1.76475e-18
1.38466e-18
1.03931e-18
8.73823e-19
9.87854e-19
1.2958e-18
1.38085e-18
1.26117e-18
1.27781e-18
1.17948e-18
9.20999e-19
7.96813e-19
1.07056e-18
1.31169e-18
1.35851e-18
2.02137e-18
2.15671e-18
1.79728e-18
1.35182e-18
1.48952e-18
1.91617e-18
1.78232e-18
1.53655e-18
1.79489e-18
1.91148e-18
1.46669e-18
1.08041e-18
1.13393e-18
1.52394e-18
1.79155e-18
1.80122e-18
2.26149e-18
2.37694e-18
1.86424e-18
1.50728e-18
1.38839e-18
1.53566e-18
1.5385e-18
1.23293e-18
9.62162e-19
1.1679e-18
1.34855e-18
1.37743e-18
1.61838e-18
1.47091e-18
1.21746e-18
7.03651e-19
8.30316e-19
1.97303e-18
3.14354e-18
2.12551e-18
1.94266e-18
2.06224e-18
1.86907e-18
1.79724e-18
2.6666e-18
1.60173e-18
1.11134e-18
1.32825e-18
1.6184e-18
1.55093e-18
6.4601e-19
8.71813e-19
8.2341e-19
4.27831e-19
8.655e-19
1.61387e-18
1.40214e-18
1.91157e-18
2.2399e-18
1.2364e-18
1.74327e-18
7.98191e-19
9.25608e-19
3.1296e-18
3.08032e-18
1.59791e-18
7.65125e-19
9.6722e-19
1.54985e-18
1.45019e-18
1.8757e-18
2.56226e-18
2.97794e-18
6.94922e-18
3.16062e-18
2.50032e-18
1.5654e-18
1.89384e-18
1.23594e-18
2.49247e-18
3.40051e-18
2.6163e-18
1.67325e-18
1.84017e-18
1.14525e-18
1.78705e-18
1.31864e-18
3.80127e-18
6.10254e-18
1.93104e-18
1.21868e-18
1.35792e-18
2.89182e-18
3.08378e-18
1.34998e-18
2.34758e-18
1.36908e-18
2.84714e-18
2.42371e-18
2.37654e-18
1.03904e-18
1.75383e-18
1.26622e-18
3.00581e-18
2.7686e-18
3.02715e-18
1.48967e-18
1.81703e-18
3.40419e-18
3.08947e-18
1.48617e-18
1.38549e-18
2.1137e-18
1.34154e-18
9.92374e-19
1.49959e-18
1.38455e-18
2.36998e-18
2.87321e-18
1.36138e-18
1.95536e-18
2.43039e-18
1.56068e-18
1.49898e-18
2.15209e-18
1.40966e-18
1.28627e-18
1.08157e-18
8.70771e-19
1.36803e-18
2.88149e-18
2.76548e-18