/*--------------------------------*- C++ -*----------------------------------*\
  =========                 |
  \\      /  F ield         | OpenFOAM: The Open Source CFD Toolbox
   \\    /   O peration     | Website:  https://openfoam.org
    \\  /    A nd           | Version:  7
     \\/     M anipulation  |
\*---------------------------------------------------------------------------*/
FoamFile
{
    version     2.0;
    format      ascii;
    class       volScalarField;
    location    "4500";
    object      k2Write;
}
// * * * * * * * * * * * * * * * * * * * * * * * * * * * * * * * * * * * * * //

dimensions      [0 2 0 0 0 0 0];

internalField   nonuniform List<scalar> 
160000
(
1.46547e-18
2.07036e-18
1.78461e-18
2.6552e-18
3.82291e-18
1.81762e-18
2.94996e-18
1.24847e-18
1.95651e-18
4.11431e-18
3.17176e-18
2.19127e-18
4.07416e-18
3.77597e-18
1.29845e-18
1.83861e-18
1.25334e-18
1.33524e-18
2.81114e-18
2.6055e-18
2.22978e-18
2.15218e-18
2.70072e-18
3.70897e-18
2.77982e-18
4.36417e-18
4.47916e-18
2.79548e-18
3.37992e-18
1.9052e-18
1.6724e-18
2.61032e-18
5.6794e-18
2.79113e-18
2.35257e-18
3.47114e-18
3.90491e-18
5.70213e-18
1.61185e-18
2.36442e-18
2.3586e-18
2.33408e-18
3.60532e-18
1.98941e-18
3.73128e-18
3.62908e-18
2.66333e-18
1.44484e-18
2.71032e-18
1.60153e-18
2.79356e-18
6.34047e-18
4.08767e-18
3.02877e-18
5.60971e-18
1.96525e-18
4.58549e-18
1.35177e-18
1.2311e-18
1.92103e-18
8.08821e-18
2.26323e-18
2.12973e-18
1.66496e-18
1.26869e-18
4.76753e-18
3.1598e-18
3.9019e-18
1.01649e-18
5.74295e-19
5.15786e-18
1.68589e-18
4.44089e-18
2.18586e-18
3.24478e-18
2.47821e-18
3.3755e-18
2.20701e-18
4.30042e-18
2.54571e-18
4.73968e-18
6.21198e-18
3.12675e-18
2.44534e-18
2.44451e-18
2.1875e-18
2.17849e-18
1.40437e-18
2.15339e-18
3.46612e-18
1.3855e-18
4.65307e-18
5.56551e-18
4.53741e-18
3.02028e-18
1.48561e-18
2.60457e-18
1.91511e-18
1.98612e-18
1.28313e-18
2.31113e-18
9.56918e-19
3.59363e-18
1.96516e-18
1.30684e-18
3.06085e-18
1.20719e-18
2.98065e-18
3.6927e-18
3.30407e-18
4.42607e-18
1.44931e-18
4.22155e-18
2.02898e-18
1.71784e-18
2.40882e-18
1.50849e-18
2.30246e-18
4.41427e-18
2.94362e-18
2.33047e-18
1.67607e-18
2.96912e-18
3.60895e-18
4.34878e-18
6.85715e-18
5.0472e-18
1.96846e-18
2.55677e-18
2.71585e-18
1.86621e-18
1.40723e-18
2.68198e-18
6.33729e-18
3.77337e-18
2.9523e-18
1.76395e-18
2.50875e-18
1.56008e-18
1.00466e-18
2.83501e-18
3.9224e-18
8.05515e-19
3.00531e-18
6.27404e-18
3.12974e-18
3.23384e-18
2.89882e-18
2.40291e-18
1.43782e-18
1.22578e-18
2.11094e-18
1.29422e-18
3.16754e-18
1.11937e-18
2.74191e-18
2.81255e-18
4.91972e-18
3.07063e-18
3.39612e-18
1.99313e-18
2.52952e-18
1.9252e-18
3.96527e-18
1.10066e-18
3.10047e-18
3.08189e-18
1.83226e-18
2.57076e-18
1.82164e-18
5.62103e-18
6.15786e-18
2.13292e-18
5.59099e-18
3.02428e-18
1.71313e-18
2.46045e-18
2.70124e-18
5.7179e-18
4.75527e-18
1.07259e-18
3.70972e-18
1.50331e-18
1.10923e-18
1.27408e-18
1.43589e-18
1.75828e-18
1.56961e-18
1.29183e-18
2.78151e-18
3.47507e-18
2.52659e-18
2.91833e-18
4.01703e-18
5.63304e-18
1.04708e-18
2.70937e-18
1.46269e-17
1.89815e-17
1.26365e-17
6.67609e-18
3.06587e-18
1.48136e-18
1.41755e-18
2.09313e-18
5.1519e-18
7.7444e-18
5.08795e-18
3.55546e-18
2.9133e-18
2.9858e-18
2.83866e-18
2.07966e-18
1.84236e-18
2.25787e-18
1.97266e-18
1.48987e-18
2.42692e-18
5.78001e-18
6.42647e-18
5.43958e-18
2.81588e-18
7.89258e-19
7.00628e-19
9.47986e-19
1.49848e-18
2.95432e-18
1.17663e-18
2.79973e-18
1.91291e-18
6.0172e-19
1.66843e-18
1.35785e-18
2.73961e-18
2.57841e-18
2.97656e-18
1.46559e-18
2.47472e-18
1.25658e-18
2.05785e-18
1.39514e-18
1.08829e-18
1.70714e-18
1.38388e-18
2.23456e-18
2.4172e-18
4.08323e-18
4.58592e-18
2.12804e-17
3.38706e-17
1.19232e-17
4.40684e-18
1.68197e-18
1.13457e-18
1.29679e-18
2.14511e-18
1.82237e-18
8.45874e-19
1.66502e-18
1.21959e-17
2.83224e-17
6.48032e-18
1.7079e-18
7.31026e-19
1.04994e-18
3.04286e-18
3.1073e-18
9.02219e-19
1.99568e-18
1.00827e-17
4.07188e-18
1.60698e-18
2.34156e-18
1.86032e-18
9.39671e-19
7.70977e-19
1.66335e-18
7.35693e-18
4.20763e-18
2.67336e-18
1.41555e-18
1.80179e-18
2.48181e-18
3.82741e-18
4.24653e-18
2.93735e-18
3.71974e-18
1.6871e-18
1.74681e-18
2.11619e-18
1.91545e-18
5.11969e-19
1.21624e-18
1.98499e-18
2.06511e-18
2.30938e-18
2.8408e-18
9.22808e-19
3.32877e-18
2.73673e-18
9.55456e-18
6.0074e-17
4.46151e-17
2.74763e-17
1.26842e-17
6.33364e-18
3.65581e-18
2.75153e-18
2.3938e-18
2.32543e-18
2.27833e-18
1.6216e-18
1.39431e-18
2.98512e-18
6.71329e-18
9.79048e-18
8.90404e-18
2.6839e-18
8.59474e-19
9.29333e-19
7.57429e-19
9.02522e-19
1.1382e-18
4.98226e-18
1.80466e-17
2.61592e-17
1.57669e-17
6.8468e-18
5.51497e-18
4.41572e-18
2.83203e-18
2.89864e-18
2.98209e-18
2.50936e-18
2.48888e-18
2.43945e-18
2.13461e-18
2.78725e-18
7.4317e-18
6.59527e-18
1.40483e-18
1.12152e-18
1.73515e-18
1.6859e-18
4.37108e-18
3.47136e-18
4.21561e-18
6.70308e-18
6.81066e-18
4.96859e-18
3.33914e-18
1.68889e-18
1.83717e-18
1.88885e-18
2.9132e-18
3.14513e-18
2.85141e-18
2.66817e-18
2.54316e-18
1.55811e-18
1.12882e-18
1.16426e-18
1.7774e-18
1.59074e-18
3.52527e-18
4.97088e-18
3.12844e-18
7.86471e-18
7.80567e-18
3.31253e-18
2.02439e-18
2.44789e-18
2.55754e-18
5.97771e-18
2.18478e-18
4.04212e-18
1.8195e-18
1.83464e-18
1.35054e-18
1.5593e-18
1.83078e-18
1.6042e-18
1.52894e-18
2.69348e-18
3.16101e-18
3.20416e-18
3.81379e-18
3.4504e-18
2.32338e-18
2.08539e-18
2.74611e-18
2.19967e-18
3.5046e-18
2.84486e-18
1.99002e-18
6.91458e-18
4.32652e-18
1.38462e-18
9.38868e-18
5.54064e-18
5.61131e-18
1.2717e-18
1.97863e-18
1.62329e-18
1.45132e-18
1.96918e-18
3.28388e-18
2.24093e-18
2.35248e-18
2.65559e-18
3.06912e-18
1.8845e-18
2.37095e-18
2.89971e-18
4.27374e-18
1.53464e-18
1.63756e-18
6.08138e-18
5.37805e-18
3.46373e-18
1.9155e-18
2.44765e-18
3.3772e-18
3.21533e-18
1.25422e-18
2.51964e-18
7.07046e-18
5.73265e-18
2.79843e-18
3.89136e-18
2.89249e-18
2.01577e-18
2.5263e-18
1.84928e-18
1.34167e-18
3.86265e-18
5.13937e-18
6.32373e-19
3.33427e-18
5.09145e-18
2.4928e-18
1.64888e-18
3.24411e-18
1.54679e-18
3.70887e-18
5.74672e-18
2.70555e-18
1.43939e-18
2.63e-18
4.10529e-18
2.09665e-18
3.06719e-18
2.13735e-18
6.22021e-18
1.09649e-18
2.8502e-18
3.26691e-18
1.66628e-18
2.18834e-18
2.31789e-18
2.51453e-18
2.95255e-18
1.69614e-18
1.60631e-18
2.70411e-18
2.24271e-18
1.48091e-18
4.42045e-18
4.2752e-18
6.0916e-18
5.27838e-18
3.24824e-18
1.47755e-18
2.42109e-18
2.14776e-18
3.13668e-18
2.027e-18
2.05955e-18
2.07634e-18
4.23021e-18
3.54626e-18
2.67179e-18
2.76447e-18
2.8322e-18
6.59212e-18
6.1258e-18
1.79875e-18
2.20862e-18
2.61302e-18
3.75992e-18
4.76347e-18
3.49437e-18
6.1179e-18
4.06543e-18
1.86121e-18
3.1188e-18
2.4462e-18
2.95509e-18
2.57985e-18
1.53583e-18
3.07633e-18
2.27218e-18
1.45619e-18
5.82039e-18
3.13993e-18
1.86288e-18
3.96975e-18
4.67536e-18
3.08401e-18
3.37975e-18
2.71772e-18
1.36749e-18
1.81914e-18
1.70546e-18
2.16193e-18
2.40431e-18
2.51153e-18
3.21677e-18
3.78461e-18
5.49348e-18
4.96884e-18
2.49401e-18
2.37987e-18
2.39254e-18
2.24733e-18
2.5875e-18
2.36558e-18
1.80277e-18
2.54312e-18
1.8991e-18
1.56345e-18
9.32624e-19
5.28068e-18
6.74043e-18
3.52612e-18
1.52646e-18
5.86232e-18
2.06897e-18
1.2795e-18
1.82223e-18
2.95145e-18
3.87299e-18
3.21815e-18
3.82153e-18
3.8704e-18
1.71412e-18
2.77358e-18
2.10914e-18
1.73378e-18
1.30557e-18
4.83708e-18
1.36974e-18
1.49626e-18
2.38738e-18
2.62957e-18
3.99163e-18
2.29279e-18
3.54084e-18
1.86076e-18
3.27016e-18
2.9054e-18
3.78661e-18
2.54725e-18
2.06456e-18
1.89119e-18
3.0717e-18
4.51405e-18
2.39246e-18
3.23986e-18
2.96903e-18
2.82982e-18
2.16151e-18
1.33076e-18
5.19983e-18
2.45605e-18
2.59936e-18
2.88463e-18
2.13827e-18
2.69712e-18
1.99012e-18
1.71088e-18
2.36786e-18
1.36385e-18
8.45727e-19
2.68801e-18
2.1236e-18
2.42736e-18
1.63676e-18
3.50293e-18
1.04203e-17
1.51923e-17
4.42663e-18
2.14328e-18
2.83407e-18
3.57862e-18
6.00281e-18
2.07232e-17
3.80228e-17
1.21491e-17
6.57605e-18
3.43713e-18
2.28831e-18
2.14838e-18
2.69842e-18
4.87692e-18
8.2856e-18
6.06584e-18
3.71063e-18
2.3947e-18
2.12268e-18
1.99752e-18
1.625e-18
1.46677e-18
1.63105e-18
1.68247e-18
1.52376e-18
1.65731e-18
2.37784e-18
2.49508e-18
1.67063e-18
9.76505e-19
6.26052e-19
6.67469e-19
9.61003e-19
1.67952e-18
2.50426e-18
3.22928e-18
1.86804e-18
2.97186e-18
2.12119e-18
2.10802e-18
2.26854e-18
5.4706e-18
5.347e-18
1.48134e-18
1.68841e-18
2.37176e-18
2.42045e-18
1.20442e-18
1.46326e-18
1.05088e-18
1.06726e-18
2.55467e-18
2.77077e-18
1.569e-18
5.61702e-18
8.80788e-18
2.80789e-17
2.80031e-17
1.61111e-17
6.13915e-18
2.54623e-18
2.65434e-18
2.41053e-18
2.03786e-18
1.95917e-18
1.46712e-18
1.76733e-18
5.49838e-18
9.9353e-18
4.75908e-18
1.38132e-18
8.93689e-19
1.19578e-18
2.42783e-18
3.22259e-18
1.1575e-18
1.39427e-18
6.41975e-18
9.76498e-18
2.55984e-18
1.93253e-18
2.41876e-18
1.2931e-18
9.29378e-19
1.30602e-18
3.51797e-18
6.6301e-18
3.76056e-18
1.818e-18
2.18598e-18
3.06729e-18
4.60784e-18
5.88841e-18
4.72813e-18
2.60578e-18
1.42457e-18
9.6629e-19
9.7588e-19
1.06999e-18
6.41713e-19
9.30116e-19
1.37892e-18
1.58107e-18
6.89642e-19
2.12513e-18
3.74578e-18
3.17675e-18
4.31783e-18
2.737e-17
1.24894e-16
8.55063e-17
1.68067e-17
5.71733e-18
2.45549e-18
2.04627e-18
1.75644e-18
1.58213e-18
1.55957e-18
1.49975e-18
1.54559e-18
1.63161e-18
2.36138e-18
4.40332e-18
5.09982e-18
3.88625e-18
1.61342e-18
6.51711e-19
6.71308e-19
8.97801e-19
9.89246e-19
1.30305e-18
4.46831e-18
3.13545e-17
2.89247e-17
1.11322e-17
4.5697e-18
4.04044e-18
3.78813e-18
2.62648e-18
2.2194e-18
2.38762e-18
2.27447e-18
2.14314e-18
2.3671e-18
2.05688e-18
1.92255e-18
2.61249e-18
2.7278e-18
1.63531e-18
1.39443e-18
2.13817e-18
2.29435e-18
2.93886e-18
3.91005e-18
4.81495e-18
4.26456e-18
3.70966e-18
2.82776e-18
2.16267e-18
1.36075e-18
1.15332e-18
1.32619e-18
2.15702e-18
2.32739e-18
1.56243e-18
1.38251e-18
1.51643e-18
1.41417e-18
1.36019e-18
1.3048e-18
1.64879e-18
1.9457e-18
2.43495e-18
4.54111e-18
4.35556e-18
3.6373e-18
4.12315e-18
2.07655e-18
1.13338e-18
1.25894e-18
1.12623e-18
1.44407e-18
1.35728e-18
1.90452e-18
1.40118e-18
1.73213e-18
2.51311e-18
1.45585e-18
1.89799e-18
3.37672e-18
8.52043e-19
3.68158e-18
2.2129e-18
1.01832e-18
2.65763e-18
1.87864e-18
1.4442e-18
2.09834e-18
3.63742e-18
1.68869e-18
2.66686e-18
3.85708e-18
2.21462e-18
2.10523e-18
5.88549e-18
1.55e-18
3.64814e-18
1.77428e-18
4.80638e-18
1.00421e-18
8.22939e-19
2.71983e-18
1.04097e-18
3.64478e-18
1.07586e-18
2.29319e-18
3.64489e-18
1.52742e-18
3.83154e-18
6.01837e-18
3.30343e-18
2.14241e-18
4.19226e-18
6.6636e-18
3.15522e-18
6.00017e-18
3.89915e-18
2.07746e-18
3.90291e-18
2.46057e-18
2.59682e-18
1.6764e-18
1.32658e-18
1.48141e-18
2.03951e-18
2.45358e-18
2.81682e-18
6.15704e-18
2.59263e-18
2.3196e-18
3.17629e-18
2.91465e-18
3.09854e-18
1.30655e-18
2.09781e-18
2.5381e-18
1.72707e-18
1.73243e-18
2.22309e-18
2.85232e-18
2.75377e-18
2.70572e-18
2.40727e-18
6.22123e-18
1.82706e-18
1.45449e-18
1.57099e-18
3.28166e-18
6.07394e-18
2.60507e-18
1.64257e-18
1.76766e-18
2.44431e-18
3.10016e-18
3.41939e-18
5.4453e-18
4.2464e-18
5.94725e-18
1.85761e-18
2.02879e-18
2.51642e-18
3.84437e-18
1.47692e-18
1.78897e-18
3.66223e-18
1.53072e-18
1.32251e-18
9.87556e-19
2.18498e-18
1.09383e-18
3.40121e-18
2.75114e-18
1.07217e-18
1.64853e-18
2.78614e-18
2.87381e-18
3.97856e-18
5.53077e-18
2.71472e-18
3.54476e-18
4.04713e-18
3.7601e-18
1.70119e-18
2.94371e-18
2.22206e-18
3.84581e-18
3.78259e-18
1.81474e-18
1.53937e-18
3.32904e-18
1.89876e-18
1.22905e-18
2.12899e-18
1.07064e-18
9.97297e-19
1.93176e-18
2.38696e-18
2.35022e-18
1.78899e-18
1.79869e-18
3.0082e-18
1.90207e-18
2.87397e-18
4.05624e-18
2.79166e-18
2.4089e-18
1.65056e-18
2.50718e-18
3.73177e-18
2.2821e-18
2.38615e-18
1.86035e-18
1.35281e-18
2.4275e-18
2.05269e-18
2.47024e-18
3.06634e-18
2.66322e-18
2.11044e-18
1.59879e-18
1.72185e-18
2.18817e-18
1.86637e-18
1.57046e-18
1.63231e-18
1.49261e-18
2.12343e-18
2.27636e-18
1.53183e-18
2.01338e-18
3.7038e-18
4.0446e-18
2.4555e-18
2.35413e-18
2.10039e-18
2.64882e-18
2.86966e-18
1.99104e-18
2.07463e-18
3.7021e-18
6.3222e-18
2.90872e-18
3.02692e-18
4.16533e-18
2.5501e-18
2.41091e-18
2.38736e-18
2.07673e-18
1.86129e-18
3.01328e-18
1.97091e-18
2.44246e-18
5.67885e-18
4.98319e-18
1.67041e-18
2.77004e-18
2.37871e-18
1.88623e-18
1.73255e-18
1.40828e-18
2.82525e-18
2.78497e-18
2.43869e-18
2.26425e-18
2.25109e-18
2.27729e-18
2.24993e-18
3.5849e-18
5.39709e-18
4.11075e-18
3.16346e-18
2.42646e-18
1.46309e-18
8.63294e-19
1.97685e-18
3.79058e-18
3.39957e-18
1.85883e-18
1.85351e-18
1.4608e-18
9.96804e-19
1.32411e-18
2.12291e-18
2.03392e-18
2.88062e-18
3.48952e-18
5.83376e-18
1.62993e-17
4.36579e-17
7.09119e-18
2.72265e-18
2.09443e-18
3.32988e-18
5.31306e-18
8.06264e-18
1.02055e-17
9.7476e-18
5.95267e-18
3.41933e-18
2.63512e-18
2.4218e-18
2.64987e-18
3.17146e-18
3.25802e-18
2.85309e-18
2.21248e-18
1.81694e-18
1.81864e-18
1.7792e-18
1.36996e-18
1.18959e-18
1.30735e-18
1.48511e-18
1.35478e-18
1.3833e-18
1.62426e-18
1.61412e-18
1.20016e-18
8.40359e-19
9.00729e-19
1.2401e-18
1.73351e-18
2.28717e-18
2.29595e-18
2.13517e-18
1.69291e-18
1.9151e-18
2.79559e-18
2.01636e-18
1.4803e-18
2.24559e-18
2.83858e-18
1.41666e-18
1.83306e-18
2.46636e-18
1.43677e-18
1.09682e-18
1.35541e-18
2.38378e-18
2.75724e-18
1.9732e-18
2.65526e-18
2.33426e-18
4.23582e-18
6.39842e-18
3.69985e-17
8.03627e-17
1.90305e-17
5.86835e-18
1.90935e-18
1.94216e-18
2.32963e-18
2.1473e-18
1.74016e-18
1.56945e-18
1.59866e-18
2.2133e-18
3.25555e-18
2.72788e-18
1.45218e-18
1.10528e-18
1.34675e-18
1.827e-18
2.22227e-18
1.89992e-18
1.82615e-18
3.00927e-18
3.95706e-18
2.18389e-18
1.47625e-18
2.05747e-18
2.75243e-18
2.08769e-18
1.92881e-18
2.24202e-18
3.91982e-18
5.42829e-18
3.65999e-18
3.1151e-18
3.44469e-18
3.87091e-18
3.56138e-18
2.32885e-18
1.29539e-18
1.16095e-18
1.26234e-18
1.19331e-18
1.18977e-18
1.25574e-18
1.2924e-18
1.19227e-18
1.07604e-18
1.46946e-18
4.69487e-18
2.26186e-17
1.95609e-17
8.07447e-18
3.2838e-17
8.69564e-17
5.38878e-17
9.0313e-18
3.00554e-18
1.81472e-18
1.76907e-18
1.82941e-18
1.96512e-18
1.6625e-18
1.44249e-18
1.48547e-18
1.77596e-18
2.11875e-18
2.42384e-18
2.45685e-18
2.11223e-18
1.24347e-18
8.22206e-19
1.05752e-18
1.58653e-18
1.65765e-18
2.0079e-18
4.96377e-18
1.51079e-17
1.60653e-17
7.7342e-18
2.99757e-18
1.89654e-18
2.03721e-18
1.90165e-18
1.65388e-18
1.81283e-18
2.27464e-18
1.86374e-18
1.44339e-18
1.28619e-18
1.14876e-18
1.34241e-18
1.85466e-18
1.91064e-18
1.6622e-18
1.70141e-18
1.74905e-18
2.20042e-18
3.2874e-18
3.62417e-18
3.30276e-18
3.21374e-18
2.93153e-18
1.77902e-18
9.82617e-19
1.17691e-18
1.68634e-18
2.4211e-18
2.92869e-18
1.89841e-18
1.27764e-18
1.62066e-18
2.1899e-18
1.63901e-18
9.38429e-19
1.02091e-18
1.81598e-18
3.08007e-18
3.83359e-18
3.31015e-18
1.68866e-18
1.44483e-18
1.75909e-18
1.30289e-18
1.34728e-18
2.08671e-18
2.96332e-18
2.70373e-18
2.48936e-18
2.34643e-18
1.94003e-18
1.6166e-18
1.11724e-18
1.12159e-18
1.9945e-18
1.33531e-18
1.58257e-18
2.20939e-18
2.68886e-18
1.73709e-18
1.22285e-18
2.21986e-18
2.56455e-18
2.79643e-18
2.04229e-18
1.44508e-18
3.29071e-18
3.36637e-18
2.55272e-18
3.59741e-18
2.89032e-18
1.71611e-18
3.98487e-18
3.49286e-18
2.3239e-18
4.71956e-18
4.11727e-18
4.51726e-18
4.97738e-18
5.25777e-18
4.86404e-18
3.42169e-18
5.20391e-18
3.39266e-18
4.45775e-18
1.9923e-18
2.23382e-18
2.44587e-18
2.04046e-18
6.06235e-18
3.46968e-18
4.68007e-18
3.82342e-18
3.13361e-18
3.18598e-18
1.78151e-18
6.00466e-18
1.68872e-18
2.9951e-18
5.46169e-18
1.39573e-18
2.02079e-18
3.20218e-18
1.75151e-18
7.12828e-19
1.47659e-18
2.00808e-18
3.11303e-18
3.96697e-18
4.54555e-18
3.00186e-18
3.32646e-18
9.39469e-19
2.3393e-18
6.04182e-18
6.01364e-18
3.5875e-18
2.91199e-18
3.12915e-18
3.86308e-18
2.60783e-18
2.67194e-18
1.93738e-18
2.41732e-18
2.03971e-18
5.19427e-18
3.54923e-18
1.151e-18
3.29471e-18
2.57303e-18
1.83845e-18
1.70183e-18
2.49823e-18
2.38792e-18
3.92154e-18
2.97128e-18
4.95462e-18
2.17615e-18
1.82595e-18
2.24551e-18
2.76128e-18
2.66435e-18
2.57079e-18
3.41202e-18
3.20209e-18
1.0272e-18
1.35149e-18
1.99829e-18
3.87861e-18
6.07888e-18
3.6616e-18
1.69071e-18
3.35057e-18
2.05731e-18
1.06702e-18
4.43757e-18
3.47203e-18
2.55354e-18
2.23447e-18
5.12175e-18
5.30683e-18
4.90937e-18
4.91312e-18
2.64896e-18
4.75415e-18
1.8815e-18
3.42552e-18
2.49463e-18
2.16342e-18
1.88872e-18
3.52631e-18
1.48041e-18
1.63015e-18
2.8328e-18
5.25425e-18
2.66881e-18
3.41709e-18
4.25812e-18
3.16582e-18
4.22146e-18
4.18526e-18
2.8777e-18
2.33763e-18
2.58651e-18
2.62859e-18
1.9405e-18
3.35109e-18
2.41113e-18
1.74023e-18
2.11122e-18
2.95208e-18
3.23707e-18
4.36875e-18
3.71951e-18
2.00575e-18
1.97669e-18
2.05389e-18
2.52229e-18
1.33341e-18
2.87079e-18
3.71841e-18
3.43801e-18
2.11928e-18
1.82289e-18
2.2663e-18
2.13445e-18
3.05748e-18
2.48597e-18
2.91237e-18
3.04477e-18
1.80914e-18
2.54353e-18
2.3688e-18
1.96402e-18
2.13175e-18
2.72533e-18
1.21304e-18
2.15205e-18
3.40721e-18
3.61115e-18
4.31954e-18
2.81552e-18
1.84e-18
1.59311e-18
3.46898e-18
2.14528e-18
2.15022e-18
1.55464e-18
1.72579e-18
2.30028e-18
2.42077e-18
4.22971e-18
3.62792e-18
1.95158e-18
2.73501e-18
2.87472e-18
3.03121e-18
3.26463e-18
2.70941e-18
1.66689e-18
2.28163e-18
3.37406e-18
5.14326e-18
7.36714e-18
6.23476e-18
3.67731e-18
1.85418e-18
2.34897e-18
3.2358e-18
2.54162e-18
2.63504e-18
2.60359e-18
1.58167e-18
1.4775e-18
2.24017e-18
2.06066e-18
8.84857e-19
1.02719e-18
2.48613e-18
3.32221e-18
4.03849e-18
5.17717e-18
2.22676e-17
3.78834e-17
5.74595e-18
2.64163e-18
1.80753e-18
2.76843e-18
3.45874e-18
3.33713e-18
3.20865e-18
3.59327e-18
3.85456e-18
3.95865e-18
3.57852e-18
2.8074e-18
2.36497e-18
2.30593e-18
2.86449e-18
2.73835e-18
2.46195e-18
2.01454e-18
1.88715e-18
1.84984e-18
1.65207e-18
1.44101e-18
1.62409e-18
2.12058e-18
2.21217e-18
1.77807e-18
1.51224e-18
1.2969e-18
1.11289e-18
1.0449e-18
1.28591e-18
1.82877e-18
2.4714e-18
2.59438e-18
2.48104e-18
2.24684e-18
1.7999e-18
1.41563e-18
1.33544e-18
1.42316e-18
1.47526e-18
1.7077e-18
1.49714e-18
9.06496e-19
1.01009e-18
1.4113e-18
1.42539e-18
1.51894e-18
1.65134e-18
1.26742e-18
1.16986e-18
1.1492e-18
1.19201e-18
2.41144e-18
3.5296e-18
6.28147e-18
2.76199e-17
7.66681e-17
2.81479e-17
5.78997e-18
1.73904e-18
1.42655e-18
1.73212e-18
1.84648e-18
1.68868e-18
1.65101e-18
1.9154e-18
2.47134e-18
2.86279e-18
2.7682e-18
1.94581e-18
1.27524e-18
1.43152e-18
1.94876e-18
2.42691e-18
2.43696e-18
1.93576e-18
1.87177e-18
2.6811e-18
3.70191e-18
3.00229e-18
3.80501e-18
4.42053e-18
2.54376e-18
1.03166e-18
9.65897e-19
1.8415e-18
3.91161e-18
4.84821e-18
4.05858e-18
2.57263e-18
2.16392e-18
1.85933e-18
1.67706e-18
1.6429e-18
1.74655e-18
1.51059e-18
1.18433e-18
1.15463e-18
1.52177e-18
1.75314e-18
1.18272e-18
1.06145e-18
1.60839e-18
5.1271e-18
2.71677e-17
5.0227e-17
1.91363e-17
7.36612e-18
7.03775e-18
7.15642e-18
4.64748e-18
3.24096e-18
1.72355e-18
1.74876e-18
2.10888e-18
2.16695e-18
1.98854e-18
1.76262e-18
1.68785e-18
1.79233e-18
1.90474e-18
1.95878e-18
2.07057e-18
2.16061e-18
1.8725e-18
1.46712e-18
1.27995e-18
1.19876e-18
1.40826e-18
2.37333e-18
4.82643e-18
8.5306e-18
5.42164e-18
3.37186e-18
1.79299e-18
1.39806e-18
1.42907e-18
1.54895e-18
1.73841e-18
1.90503e-18
1.8766e-18
1.84742e-18
1.93744e-18
2.13467e-18
2.79198e-18
2.79975e-18
2.81922e-18
3.02857e-18
3.18869e-18
2.27694e-18
1.50866e-18
1.41628e-18
1.68566e-18
2.38901e-18
3.47638e-18
3.85064e-18
2.39048e-18
1.50806e-18
1.17159e-18
1.04768e-18
1.14047e-18
1.24176e-18
1.35035e-18
1.63294e-18
1.58541e-18
1.65173e-18
1.74126e-18
1.88469e-18
2.13514e-18
2.46529e-18
2.24901e-18
2.06487e-18
2.07121e-18
2.09393e-18
2.60496e-18
1.69138e-18
1.35142e-18
1.59629e-18
1.38106e-18
1.76538e-18
2.1575e-18
1.78712e-18
1.88546e-18
1.76808e-18
1.70231e-18
1.78909e-18
1.11002e-18
7.5868e-19
1.35582e-18
2.42328e-18
2.20939e-18
8.7168e-19
2.90696e-18
4.17436e-18
2.41108e-18
1.37625e-18
1.6085e-18
2.45286e-18
1.47078e-18
2.80766e-18
1.9808e-18
1.26765e-18
1.11789e-18
2.28127e-18
1.84187e-18
1.78895e-18
1.84796e-18
2.69917e-18
3.76955e-18
4.64195e-18
3.4531e-18
3.79651e-18
4.95415e-18
2.69115e-18
2.38385e-18
2.24635e-18
1.451e-18
3.30382e-18
2.72237e-18
1.4918e-18
1.65395e-18
5.76648e-19
4.55507e-18
7.05944e-18
1.94993e-18
1.3466e-18
4.0016e-18
3.80009e-18
5.65133e-18
6.42351e-18
2.19458e-18
1.78214e-18
1.18838e-18
1.92813e-18
1.95273e-18
1.10931e-18
3.43716e-18
5.09517e-18
2.62632e-18
3.4013e-18
2.77609e-18
1.40032e-18
2.47559e-18
4.07209e-18
2.95677e-18
1.28545e-18
2.09223e-18
3.1811e-18
5.29271e-18
3.32572e-18
2.30883e-18
3.89823e-18
2.053e-18
1.63614e-18
1.91618e-18
2.8179e-18
2.10384e-18
4.00166e-18
6.78322e-18
2.93748e-18
3.17045e-18
3.10911e-18
2.42901e-18
1.82602e-18
2.70024e-18
3.07594e-18
1.81946e-18
2.80541e-18
2.70043e-18
1.65417e-18
2.26792e-18
2.18979e-18
2.00064e-18
1.28784e-18
1.61614e-18
3.32418e-18
2.83824e-18
3.69288e-18
2.48866e-18
3.15574e-18
1.88993e-18
1.97674e-18
3.52388e-18
2.98778e-18
4.35688e-18
4.30307e-18
2.41394e-18
2.76739e-18
2.8857e-18
5.24415e-18
1.60201e-18
2.14779e-18
2.67711e-18
2.23582e-18
3.02698e-18
3.85283e-18
2.48337e-18
2.60659e-18
2.62044e-18
2.64839e-18
2.2058e-18
2.03694e-18
2.67903e-18
2.55301e-18
2.14109e-18
3.19204e-18
2.8197e-18
1.94336e-18
1.79282e-18
3.7823e-18
4.42093e-18
3.17231e-18
1.75447e-18
4.33035e-18
4.26334e-18
4.48073e-18
3.51798e-18
2.21744e-18
2.54144e-18
2.49451e-18
1.97071e-18
2.2423e-18
4.27029e-18
5.72467e-18
3.67189e-18
1.34906e-18
1.96501e-18
4.66927e-18
3.02656e-18
2.24744e-18
2.89122e-18
2.33099e-18
2.49204e-18
2.78147e-18
4.33233e-18
3.00228e-18
1.72773e-18
1.85833e-18
2.34678e-18
2.44517e-18
1.89454e-18
3.12682e-18
3.25035e-18
2.81882e-18
2.43977e-18
2.64642e-18
1.99291e-18
2.39255e-18
3.75282e-18
3.35609e-18
3.052e-18
2.56354e-18
3.27757e-18
2.16057e-18
2.75866e-18
3.17697e-18
1.93196e-18
1.78862e-18
2.59615e-18
2.33062e-18
2.02514e-18
2.40566e-18
3.03032e-18
3.51752e-18
3.43333e-18
3.68988e-18
3.09696e-18
1.58505e-18
1.49587e-18
2.85715e-18
4.22237e-18
4.60207e-18
4.24029e-18
2.11597e-18
1.22823e-18
2.30772e-18
4.93828e-18
5.6652e-18
4.26694e-18
3.90348e-18
1.87285e-18
1.97226e-18
1.99252e-18
1.79248e-18
2.55582e-18
2.44551e-18
2.09029e-18
1.9804e-18
1.95189e-18
2.12144e-18
2.68922e-18
2.71902e-18
1.81138e-18
1.62963e-18
1.90263e-18
5.88225e-18
1.43024e-17
1.29484e-17
5.60145e-18
2.49607e-18
1.30689e-18
2.03575e-18
2.65334e-18
2.35998e-18
1.72263e-18
1.55853e-18
1.97428e-18
2.75629e-18
3.41518e-18
3.91079e-18
3.30858e-18
3.10912e-18
3.01194e-18
3.37181e-18
2.85115e-18
2.35316e-18
1.86934e-18
1.71116e-18
1.89995e-18
2.2775e-18
2.95626e-18
3.77986e-18
3.65719e-18
2.60903e-18
1.80073e-18
1.47701e-18
1.58143e-18
1.81432e-18
2.11579e-18
2.27302e-18
2.38236e-18
2.14076e-18
2.0624e-18
1.93546e-18
1.57034e-18
1.3612e-18
1.47556e-18
1.70596e-18
1.87232e-18
1.80106e-18
1.90957e-18
1.49622e-18
1.08179e-18
1.39153e-18
2.44348e-18
1.84226e-18
1.38641e-18
1.11677e-18
1.30224e-18
2.43489e-18
3.92136e-18
3.95891e-18
4.69608e-18
8.24904e-18
2.54302e-17
4.46751e-17
1.90374e-17
5.21166e-18
1.8912e-18
1.35891e-18
1.40738e-18
1.50283e-18
1.61979e-18
1.76754e-18
2.00855e-18
2.24996e-18
2.34828e-18
2.38582e-18
2.16417e-18
1.65435e-18
1.37804e-18
1.39481e-18
1.6326e-18
2.00612e-18
1.91644e-18
1.85879e-18
2.63371e-18
6.42839e-18
1.03809e-17
6.11642e-18
3.1925e-18
1.88686e-18
1.09205e-18
1.28563e-18
2.28479e-18
4.41721e-18
5.27982e-18
3.75807e-18
2.4287e-18
1.60039e-18
1.39461e-18
1.4441e-18
1.53495e-18
1.38819e-18
1.27217e-18
1.48106e-18
2.23059e-18
2.47287e-18
1.69438e-18
1.09086e-18
1.0236e-18
1.51642e-18
4.02079e-18
2.04036e-17
5.06384e-17
2.19194e-17
4.62586e-18
2.57945e-18
2.02986e-18
2.56254e-18
2.61175e-18
2.90719e-18
3.18068e-18
2.51574e-18
2.41303e-18
2.07875e-18
1.58874e-18
1.21613e-18
1.28032e-18
1.67463e-18
2.34724e-18
3.2739e-18
4.46017e-18
3.89723e-18
3.18596e-18
2.23804e-18
2.12681e-18
2.60623e-18
3.76658e-18
5.83724e-18
7.92704e-18
5.76562e-18
3.59304e-18
2.19565e-18
1.47548e-18
1.425e-18
1.65927e-18
2.15976e-18
2.84335e-18
2.76863e-18
2.12934e-18
1.62627e-18
1.88338e-18
2.51261e-18
3.01735e-18
2.41386e-18
1.98247e-18
2.27244e-18
2.1604e-18
1.55859e-18
1.57953e-18
2.10727e-18
2.93178e-18
3.17504e-18
2.41447e-18
1.44073e-18
1.14931e-18
1.19056e-18
1.19571e-18
1.11331e-18
1.37321e-18
1.98185e-18
2.02325e-18
1.89416e-18
1.54924e-18
1.55852e-18
1.91172e-18
2.20444e-18
2.09684e-18
2.12303e-18
2.04083e-18
2.03632e-18
2.41869e-18
2.8718e-18
3.24991e-18
3.65017e-18
3.13753e-18
2.69378e-18
2.19515e-18
1.64157e-18
1.51625e-18
1.65292e-18
1.64589e-18
1.18088e-18
5.82776e-19
7.7947e-19
1.82452e-18
1.48994e-18
1.69065e-18
2.58264e-18
2.73387e-18
2.2434e-18
3.09201e-18
2.92667e-18
1.20912e-18
1.28167e-18
2.13625e-18
3.99896e-18
2.90506e-18
2.01772e-18
2.39362e-18
2.15852e-18
2.79279e-18
1.28712e-18
9.06595e-19
2.39092e-18
2.56369e-18
3.0382e-18
7.53854e-19
3.92075e-18
1.3192e-18
1.21314e-18
4.72426e-18
3.17269e-18
1.96234e-18
3.06533e-18
1.35557e-18
1.59452e-18
8.32373e-19
1.92752e-18
3.46454e-18
1.78116e-18
4.86296e-18
4.23754e-18
4.56459e-18
6.06214e-18
1.88604e-18
2.22637e-18
2.89396e-18
4.62153e-18
4.09481e-18
4.44267e-18
2.16474e-18
1.16085e-18
1.92252e-18
1.91842e-18
9.21198e-19
2.09796e-18
1.58866e-18
6.43588e-18
2.31084e-18
2.34671e-18
2.7238e-18
2.81275e-18
4.17452e-18
2.08193e-18
2.17532e-18
3.20974e-18
4.5393e-18
3.7467e-18
2.3935e-18
2.63632e-18
1.71022e-18
1.93624e-18
2.79021e-18
2.71775e-18
2.32584e-18
2.56105e-18
3.42555e-18
6.34628e-18
3.69388e-18
1.92885e-18
3.06992e-18
3.32979e-18
2.16222e-18
3.04559e-18
3.22195e-18
2.4104e-18
1.90812e-18
2.50705e-18
2.05702e-18
1.69694e-18
3.1289e-18
1.79655e-18
2.78216e-18
5.45319e-18
3.50147e-18
2.75088e-18
4.06582e-18
5.77385e-18
3.37254e-18
4.14089e-18
3.93028e-18
2.2052e-18
2.86863e-18
5.08752e-18
3.24254e-18
2.27891e-18
1.85382e-18
2.01608e-18
3.15708e-18
3.30936e-18
2.3697e-18
2.49851e-18
3.74646e-18
4.22821e-18
3.7692e-18
5.68548e-18
4.48255e-18
2.77637e-18
1.91153e-18
3.31387e-18
4.83237e-18
2.47421e-18
2.01073e-18
2.23364e-18
1.21033e-18
1.47798e-18
2.36395e-18
1.26515e-18
1.66748e-18
2.56845e-18
4.26094e-18
4.9781e-18
2.45388e-18
1.7452e-18
1.59529e-18
2.65272e-18
4.0242e-18
3.79809e-18
2.25563e-18
1.44696e-18
1.71847e-18
2.71978e-18
2.17778e-18
1.49601e-18
1.44418e-18
1.87399e-18
4.07555e-18
3.96666e-18
3.31084e-18
4.8517e-18
3.26997e-18
4.71341e-18
4.16338e-18
3.2189e-18
3.5819e-18
3.23083e-18
2.80503e-18
2.52653e-18
3.10645e-18
3.71085e-18
2.26748e-18
1.56436e-18
2.43688e-18
4.19859e-18
2.85017e-18
2.42218e-18
2.13233e-18
2.27238e-18
2.10572e-18
2.26652e-18
3.35564e-18
3.55599e-18
2.24372e-18
2.13039e-18
3.16693e-18
3.58216e-18
2.89497e-18
1.81005e-18
1.98215e-18
2.32747e-18
3.26846e-18
2.73256e-18
2.66124e-18
1.92092e-18
1.88207e-18
2.76733e-18
3.27061e-18
4.97536e-18
5.74767e-18
4.91445e-18
3.13406e-18
2.67914e-18
2.4736e-18
2.27254e-18
2.30109e-18
2.26877e-18
1.69124e-18
1.56192e-18
1.34438e-18
1.38309e-18
2.52659e-18
3.39102e-18
2.65182e-18
1.78546e-18
2.30248e-18
2.29498e-18
2.66362e-18
3.86798e-18
3.14221e-18
2.12532e-18
2.41209e-18
3.53255e-18
1.0772e-17
2.33411e-17
1.48536e-17
5.50428e-18
2.19148e-18
1.2112e-18
1.96404e-18
2.58657e-18
2.88292e-18
2.70998e-18
1.95433e-18
1.84044e-18
2.31648e-18
3.07552e-18
3.63497e-18
4.14471e-18
3.66692e-18
3.49742e-18
3.16823e-18
3.18084e-18
2.32907e-18
2.00213e-18
1.78766e-18
1.9479e-18
2.33846e-18
2.73957e-18
3.06634e-18
3.22102e-18
2.6448e-18
2.17253e-18
1.84786e-18
1.88797e-18
2.13131e-18
2.40451e-18
2.40556e-18
1.91151e-18
1.23467e-18
1.06398e-18
1.25104e-18
1.58258e-18
1.72665e-18
1.61002e-18
1.55912e-18
1.80468e-18
2.10353e-18
2.07606e-18
1.42959e-18
9.1907e-19
1.35803e-18
2.60306e-18
3.1023e-18
1.78601e-18
1.29904e-18
1.67817e-18
2.65259e-18
3.85975e-18
3.52807e-18
3.5953e-18
6.66241e-18
1.52239e-17
1.52204e-17
9.97648e-18
6.06821e-18
3.28981e-18
2.09942e-18
1.64303e-18
1.51104e-18
1.63704e-18
2.02039e-18
2.2785e-18
2.23468e-18
2.09257e-18
1.91213e-18
1.72083e-18
1.5195e-18
1.57665e-18
1.90975e-18
2.71159e-18
3.33072e-18
2.88818e-18
2.41587e-18
3.66208e-18
7.42799e-18
1.25636e-17
7.9341e-18
2.9364e-18
1.59968e-18
1.24925e-18
1.45542e-18
2.09549e-18
3.51434e-18
5.03492e-18
4.00723e-18
2.61124e-18
1.67816e-18
1.63699e-18
1.9634e-18
2.44246e-18
2.47327e-18
2.34041e-18
2.21062e-18
2.06829e-18
1.80239e-18
1.64107e-18
1.70012e-18
1.89079e-18
2.24348e-18
3.79669e-18
1.24299e-17
3.43693e-17
1.22348e-17
4.7293e-18
2.16225e-18
2.04644e-18
2.03509e-18
2.15382e-18
2.02244e-18
2.47811e-18
3.15006e-18
2.56579e-18
2.15637e-18
1.73799e-18
1.42061e-18
1.44807e-18
1.89109e-18
2.80969e-18
4.1659e-18
5.34784e-18
5.27555e-18
3.83665e-18
2.40684e-18
1.37326e-18
1.30854e-18
1.70284e-18
2.52243e-18
3.28415e-18
3.12235e-18
2.29466e-18
1.66942e-18
1.44496e-18
1.50565e-18
1.93131e-18
2.53227e-18
2.69712e-18
2.47762e-18
2.23789e-18
1.83042e-18
1.42864e-18
1.59516e-18
2.14209e-18
2.68651e-18
2.78117e-18
1.99051e-18
1.82261e-18
1.51812e-18
1.41211e-18
1.68152e-18
1.91828e-18
1.80671e-18
1.94794e-18
2.27454e-18
2.15745e-18
1.65466e-18
1.48407e-18
1.76419e-18
2.37017e-18
2.46702e-18
2.3637e-18
2.75529e-18
2.8951e-18
2.26998e-18
1.86737e-18
1.90641e-18
2.09962e-18
2.10543e-18
1.92949e-18
1.85715e-18
2.42564e-18
2.87684e-18
3.1564e-18
3.70719e-18
3.28925e-18
1.97479e-18
1.37454e-18
1.62161e-18
2.27039e-18
2.6434e-18
1.78697e-18
1.76559e-18
1.87001e-18
1.60563e-18
1.54367e-18
2.3159e-18
1.5815e-18
1.4451e-18
1.96894e-18
2.39881e-18
1.95794e-18
8.66598e-19
1.21015e-18
1.14281e-18
5.80309e-19
1.17505e-18
2.19104e-18
1.90504e-18
2.59718e-18
3.01891e-18
1.6663e-18
2.32783e-18
1.25641e-18
1.84949e-18
6.2518e-18
6.15601e-18
3.21957e-18
1.87547e-18
2.37111e-18
1.79959e-18
1.95483e-18
2.52549e-18
3.48337e-18
4.07358e-18
8.47484e-18
3.86884e-18
3.2078e-18
2.11693e-18
2.39336e-18
1.73401e-18
3.47722e-18
4.46018e-18
3.44367e-18
2.27067e-18
2.3785e-18
1.66038e-18
2.56602e-18
1.96517e-18
5.28192e-18
7.98738e-18
2.53537e-18
1.85672e-18
2.0749e-18
4.13637e-18
4.33553e-18
2.13491e-18
3.65795e-18
2.38732e-18
4.63649e-18
3.2073e-18
3.15333e-18
1.41505e-18
2.33937e-18
2.20654e-18
5.25121e-18
4.84976e-18
4.15457e-18
2.04964e-18
2.59241e-18
4.09431e-18
3.72464e-18
1.92643e-18
2.05814e-18
2.83203e-18
1.80839e-18
1.61246e-18
2.44184e-18
2.2785e-18
3.90857e-18
4.74854e-18
2.25459e-18
3.24459e-18
4.00084e-18
2.44029e-18
2.34818e-18
3.1553e-18
2.07055e-18
1.96215e-18
1.74106e-18
1.53502e-18
2.41575e-18
3.92404e-18
3.61172e-18