/*--------------------------------*- C++ -*----------------------------------*\
  =========                 |
  \\      /  F ield         | OpenFOAM: The Open Source CFD Toolbox
   \\    /   O peration     | Website:  https://openfoam.org
    \\  /    A nd           | Version:  7
     \\/     M anipulation  |
\*---------------------------------------------------------------------------*/
FoamFile
{
    version     2.0;
    format      ascii;
    class       volScalarField;
    location    "4500";
    object      mu1;
}
// * * * * * * * * * * * * * * * * * * * * * * * * * * * * * * * * * * * * * //

dimensions      [1 -1 -1 0 0 0 0];

internalField   nonuniform List<scalar> 
160000
(
0.000723246
0.000720768
0.000718339
0.000715923
0.000713467
0.00071107
0.00070872
0.000706441
0.000704242
0.000701974
0.000699693
0.000697514
0.000695349
0.000693134
0.000691011
0.000688974
0.00068698
0.000685013
0.000683002
0.000680998
0.000679084
0.000677229
0.000675389
0.000673562
0.000671802
0.000670057
0.000668251
0.000666478
0.000664754
0.000663084
0.000661494
0.000659927
0.000658318
0.000656736
0.000655244
0.000653746
0.000652219
0.000650711
0.000649277
0.000647881
0.000646485
0.000645131
0.000643772
0.000642442
0.000641129
0.000639787
0.000638499
0.000637299
0.000636111
0.000634925
0.000633763
0.000632567
0.000631383
0.000630256
0.000629134
0.000628048
0.000626978
0.00062594
0.000624965
0.000623995
0.000622976
0.000621972
0.00062104
0.000620136
0.000619265
0.000618375
0.000617478
0.000616598
0.000615757
0.000614979
0.000614167
0.000613351
0.000612574
0.00061181
0.000611072
0.000610348
0.000609639
0.000608953
0.000608277
0.000607611
0.000606958
0.000606299
0.000605668
0.000605069
0.000604476
0.000603889
0.000603322
0.000602784
0.000602262
0.000601735
0.000601232
0.00060074
0.000600238
0.000599754
0.000599299
0.000598873
0.000598455
0.000598043
0.000597644
0.000597262
0.000596888
0.000596528
0.000596175
0.000595821
0.000595489
0.000595166
0.000594858
0.000594564
0.00059427
0.000593991
0.000593722
0.000593475
0.000593239
0.000593009
0.000592795
0.000592587
0.000592389
0.0005922
0.000592013
0.000591835
0.000591672
0.000591524
0.000591385
0.000591252
0.000591129
0.000591012
0.000590904
0.00059081
0.000590726
0.00059065
0.000590583
0.000590526
0.000590476
0.000590431
0.000590395
0.000590369
0.000590352
0.000590343
0.000590341
0.000590348
0.000590362
0.000590385
0.000590415
0.000590452
0.0005905
0.000590554
0.000590615
0.000590683
0.000590757
0.000590837
0.000590923
0.000591017
0.000591117
0.000591226
0.000591342
0.000591463
0.000591594
0.000591732
0.000591876
0.000592025
0.000592179
0.00059234
0.000592506
0.000592678
0.000592851
0.000593029
0.000593223
0.000593419
0.00059362
0.000593826
0.000594041
0.000594266
0.000594482
0.000594705
0.000594939
0.000595169
0.000595406
0.000595652
0.00059591
0.000596179
0.000596436
0.000596698
0.000596971
0.000597239
0.000597517
0.000597805
0.000598101
0.000598402
0.000598708
0.000599032
0.000599367
0.000599682
0.000599978
0.000600275
0.00060059
0.000600903
0.000601228
0.000601613
0.000602006
0.000602356
0.000602693
0.000603021
0.000603344
0.00060367
0.00060401
0.000604374
0.000604755
0.000605126
0.000605481
0.000605834
0.000606189
0.000606549
0.000606908
0.000607266
0.000607628
0.000607994
0.000608356
0.000608722
0.000609107
0.000609502
0.000609892
0.000610276
0.000610644
0.000611006
0.000611379
0.000611764
0.000612167
0.000612565
0.000612961
0.000613367
0.000613749
0.000614133
0.000614531
0.000614938
0.000615349
0.000615758
0.000616161
0.000616563
0.000616961
0.000617356
0.000617753
0.000618144
0.000618546
0.000618959
0.00061938
0.000619824
0.0006203
0.000620792
0.000621295
0.00062182
0.000622268
0.000622656
0.000623035
0.000623412
0.000623796
0.000624193
0.000624595
0.000624984
0.000625373
0.000625804
0.000626284
0.000626729
0.000627123
0.000627501
0.000627885
0.000628293
0.000628717
0.000629118
0.000629521
0.000629971
0.000630422
0.000630821
0.000631208
0.000631598
0.000631974
0.000632344
0.000632728
0.000633151
0.000633583
0.000633984
0.000634364
0.000634742
0.000635132
0.000635532
0.000635935
0.000636322
0.0006367
0.000637069
0.000637429
0.000637796
0.000638166
0.000638522
0.000638878
0.000639255
0.00063964
0.000640027
0.000640419
0.000640791
0.000641164
0.000641567
0.000642001
0.000642507
0.000642942
0.000643289
0.000643624
0.000643949
0.000644268
0.000644584
0.000644901
0.000645221
0.000645543
0.000645862
0.000646175
0.000646493
0.000646827
0.000647165
0.000647493
0.000647801
0.000648087
0.000648369
0.000648655
0.000648941
0.000649233
0.000649543
0.000649883
0.000650227
0.000650549
0.000650839
0.000651114
0.000651388
0.000651655
0.00065192
0.000652186
0.000652447
0.000652703
0.000652954
0.0006532
0.000653444
0.000653698
0.000653956
0.000654191
0.000654407
0.000654626
0.000654848
0.000655076
0.000655307
0.000655531
0.000655751
0.000655966
0.000656172
0.00065637
0.00065656
0.000656745
0.000656932
0.000657119
0.000657305
0.000657485
0.000657659
0.00065783
0.000657995
0.000658153
0.000658307
0.000658461
0.000658614
0.000658767
0.00065892
0.000659064
0.000659205
0.000659344
0.000659471
0.000659589
0.000659703
0.000659814
0.000659925
0.000660031
0.000660131
0.000660228
0.000660318
0.000660405
0.000660488
0.000660568
0.000660644
0.000660715
0.000660783
0.000660848
0.000660908
0.000660965
0.000661017
0.000661065
0.000661108
0.000661147
0.000661182
0.000661213
0.00066124
0.000661263
0.000661282
0.000661299
0.00066131
0.000661318
0.000661322
0.000723194
0.000720719
0.000718315
0.00071589
0.000713485
0.000711116
0.000708755
0.000706434
0.000704196
0.000701952
0.00069969
0.000697501
0.000695365
0.000693208
0.000691039
0.000688972
0.000687016
0.00068501
0.000682956
0.000680961
0.000679058
0.000677207
0.000675358
0.000673532
0.00067179
0.000670082
0.000668292
0.000666485
0.000664761
0.0006631
0.000661481
0.0006599
0.000658311
0.000656741
0.000655248
0.000653747
0.000652182
0.000650731
0.000649338
0.000647886
0.000646468
0.000645117
0.000643767
0.000642444
0.000641136
0.00063979
0.000638505
0.000637309
0.000636125
0.000634909
0.000633719
0.000632545
0.000631396
0.000630252
0.000629142
0.000628077
0.000626993
0.000625957
0.000624958
0.000623965
0.000622975
0.000621989
0.000621043
0.000620143
0.000619255
0.000618358
0.000617488
0.000616629
0.000615779
0.000614959
0.000614139
0.000613337
0.000612567
0.000611816
0.000611077
0.000610348
0.000609637
0.000608951
0.000608277
0.000607609
0.000606948
0.000606303
0.00060568
0.000605082
0.000604487
0.000603885
0.000603319
0.000602782
0.000602256
0.000601737
0.000601225
0.000600727
0.000600237
0.000599755
0.000599308
0.00059888
0.000598459
0.000598047
0.000597646
0.000597264
0.000596891
0.000596524
0.000596176
0.000595826
0.000595482
0.000595163
0.000594856
0.000594556
0.000594268
0.00059399
0.000593723
0.000593475
0.00059324
0.000593013
0.000592797
0.000592589
0.00059239
0.000592198
0.000592013
0.000591836
0.000591672
0.000591522
0.000591383
0.000591251
0.000591128
0.000591013
0.000590907
0.000590812
0.000590727
0.00059065
0.000590584
0.000590527
0.000590476
0.000590431
0.000590395
0.00059037
0.000590352
0.000590343
0.000590341
0.000590348
0.000590362
0.000590385
0.000590415
0.000590453
0.0005905
0.000590554
0.000590614
0.000590682
0.000590756
0.000590835
0.000590923
0.000591019
0.000591117
0.000591225
0.000591342
0.000591466
0.000591596
0.000591733
0.000591875
0.000592023
0.000592178
0.00059234
0.000592508
0.000592678
0.00059285
0.000593029
0.000593222
0.000593418
0.000593621
0.000593832
0.000594048
0.000594265
0.000594479
0.000594703
0.000594936
0.000595167
0.000595407
0.000595656
0.000595911
0.000596172
0.000596431
0.000596696
0.000596966
0.000597233
0.000597513
0.000597805
0.000598101
0.0005984
0.000598708
0.000599044
0.000599393
0.0005997
0.000599982
0.00060027
0.000600573
0.000600891
0.000601238
0.000601638
0.000602014
0.000602352
0.000602684
0.00060301
0.000603338
0.000603672
0.000604019
0.000604387
0.00060476
0.000605122
0.000605477
0.000605831
0.000606187
0.000606545
0.000606904
0.000607265
0.000607629
0.000607994
0.000608359
0.000608732
0.000609117
0.000609503
0.000609885
0.00061026
0.000610631
0.000611002
0.000611381
0.00061177
0.00061217
0.000612565
0.000612962
0.000613361
0.000613748
0.000614134
0.000614535
0.00061495
0.000615354
0.000615753
0.000616159
0.000616564
0.00061696
0.000617354
0.00061775
0.000618139
0.000618541
0.000618958
0.000619376
0.000619822
0.000620318
0.000620852
0.000621358
0.000621815
0.000622239
0.000622631
0.000623017
0.000623408
0.0006238
0.000624196
0.000624592
0.000624985
0.000625394
0.000625837
0.000626286
0.000626706
0.000627099
0.000627488
0.000627886
0.000628302
0.000628713
0.000629112
0.000629534
0.00062999
0.000630419
0.000630814
0.000631207
0.000631594
0.000631968
0.000632342
0.000632735
0.00063316
0.000633586
0.00063398
0.00063436
0.000634745
0.000635139
0.00063554
0.000635937
0.000636323
0.000636697
0.000637064
0.000637426
0.000637792
0.000638155
0.000638513
0.000638876
0.000639254
0.000639634
0.000640025
0.000640426
0.000640803
0.00064117
0.000641578
0.000642069
0.000642557
0.000642942
0.000643281
0.00064361
0.000643934
0.000644259
0.00064458
0.0006449
0.000645219
0.000645539
0.000645858
0.000646177
0.000646504
0.000646839
0.00064717
0.000647488
0.000647786
0.000648074
0.000648362
0.000648652
0.000648942
0.000649241
0.000649574
0.000649919
0.000650237
0.000650537
0.000650823
0.000651106
0.000651381
0.000651651
0.000651919
0.000652185
0.000652446
0.000652704
0.000652956
0.000653204
0.000653452
0.000653704
0.000653949
0.000654181
0.000654404
0.000654626
0.00065485
0.000655079
0.00065531
0.000655536
0.000655754
0.000655965
0.000656169
0.000656365
0.000656555
0.000656743
0.000656933
0.000657122
0.000657305
0.000657483
0.000657657
0.000657828
0.000657993
0.000658151
0.000658306
0.000658462
0.000658617
0.000658771
0.000658923
0.000659067
0.000659208
0.000659343
0.000659468
0.000659588
0.000659703
0.000659815
0.000659925
0.00066003
0.00066013
0.000660226
0.000660317
0.000660404
0.000660487
0.000660568
0.000660643
0.000660715
0.000660785
0.000660849
0.000660908
0.000660965
0.000661017
0.000661064
0.000661108
0.000661147
0.000661182
0.000661214
0.000661241
0.000661263
0.000661283
0.000661299
0.00066131
0.000661318
0.000661322
0.000723234
0.000720776
0.000718317
0.000715885
0.000713469
0.000711085
0.000708776
0.000706429
0.000704171
0.000701954
0.000699684
0.000697488
0.000695379
0.000693257
0.000691083
0.000688999
0.000686979
0.000684936
0.000682949
0.000680975
0.000679041
0.000677162
0.00067532
0.000673537
0.000671779
0.00067004
0.000668291
0.000666535
0.000664784
0.000663105
0.000661507
0.000659913
0.000658323
0.000656742
0.000655217
0.000653719
0.0006522
0.000650746
0.00064934
0.000647912
0.000646486
0.000645101
0.000643752
0.000642439
0.000641104
0.000639781
0.000638538
0.000637337
0.000636136
0.000634898
0.000633683
0.00063252
0.000631393
0.000630274
0.000629164
0.000628084
0.000627014
0.000625971
0.000624943
0.000623945
0.000622976
0.000622005
0.000621044
0.000620133
0.000619256
0.000618356
0.00061747
0.000616616
0.000615779
0.000614948
0.000614142
0.000613355
0.000612566
0.000611815
0.000611084
0.00061035
0.000609639
0.000608948
0.00060826
0.000607598
0.000606953
0.000606307
0.000605678
0.000605081
0.000604492
0.000603903
0.000603331
0.000602772
0.00060224
0.00060173
0.000601219
0.000600717
0.000600236
0.000599765
0.000599314
0.000598887
0.000598467
0.000598054
0.000597653
0.000597266
0.000596892
0.000596525
0.00059617
0.000595825
0.000595481
0.000595155
0.000594847
0.000594554
0.000594271
0.000593992
0.000593727
0.000593478
0.000593239
0.000593014
0.000592798
0.000592589
0.00059239
0.000592196
0.000592009
0.000591836
0.000591675
0.000591524
0.000591383
0.00059125
0.000591128
0.000591013
0.000590908
0.000590813
0.000590727
0.000590651
0.000590585
0.000590526
0.000590474
0.00059043
0.000590396
0.00059037
0.000590352
0.000590343
0.000590341
0.000590347
0.000590362
0.000590384
0.000590415
0.000590453
0.0005905
0.000590554
0.000590614
0.000590682
0.000590755
0.000590834
0.000590923
0.000591018
0.000591117
0.000591226
0.000591345
0.000591468
0.000591596
0.000591734
0.000591876
0.000592023
0.000592176
0.000592338
0.000592508
0.000592679
0.000592852
0.000593031
0.000593219
0.000593415
0.00059362
0.000593835
0.000594052
0.000594266
0.000594483
0.000594706
0.00059493
0.00059516
0.000595404
0.000595656
0.000595909
0.000596167
0.000596429
0.000596691
0.000596955
0.000597229
0.000597513
0.000597806
0.000598104
0.000598408
0.000598733
0.000599093
0.000599413
0.000599696
0.000599977
0.000600269
0.000600577
0.000600904
0.000601257
0.000601633
0.000601997
0.000602338
0.00060267
0.000603002
0.000603338
0.000603683
0.000604037
0.000604396
0.000604755
0.000605111
0.000605467
0.000605824
0.000606182
0.000606539
0.0006069
0.000607265
0.00060763
0.000607995
0.000608364
0.000608739
0.000609118
0.000609495
0.00060987
0.000610247
0.000610625
0.000611007
0.000611393
0.000611782
0.000612172
0.000612563
0.00061296
0.000613359
0.00061375
0.000614141
0.000614543
0.000614946
0.000615347
0.000615757
0.000616163
0.000616559
0.000616952
0.000617348
0.000617748
0.000618141
0.00061854
0.000618953
0.000619382
0.000619837
0.000620356
0.000620922
0.000621398
0.000621816
0.000622215
0.000622604
0.000623
0.0006234
0.000623797
0.000624194
0.000624593
0.000624997
0.000625418
0.000625849
0.000626272
0.00062668
0.00062708
0.000627481
0.000627888
0.000628298
0.000628707
0.000629125
0.000629562
0.000629996
0.000630408
0.000630806
0.000631202
0.000631589
0.000631966
0.000632347
0.000632747
0.000633168
0.000633584
0.00063398
0.000634367
0.000634755
0.000635149
0.000635544
0.000635931
0.00063631
0.000636685
0.000637055
0.00063742
0.000637784
0.000638145
0.000638504
0.000638865
0.000639236
0.000639625
0.000640047
0.000640476
0.000640851
0.000641222
0.000641663
0.000642141
0.000642554
0.000642914
0.000643255
0.000643589
0.000643921
0.00064425
0.000644575
0.000644894
0.000645213
0.000645535
0.000645859
0.000646186
0.000646516
0.000646845
0.000647166
0.000647472
0.000647769
0.000648063
0.000648358
0.000648654
0.000648959
0.000649281
0.00064961
0.00064993
0.000650233
0.000650524
0.00065081
0.000651095
0.000651373
0.000651645
0.000651916
0.000652184
0.000652446
0.000652704
0.000652958
0.000653207
0.000653456
0.000653705
0.000653946
0.000654177
0.000654402
0.000654626
0.000654853
0.000655084
0.000655313
0.000655536
0.000655753
0.000655963
0.000656163
0.000656358
0.000656551
0.000656743
0.000656935
0.000657123
0.000657303
0.00065748
0.000657656
0.000657828
0.000657992
0.00065815
0.000658306
0.000658463
0.000658621
0.000658778
0.000658927
0.000659069
0.000659208
0.00065934
0.000659465
0.000659586
0.000659704
0.000659817
0.000659926
0.00066003
0.000660131
0.000660226
0.000660316
0.000660402
0.000660486
0.000660568
0.000660643
0.000660715
0.000660785
0.00066085
0.000660909
0.000660964
0.000661016
0.000661065
0.000661109
0.000661148
0.000661183
0.000661214
0.000661241
0.000661264
0.000661284
0.000661299
0.00066131
0.000661319
0.000661322
0.000723241
0.000720768
0.00071831
0.000715861
0.000713438
0.000711048
0.00070873
0.000706414
0.000704127
0.000701877
0.000699663
0.000697531
0.000695401
0.000693266
0.000691112
0.000689014
0.000686979
0.000684941
0.000682944
0.000680959
0.000679049
0.000677153
0.000675308
0.000673548
0.00067174
0.000669994
0.00066829
0.000666523
0.000664776
0.00066313
0.000661531
0.00065994
0.00065836
0.000656775
0.000655204
0.000653687
0.000652196
0.000650763
0.000649365
0.000647917
0.000646469
0.000645075
0.000643734
0.000642423
0.000641104
0.000639806
0.000638556
0.000637336
0.000636119
0.000634906
0.000633696
0.000632496
0.000631377
0.000630274
0.000629156
0.000628075
0.000627024
0.000625987
0.000624964
0.00062396
0.000622977
0.000621997
0.000621042
0.000620142
0.000619258
0.000618366
0.000617482
0.000616619
0.000615767
0.000614923
0.000614123
0.000613356
0.000612587
0.000611829
0.00061107
0.000610324
0.000609623
0.000608935
0.000608252
0.000607604
0.000606959
0.000606309
0.000605686
0.000605093
0.000604502
0.000603907
0.000603331
0.000602771
0.000602239
0.00060172
0.000601214
0.000600722
0.000600237
0.00059977
0.000599323
0.000598885
0.000598462
0.00059806
0.000597665
0.000597271
0.000596891
0.000596526
0.000596166
0.000595817
0.000595478
0.00059515
0.000594842
0.000594551
0.000594269
0.000593993
0.000593732
0.000593482
0.000593241
0.000593014
0.000592797
0.000592589
0.00059239
0.000592196
0.000592008
0.000591836
0.000591676
0.000591525
0.000591383
0.000591251
0.000591129
0.000591013
0.000590907
0.000590812
0.000590727
0.000590651
0.000590584
0.000590525
0.000590473
0.000590431
0.000590396
0.00059037
0.000590352
0.000590343
0.000590341
0.000590347
0.000590362
0.000590384
0.000590414
0.000590452
0.000590499
0.000590553
0.000590614
0.000590681
0.000590754
0.000590834
0.000590923
0.000591018
0.000591119
0.000591227
0.000591344
0.000591466
0.000591596
0.000591734
0.000591874
0.000592021
0.000592177
0.000592341
0.00059251
0.000592682
0.000592853
0.000593029
0.000593217
0.000593415
0.000593625
0.00059384
0.000594053
0.000594263
0.000594477
0.000594701
0.00059493
0.000595163
0.000595405
0.000595651
0.0005959
0.000596157
0.000596423
0.000596686
0.00059695
0.000597227
0.000597521
0.000597823
0.000598126
0.000598443
0.000598791
0.00059911
0.000599399
0.000599684
0.000599975
0.00060028
0.000600594
0.000600918
0.000601259
0.000601615
0.000601971
0.000602318
0.000602658
0.000602996
0.000603338
0.000603688
0.000604043
0.000604397
0.00060475
0.000605102
0.000605457
0.000605815
0.000606172
0.000606532
0.000606898
0.000607267
0.000607633
0.000607998
0.000608366
0.000608738
0.000609112
0.000609487
0.000609864
0.000610245
0.000610628
0.000611013
0.000611399
0.000611787
0.000612175
0.000612564
0.000612959
0.000613356
0.000613753
0.00061415
0.000614544
0.00061494
0.000615347
0.000615757
0.00061616
0.000616559
0.000616955
0.000617351
0.000617748
0.00061814
0.00061854
0.00061896
0.000619399
0.000619882
0.000620444
0.000620968
0.000621401
0.000621799
0.000622189
0.000622584
0.000622986
0.000623387
0.000623788
0.000624189
0.000624595
0.000625008
0.000625427
0.000625847
0.000626258
0.000626663
0.000627069
0.000627477
0.000627887
0.000628295
0.000628706
0.000629131
0.000629573
0.000630002
0.00063041
0.000630811
0.000631206
0.000631587
0.000631963
0.00063235
0.000632757
0.000633176
0.000633589
0.000633985
0.00063437
0.000634756
0.000635145
0.000635534
0.00063592
0.000636301
0.000636676
0.000637046
0.000637412
0.000637777
0.000638136
0.000638492
0.000638855
0.000639237
0.000639661
0.000640127
0.000640555
0.000640924
0.000641295
0.000641697
0.000642112
0.000642512
0.000642883
0.000643232
0.000643573
0.00064391
0.00064424
0.000644565
0.000644886
0.000645208
0.000645532
0.00064586
0.00064619
0.00064652
0.000646845
0.000647159
0.000647464
0.000647761
0.000648057
0.000648357
0.000648668
0.000648993
0.000649314
0.000649625
0.000649927
0.000650221
0.000650511
0.0006508
0.000651086
0.000651368
0.000651643
0.000651912
0.000652178
0.000652441
0.000652703
0.000652963
0.000653214
0.000653462
0.000653707
0.000653947
0.000654177
0.000654403
0.000654628
0.000654856
0.000655086
0.000655315
0.000655537
0.00065575
0.000655956
0.000656157
0.000656354
0.000656549
0.000656743
0.000656934
0.000657121
0.000657301
0.000657478
0.000657653
0.000657824
0.00065799
0.000658152
0.000658309
0.000658466
0.000658623
0.000658778
0.000658929
0.000659071
0.000659209
0.000659341
0.000659466
0.000659588
0.000659705
0.000659818
0.000659927
0.00066003
0.000660129
0.000660225
0.000660314
0.0006604
0.000660486
0.000660568
0.000660643
0.000660715
0.000660786
0.000660851
0.000660909
0.000660964
0.000661017
0.000661065
0.000661109
0.000661149
0.000661184
0.000661215
0.000661242
0.000661265
0.000661284
0.000661299
0.000661311
0.000661319
0.000661323
0.000723258
0.000720798
0.000718308
0.000715828
0.000713416
0.000711023
0.000708704
0.000706399
0.000704092
0.000701866
0.00069967
0.000697577
0.000695466
0.000693212
0.000691053
0.000689026
0.000687006
0.00068498
0.000682979
0.000680955
0.000679004
0.000677127
0.000675309
0.000673536
0.000671745
0.000670014
0.000668305
0.000666533
0.000664806
0.000663136
0.000661489
0.000659916
0.000658367
0.000656785
0.000655202
0.000653695
0.000652239
0.000650784
0.00064932
0.000647867
0.000646464
0.000645074
0.00064372
0.000642419
0.000641124
0.000639833
0.000638584
0.000637361
0.00063611
0.000634878
0.000633681
0.000632505
0.00063137
0.000630263
0.000629167
0.000628076
0.000627019
0.000625985
0.000624958
0.000623961
0.000622981
0.000622007
0.000621054
0.000620146
0.000619267
0.000618375
0.000617489
0.000616619
0.000615763
0.000614923
0.000614116
0.000613344
0.000612572
0.000611813
0.000611066
0.000610321
0.000609612
0.000608928
0.000608257
0.000607592
0.000606944
0.000606316
0.000605694
0.000605094
0.000604502
0.000603908
0.000603334
0.00060278
0.00060224
0.000601718
0.000601215
0.000600727
0.000600243
0.000599772
0.000599324
0.000598888
0.000598462
0.000598056
0.000597663
0.000597276
0.000596894
0.000596523
0.000596166
0.000595816
0.000595472
0.000595147
0.000594841
0.000594551
0.000594269
0.000593993
0.000593733
0.000593487
0.000593248
0.000593014
0.00059279
0.000592585
0.000592392
0.000592199
0.000592011
0.000591838
0.000591677
0.000591525
0.000591384
0.000591252
0.000591127
0.000591011
0.000590907
0.000590813
0.000590727
0.00059065
0.000590583
0.000590524
0.000590473
0.000590431
0.000590397
0.00059037
0.000590352
0.000590342
0.000590341
0.000590347
0.000590362
0.000590384
0.000590414
0.000590453
0.000590499
0.000590553
0.000590613
0.00059068
0.000590753
0.000590835
0.000590922
0.000591017
0.000591119
0.000591229
0.000591345
0.000591468
0.000591597
0.000591731
0.00059187
0.000592018
0.000592177
0.000592343
0.000592515
0.000592686
0.000592855
0.000593029
0.000593218
0.00059342
0.000593629
0.000593841
0.000594051
0.000594259
0.000594474
0.000594697
0.000594927
0.000595161
0.0005954
0.000595643
0.000595891
0.000596147
0.00059641
0.000596679
0.000596951
0.000597235
0.000597539
0.00059786
0.000598178
0.000598489
0.000598799
0.000599097
0.000599384
0.000599674
0.000599978
0.000600291
0.000600607
0.000600926
0.000601258
0.000601603
0.000601952
0.000602301
0.000602646
0.000602989
0.000603336
0.00060369
0.000604044
0.000604395
0.000604744
0.000605094
0.000605446
0.000605803
0.000606163
0.00060653
0.0006069
0.000607268
0.000607632
0.000607995
0.000608362
0.000608734
0.000609111
0.000609489
0.000609868
0.000610247
0.000610628
0.000611014
0.0006114
0.000611786
0.000612173
0.000612565
0.00061296
0.000613357
0.000613755
0.00061415
0.00061454
0.000614936
0.000615349
0.000615763
0.000616163
0.000616558
0.000616952
0.000617352
0.000617757
0.000618157
0.00061856
0.000618988
0.000619458
0.00061998
0.000620496
0.000620956
0.000621373
0.000621772
0.000622169
0.000622568
0.000622971
0.000623375
0.00062378
0.000624188
0.000624598
0.000625011
0.000625426
0.000625839
0.000626247
0.000626653
0.000627062
0.000627473
0.000627883
0.00062829
0.000628702
0.000629135
0.000629589
0.000630022
0.000630425
0.000630815
0.000631197
0.000631575
0.000631961
0.000632363
0.000632778
0.000633189
0.00063359
0.000633981
0.000634365
0.000634752
0.000635142
0.000635529
0.000635911
0.000636289
0.000636666
0.000637042
0.000637411
0.000637771
0.000638126
0.000638485
0.000638861
0.00063928
0.000639753
0.000640205
0.000640591
0.000640951
0.000641317
0.000641699
0.000642092
0.000642481
0.000642861
0.000643219
0.000643562
0.000643899
0.00064423
0.000644554
0.000644876
0.0006452
0.000645527
0.000645858
0.000646194
0.000646525
0.000646845
0.000647155
0.000647456
0.000647755
0.000648057
0.000648369
0.000648692
0.000649014
0.000649324
0.000649626
0.00064992
0.000650211
0.000650501
0.000650791
0.000651081
0.000651366
0.000651643
0.00065191
0.000652173
0.000652437
0.000652703
0.000652967
0.00065322
0.000653466
0.000653709
0.000653945
0.000654175
0.000654403
0.000654632
0.000654862
0.000655091
0.000655315
0.000655532
0.000655742
0.000655949
0.000656151
0.00065635
0.000656548
0.000656743
0.000656934
0.00065712
0.0006573
0.000657477
0.000657652
0.000657823
0.00065799
0.000658152
0.00065831
0.000658467
0.000658623
0.000658779
0.00065893
0.000659074
0.000659211
0.000659343
0.000659469
0.00065959
0.000659707
0.00065982
0.000659928
0.00066003
0.000660127
0.000660222
0.000660313
0.0006604
0.000660485
0.000660568
0.000660644
0.000660717
0.000660786
0.000660851
0.000660909
0.000660963
0.000661016
0.000661066
0.00066111
0.000661149
0.000661185
0.000661216
0.000661243
0.000661265
0.000661284
0.0006613
0.000661312
0.00066132
0.000661323
0.000723268
0.000720847
0.000718372
0.000715851
0.000713431
0.000711013
0.000708647
0.000706347
0.000704102
0.000701914
0.0006997
0.000697564
0.000695418
0.000693206
0.000691073
0.000688979
0.000686955
0.000684986
0.000683013
0.000681021
0.000679041
0.000677121
0.000675283
0.000673525
0.000671761
0.000669984
0.000668267
0.000666552
0.000664856
0.000663151
0.000661472
0.000659901
0.000658347
0.000656796
0.00065523
0.000653703
0.000652235
0.000650773
0.000649303
0.000647854
0.000646454
0.000645073
0.000643729
0.000642428
0.000641124
0.000639832
0.000638583
0.000637357
0.000636129
0.000634887
0.000633664
0.000632509
0.000631383
0.000630255
0.000629159
0.000628086
0.000627019
0.000625978
0.000624966
0.000623967
0.000622984
0.000622025
0.00062107
0.000620148
0.000619266
0.000618372
0.000617481
0.000616617
0.000615765
0.000614921
0.000614109
0.000613325
0.000612544
0.000611794
0.000611063
0.000610325
0.000609606
0.000608919
0.000608252
0.000607599
0.000606952
0.000606314
0.000605697
0.000605098
0.000604502
0.000603911
0.00060334
0.000602783
0.000602236
0.000601715
0.000601221
0.000600735
0.000600242
0.000599768
0.000599323
0.000598889
0.000598467
0.000598059
0.000597656
0.000597269
0.000596899
0.000596531
0.000596165
0.000595803
0.000595462
0.000595147
0.000594848
0.000594558
0.000594271
0.000593992
0.00059373
0.000593486
0.00059325
0.000593016
0.000592792
0.000592585
0.000592391
0.000592202
0.000592016
0.000591839
0.000591677
0.000591525
0.000591383
0.000591251
0.000591126
0.000591011
0.000590907
0.000590812
0.000590726
0.00059065
0.000590583
0.000590523
0.000590473
0.000590431
0.000590397
0.00059037
0.000590352
0.000590342
0.00059034
0.000590347
0.000590361
0.000590384
0.000590414
0.000590453
0.000590499
0.000590552
0.000590612
0.000590679
0.000590754
0.000590834
0.000590922
0.000591017
0.00059112
0.000591232
0.000591348
0.000591469
0.000591594
0.000591727
0.000591868
0.000592019
0.00059218
0.000592348
0.000592516
0.000592685
0.000592857
0.000593036
0.000593223
0.000593422
0.000593628
0.000593837
0.000594045
0.000594254
0.000594469
0.000594696
0.000594927
0.000595158
0.000595393
0.000595635
0.000595881
0.000596137
0.000596401
0.000596666
0.00059694
0.000597237
0.000597576
0.00059792
0.000598224
0.000598515
0.000598803
0.000599086
0.000599373
0.000599671
0.000599979
0.000600295
0.000600612
0.000600931
0.000601259
0.000601598
0.000601943
0.00060229
0.000602636
0.000602983
0.000603332
0.000603687
0.000604039
0.000604388
0.000604737
0.000605087
0.00060544
0.000605798
0.000606161
0.000606529
0.000606896
0.000607262
0.000607625
0.000607989
0.000608358
0.000608733
0.000609113
0.000609494
0.000609872
0.000610246
0.000610624
0.000611009
0.000611398
0.000611787
0.000612176
0.000612567
0.000612962
0.00061336
0.000613756
0.000614144
0.000614532
0.000614935
0.000615354
0.000615767
0.000616163
0.000616558
0.000616963
0.000617375
0.000617783
0.000618183
0.000618597
0.000619051
0.000619531
0.00062001
0.000620481
0.000620926
0.000621346
0.000621751
0.000622152
0.000622553
0.000622957
0.000623365
0.000623774
0.000624184
0.000624596
0.000625008
0.000625419
0.000625829
0.000626237
0.000626647
0.00062706
0.000627472
0.000627879
0.000628287
0.000628712
0.000629161
0.000629613
0.000630031
0.000630423
0.000630807
0.000631187
0.000631572
0.000631967
0.000632377
0.000632788
0.000633192
0.000633585
0.000633973
0.00063436
0.000634748
0.000635138
0.000635524
0.000635907
0.000636287
0.000636663
0.000637035
0.000637401
0.000637762
0.000638122
0.000638494
0.000638902
0.000639374
0.000639826
0.000640222
0.000640592
0.000640956
0.000641325
0.000641703
0.000642086
0.000642467
0.000642845
0.000643206
0.00064355
0.000643887
0.000644217
0.000644542
0.000644868
0.000645196
0.000645528
0.000645863
0.000646198
0.000646526
0.000646845
0.000647153
0.000647455
0.000647758
0.000648066
0.000648381
0.000648701
0.000649017
0.000649323
0.00064962
0.000649913
0.000650204
0.000650496
0.000650789
0.000651079
0.000651364
0.000651641
0.000651908
0.000652171
0.000652436
0.000652702
0.000652969
0.000653225
0.00065347
0.000653709
0.000653944
0.000654175
0.000654406
0.000654635
0.000654863
0.00065509
0.000655313
0.000655528
0.000655737
0.000655942
0.000656147
0.00065635
0.000656548
0.000656743
0.000656934
0.00065712
0.000657301
0.000657478
0.000657653
0.000657823
0.000657989
0.000658151
0.000658311
0.000658469
0.000658626
0.00065878
0.000658932
0.000659076
0.000659212
0.000659343
0.00065947
0.000659591
0.000659708
0.000659819
0.000659927
0.00066003
0.000660127
0.000660221
0.000660313
0.0006604
0.000660485
0.000660568
0.000660645
0.000660717
0.000660786
0.00066085
0.000660909
0.000660964
0.000661017
0.000661066
0.00066111
0.00066115
0.000661186
0.000661217
0.000661243
0.000661265
0.000661285
0.000661301
0.000661313
0.000661321
0.000661324
0.000723274
0.00072083
0.000718383
0.000715921
0.00071348
0.000711029
0.000708632
0.000706324
0.000704067
0.000701862
0.000699692
0.000697551
0.000695363
0.000693169
0.000691054
0.000688994
0.000686974
0.000684975
0.000683015
0.000681067
0.000679062
0.000677136
0.00067532
0.00067355
0.000671776
0.000669982
0.000668241
0.000666525
0.000664834
0.000663144
0.000661477
0.000659882
0.000658333
0.000656798
0.000655258
0.000653729
0.000652214
0.000650736
0.000649295
0.000647881
0.000646472
0.000645075
0.00064373
0.000642426
0.000641113
0.000639825
0.000638583
0.000637349
0.00063612
0.000634895
0.000633675
0.000632512
0.000631386
0.000630254
0.000629155
0.000628091
0.000627029
0.000625986
0.000624973
0.000623972
0.000622996
0.000622037
0.000621077
0.000620136
0.000619245