/*--------------------------------*- C++ -*----------------------------------*\
  =========                 |
  \\      /  F ield         | OpenFOAM: The Open Source CFD Toolbox
   \\    /   O peration     | Website:  https://openfoam.org
    \\  /    A nd           | Version:  7
     \\/     M anipulation  |
\*---------------------------------------------------------------------------*/
FoamFile
{
    version     2.0;
    format      ascii;
    class       volScalarField;
    location    "4500";
    object      mu2;
}
// * * * * * * * * * * * * * * * * * * * * * * * * * * * * * * * * * * * * * //

dimensions      [1 -1 -1 0 0 0 0];

internalField   nonuniform List<scalar> 
160000
(
1.89289e-05
1.89357e-05
1.89423e-05
1.89489e-05
1.89557e-05
1.89623e-05
1.89688e-05
1.89751e-05
1.89812e-05
1.89875e-05
1.89939e-05
1.9e-05
1.90061e-05
1.90123e-05
1.90183e-05
1.90241e-05
1.90298e-05
1.90354e-05
1.90411e-05
1.90468e-05
1.90523e-05
1.90577e-05
1.9063e-05
1.90682e-05
1.90733e-05
1.90784e-05
1.90837e-05
1.90888e-05
1.90939e-05
1.90988e-05
1.91034e-05
1.9108e-05
1.91128e-05
1.91175e-05
1.91219e-05
1.91263e-05
1.91309e-05
1.91354e-05
1.91397e-05
1.91438e-05
1.9148e-05
1.91521e-05
1.91562e-05
1.91602e-05
1.91642e-05
1.91682e-05
1.91721e-05
1.91758e-05
1.91794e-05
1.9183e-05
1.91866e-05
1.91902e-05
1.91939e-05
1.91973e-05
1.92008e-05
1.92041e-05
1.92074e-05
1.92107e-05
1.92137e-05
1.92167e-05
1.92199e-05
1.9223e-05
1.92259e-05
1.92287e-05
1.92314e-05
1.92342e-05
1.9237e-05
1.92398e-05
1.92424e-05
1.92449e-05
1.92474e-05
1.925e-05
1.92525e-05
1.92549e-05
1.92572e-05
1.92595e-05
1.92618e-05
1.9264e-05
1.92661e-05
1.92682e-05
1.92703e-05
1.92724e-05
1.92744e-05
1.92763e-05
1.92782e-05
1.92801e-05
1.92819e-05
1.92837e-05
1.92854e-05
1.9287e-05
1.92887e-05
1.92903e-05
1.92919e-05
1.92934e-05
1.92949e-05
1.92963e-05
1.92976e-05
1.9299e-05
1.93003e-05
1.93015e-05
1.93027e-05
1.93039e-05
1.9305e-05
1.93062e-05
1.93073e-05
1.93083e-05
1.93093e-05
1.93103e-05
1.93112e-05
1.93121e-05
1.9313e-05
1.93138e-05
1.93146e-05
1.93153e-05
1.9316e-05
1.93167e-05
1.93174e-05
1.9318e-05
1.93186e-05
1.93192e-05
1.93197e-05
1.93202e-05
1.93207e-05
1.93211e-05
1.93215e-05
1.93219e-05
1.93222e-05
1.93225e-05
1.93228e-05
1.93231e-05
1.93233e-05
1.93235e-05
1.93236e-05
1.93238e-05
1.93239e-05
1.9324e-05
1.9324e-05
1.93241e-05
1.93241e-05
1.93241e-05
1.9324e-05
1.93239e-05
1.93238e-05
1.93237e-05
1.93236e-05
1.93234e-05
1.93232e-05
1.9323e-05
1.93227e-05
1.93224e-05
1.93222e-05
1.93219e-05
1.93215e-05
1.93212e-05
1.93208e-05
1.93204e-05
1.932e-05
1.93195e-05
1.9319e-05
1.93186e-05
1.93181e-05
1.93175e-05
1.9317e-05
1.93164e-05
1.93159e-05
1.93153e-05
1.93146e-05
1.9314e-05
1.93133e-05
1.93127e-05
1.9312e-05
1.93112e-05
1.93105e-05
1.93098e-05
1.9309e-05
1.93083e-05
1.93075e-05
1.93067e-05
1.93059e-05
1.9305e-05
1.93042e-05
1.93033e-05
1.93024e-05
1.93016e-05
1.93007e-05
1.92997e-05
1.92988e-05
1.92978e-05
1.92968e-05
1.92958e-05
1.92947e-05
1.92937e-05
1.92927e-05
1.92918e-05
1.92907e-05
1.92897e-05
1.92887e-05
1.92874e-05
1.92862e-05
1.92851e-05
1.9284e-05
1.92829e-05
1.92819e-05
1.92808e-05
1.92797e-05
1.92786e-05
1.92774e-05
1.92762e-05
1.9275e-05
1.92739e-05
1.92728e-05
1.92716e-05
1.92705e-05
1.92693e-05
1.92682e-05
1.9267e-05
1.92659e-05
1.92647e-05
1.92635e-05
1.92622e-05
1.9261e-05
1.92598e-05
1.92586e-05
1.92574e-05
1.92563e-05
1.9255e-05
1.92538e-05
1.92525e-05
1.92512e-05
1.925e-05
1.92488e-05
1.92476e-05
1.92463e-05
1.9245e-05
1.92437e-05
1.92424e-05
1.92412e-05
1.92399e-05
1.92387e-05
1.92374e-05
1.92362e-05
1.92349e-05
1.92337e-05
1.92324e-05
1.92311e-05
1.92297e-05
1.92282e-05
1.92267e-05
1.92251e-05
1.92235e-05
1.92221e-05
1.92209e-05
1.92197e-05
1.92185e-05
1.92173e-05
1.92161e-05
1.92148e-05
1.92136e-05
1.92124e-05
1.92111e-05
1.92096e-05
1.92082e-05
1.9207e-05
1.92058e-05
1.92046e-05
1.92034e-05
1.92021e-05
1.92008e-05
1.91996e-05
1.91982e-05
1.91968e-05
1.91956e-05
1.91944e-05
1.91932e-05
1.91921e-05
1.91909e-05
1.91898e-05
1.91885e-05
1.91871e-05
1.91859e-05
1.91847e-05
1.91836e-05
1.91824e-05
1.91812e-05
1.918e-05
1.91788e-05
1.91776e-05
1.91765e-05
1.91754e-05
1.91743e-05
1.91732e-05
1.91721e-05
1.9171e-05
1.91698e-05
1.91687e-05
1.91675e-05
1.91663e-05
1.91652e-05
1.91641e-05
1.91628e-05
1.91615e-05
1.916e-05
1.91587e-05
1.91576e-05
1.91566e-05
1.91557e-05
1.91547e-05
1.91537e-05
1.91528e-05
1.91518e-05
1.91509e-05
1.91499e-05
1.9149e-05
1.9148e-05
1.9147e-05
1.9146e-05
1.9145e-05
1.91441e-05
1.91432e-05
1.91424e-05
1.91415e-05
1.91407e-05
1.91398e-05
1.91389e-05
1.91378e-05
1.91368e-05
1.91359e-05
1.9135e-05
1.91342e-05
1.91334e-05
1.91326e-05
1.91318e-05
1.9131e-05
1.91302e-05
1.91294e-05
1.91287e-05
1.9128e-05
1.91272e-05
1.91265e-05
1.91257e-05
1.9125e-05
1.91244e-05
1.91237e-05
1.91231e-05
1.91224e-05
1.91217e-05
1.9121e-05
1.91204e-05
1.91197e-05
1.91191e-05
1.91185e-05
1.9118e-05
1.91174e-05
1.91169e-05
1.91163e-05
1.91158e-05
1.91153e-05
1.91147e-05
1.91142e-05
1.91137e-05
1.91133e-05
1.91128e-05
1.91124e-05
1.91119e-05
1.91115e-05
1.9111e-05
1.91106e-05
1.91102e-05
1.91098e-05
1.91094e-05
1.9109e-05
1.91087e-05
1.91084e-05
1.9108e-05
1.91077e-05
1.91074e-05
1.91072e-05
1.91069e-05
1.91066e-05
1.91064e-05
1.91062e-05
1.91059e-05
1.91057e-05
1.91055e-05
1.91053e-05
1.91052e-05
1.9105e-05
1.91048e-05
1.91047e-05
1.91046e-05
1.91045e-05
1.91043e-05
1.91043e-05
1.91042e-05
1.91041e-05
1.91041e-05
1.9104e-05
1.9104e-05
1.91039e-05
1.91039e-05
1.89291e-05
1.89358e-05
1.89424e-05
1.8949e-05
1.89556e-05
1.89622e-05
1.89687e-05
1.89751e-05
1.89813e-05
1.89876e-05
1.89939e-05
1.9e-05
1.9006e-05
1.90121e-05
1.90182e-05
1.90241e-05
1.90297e-05
1.90354e-05
1.90412e-05
1.90469e-05
1.90524e-05
1.90577e-05
1.9063e-05
1.90683e-05
1.90734e-05
1.90783e-05
1.90835e-05
1.90888e-05
1.90938e-05
1.90987e-05
1.91035e-05
1.91081e-05
1.91128e-05
1.91175e-05
1.91219e-05
1.91263e-05
1.9131e-05
1.91353e-05
1.91395e-05
1.91438e-05
1.91481e-05
1.91521e-05
1.91562e-05
1.91602e-05
1.91642e-05
1.91682e-05
1.91721e-05
1.91758e-05
1.91794e-05
1.91831e-05
1.91867e-05
1.91903e-05
1.91938e-05
1.91974e-05
1.92008e-05
1.92041e-05
1.92074e-05
1.92106e-05
1.92137e-05
1.92168e-05
1.92199e-05
1.92229e-05
1.92259e-05
1.92287e-05
1.92315e-05
1.92343e-05
1.9237e-05
1.92397e-05
1.92424e-05
1.92449e-05
1.92475e-05
1.92501e-05
1.92525e-05
1.92549e-05
1.92572e-05
1.92595e-05
1.92618e-05
1.9264e-05
1.92661e-05
1.92682e-05
1.92703e-05
1.92724e-05
1.92744e-05
1.92763e-05
1.92782e-05
1.92801e-05
1.9282e-05
1.92837e-05
1.92854e-05
1.9287e-05
1.92887e-05
1.92903e-05
1.92919e-05
1.92934e-05
1.92949e-05
1.92963e-05
1.92976e-05
1.9299e-05
1.93003e-05
1.93015e-05
1.93027e-05
1.93039e-05
1.9305e-05
1.93062e-05
1.93073e-05
1.93083e-05
1.93093e-05
1.93103e-05
1.93112e-05
1.93121e-05
1.9313e-05
1.93138e-05
1.93146e-05
1.93153e-05
1.9316e-05
1.93167e-05
1.93174e-05
1.9318e-05
1.93186e-05
1.93192e-05
1.93197e-05
1.93202e-05
1.93207e-05
1.93211e-05
1.93215e-05
1.93219e-05
1.93222e-05
1.93225e-05
1.93228e-05
1.93231e-05
1.93233e-05
1.93235e-05
1.93236e-05
1.93238e-05
1.93239e-05
1.9324e-05
1.9324e-05
1.93241e-05
1.93241e-05
1.93241e-05
1.9324e-05
1.93239e-05
1.93238e-05
1.93237e-05
1.93236e-05
1.93234e-05
1.93232e-05
1.9323e-05
1.93227e-05
1.93225e-05
1.93222e-05
1.93219e-05
1.93215e-05
1.93212e-05
1.93208e-05
1.93204e-05
1.932e-05
1.93195e-05
1.9319e-05
1.93186e-05
1.93181e-05
1.93175e-05
1.9317e-05
1.93164e-05
1.93159e-05
1.93153e-05
1.93146e-05
1.9314e-05
1.93133e-05
1.93127e-05
1.93119e-05
1.93112e-05
1.93105e-05
1.93098e-05
1.93091e-05
1.93083e-05
1.93075e-05
1.93067e-05
1.93059e-05
1.9305e-05
1.93042e-05
1.93033e-05
1.93025e-05
1.93016e-05
1.93007e-05
1.92997e-05
1.92988e-05
1.92978e-05
1.92968e-05
1.92957e-05
1.92946e-05
1.92936e-05
1.92927e-05
1.92918e-05
1.92908e-05
1.92898e-05
1.92886e-05
1.92874e-05
1.92861e-05
1.92851e-05
1.9284e-05
1.92829e-05
1.92819e-05
1.92808e-05
1.92797e-05
1.92785e-05
1.92773e-05
1.92762e-05
1.9275e-05
1.92739e-05
1.92728e-05
1.92716e-05
1.92705e-05
1.92693e-05
1.92682e-05
1.9267e-05
1.92658e-05
1.92647e-05
1.92634e-05
1.92622e-05
1.9261e-05
1.92598e-05
1.92586e-05
1.92575e-05
1.92562e-05
1.9255e-05
1.92538e-05
1.92525e-05
1.92512e-05
1.925e-05
1.92488e-05
1.92475e-05
1.92463e-05
1.9245e-05
1.92437e-05
1.92424e-05
1.92412e-05
1.92399e-05
1.92387e-05
1.92374e-05
1.92362e-05
1.9235e-05
1.92337e-05
1.92324e-05
1.92311e-05
1.92297e-05
1.92281e-05
1.92265e-05
1.92249e-05
1.92235e-05
1.92221e-05
1.92209e-05
1.92197e-05
1.92185e-05
1.92173e-05
1.92161e-05
1.92148e-05
1.92136e-05
1.92123e-05
1.9211e-05
1.92096e-05
1.92083e-05
1.92071e-05
1.92059e-05
1.92046e-05
1.92034e-05
1.92021e-05
1.92009e-05
1.91996e-05
1.91982e-05
1.91968e-05
1.91956e-05
1.91944e-05
1.91932e-05
1.91921e-05
1.91909e-05
1.91897e-05
1.91884e-05
1.91871e-05
1.91859e-05
1.91848e-05
1.91836e-05
1.91824e-05
1.91812e-05
1.91799e-05
1.91788e-05
1.91776e-05
1.91765e-05
1.91754e-05
1.91743e-05
1.91732e-05
1.91721e-05
1.9171e-05
1.91699e-05
1.91687e-05
1.91675e-05
1.91663e-05
1.91652e-05
1.9164e-05
1.91628e-05
1.91613e-05
1.91599e-05
1.91587e-05
1.91577e-05
1.91567e-05
1.91557e-05
1.91547e-05
1.91538e-05
1.91528e-05
1.91518e-05
1.91509e-05
1.91499e-05
1.9149e-05
1.9148e-05
1.9147e-05
1.9146e-05
1.9145e-05
1.91441e-05
1.91433e-05
1.91424e-05
1.91415e-05
1.91407e-05
1.91398e-05
1.91388e-05
1.91377e-05
1.91368e-05
1.91359e-05
1.9135e-05
1.91342e-05
1.91334e-05
1.91326e-05
1.91318e-05
1.9131e-05
1.91302e-05
1.91294e-05
1.91287e-05
1.91279e-05
1.91272e-05
1.91265e-05
1.91257e-05
1.9125e-05
1.91244e-05
1.91237e-05
1.91231e-05
1.91224e-05
1.91217e-05
1.9121e-05
1.91204e-05
1.91197e-05
1.91191e-05
1.91186e-05
1.9118e-05
1.91174e-05
1.91169e-05
1.91163e-05
1.91158e-05
1.91153e-05
1.91147e-05
1.91142e-05
1.91138e-05
1.91133e-05
1.91128e-05
1.91124e-05
1.91119e-05
1.91115e-05
1.9111e-05
1.91106e-05
1.91102e-05
1.91098e-05
1.91094e-05
1.9109e-05
1.91087e-05
1.91084e-05
1.91081e-05
1.91077e-05
1.91074e-05
1.91072e-05
1.91069e-05
1.91066e-05
1.91064e-05
1.91062e-05
1.91059e-05
1.91057e-05
1.91055e-05
1.91053e-05
1.91052e-05
1.9105e-05
1.91048e-05
1.91047e-05
1.91046e-05
1.91044e-05
1.91043e-05
1.91043e-05
1.91042e-05
1.91041e-05
1.91041e-05
1.9104e-05
1.9104e-05
1.91039e-05
1.91039e-05
1.8929e-05
1.89357e-05
1.89424e-05
1.8949e-05
1.89557e-05
1.89622e-05
1.89686e-05
1.89751e-05
1.89814e-05
1.89876e-05
1.89939e-05
1.90001e-05
1.9006e-05
1.9012e-05
1.90181e-05
1.9024e-05
1.90298e-05
1.90356e-05
1.90412e-05
1.90469e-05
1.90524e-05
1.90578e-05
1.90632e-05
1.90683e-05
1.90734e-05
1.90784e-05
1.90835e-05
1.90887e-05
1.90938e-05
1.90987e-05
1.91034e-05
1.91081e-05
1.91128e-05
1.91174e-05
1.9122e-05
1.91264e-05
1.91309e-05
1.91353e-05
1.91395e-05
1.91437e-05
1.9148e-05
1.91522e-05
1.91562e-05
1.91602e-05
1.91642e-05
1.91683e-05
1.9172e-05
1.91757e-05
1.91793e-05
1.91831e-05
1.91868e-05
1.91904e-05
1.91938e-05
1.91973e-05
1.92007e-05
1.9204e-05
1.92073e-05
1.92106e-05
1.92137e-05
1.92168e-05
1.92199e-05
1.92229e-05
1.92259e-05
1.92287e-05
1.92315e-05
1.92343e-05
1.92371e-05
1.92397e-05
1.92424e-05
1.9245e-05
1.92475e-05
1.925e-05
1.92525e-05
1.92549e-05
1.92572e-05
1.92595e-05
1.92618e-05
1.9264e-05
1.92662e-05
1.92683e-05
1.92703e-05
1.92724e-05
1.92744e-05
1.92763e-05
1.92782e-05
1.92801e-05
1.92819e-05
1.92837e-05
1.92854e-05
1.92871e-05
1.92887e-05
1.92903e-05
1.92919e-05
1.92934e-05
1.92949e-05
1.92962e-05
1.92976e-05
1.92989e-05
1.93002e-05
1.93015e-05
1.93027e-05
1.93039e-05
1.9305e-05
1.93062e-05
1.93073e-05
1.93083e-05
1.93093e-05
1.93103e-05
1.93112e-05
1.93121e-05
1.9313e-05
1.93138e-05
1.93146e-05
1.93153e-05
1.9316e-05
1.93167e-05
1.93174e-05
1.9318e-05
1.93186e-05
1.93192e-05
1.93197e-05
1.93202e-05
1.93207e-05
1.93211e-05
1.93215e-05
1.93219e-05
1.93222e-05
1.93225e-05
1.93228e-05
1.93231e-05
1.93233e-05
1.93235e-05
1.93236e-05
1.93238e-05
1.93239e-05
1.9324e-05
1.9324e-05
1.93241e-05
1.93241e-05
1.93241e-05
1.9324e-05
1.93239e-05
1.93238e-05
1.93237e-05
1.93236e-05
1.93234e-05
1.93232e-05
1.9323e-05
1.93227e-05
1.93225e-05
1.93222e-05
1.93219e-05
1.93215e-05
1.93212e-05
1.93208e-05
1.93204e-05
1.932e-05
1.93195e-05
1.9319e-05
1.93186e-05
1.93181e-05
1.93175e-05
1.9317e-05
1.93164e-05
1.93159e-05
1.93153e-05
1.93147e-05
1.9314e-05
1.93133e-05
1.93126e-05
1.93119e-05
1.93112e-05
1.93105e-05
1.93098e-05
1.93091e-05
1.93083e-05
1.93075e-05
1.93067e-05
1.93059e-05
1.93051e-05
1.93042e-05
1.93034e-05
1.93025e-05
1.93016e-05
1.93007e-05
1.92997e-05
1.92988e-05
1.92978e-05
1.92967e-05
1.92956e-05
1.92945e-05
1.92936e-05
1.92927e-05
1.92918e-05
1.92908e-05
1.92897e-05
1.92886e-05
1.92874e-05
1.92862e-05
1.92851e-05
1.9284e-05
1.9283e-05
1.92819e-05
1.92808e-05
1.92797e-05
1.92785e-05
1.92774e-05
1.92762e-05
1.92751e-05
1.92739e-05
1.92728e-05
1.92716e-05
1.92705e-05
1.92693e-05
1.92682e-05
1.9267e-05
1.92658e-05
1.92646e-05
1.92634e-05
1.92622e-05
1.9261e-05
1.92598e-05
1.92586e-05
1.92574e-05
1.92562e-05
1.9255e-05
1.92537e-05
1.92525e-05
1.92513e-05
1.925e-05
1.92488e-05
1.92475e-05
1.92463e-05
1.9245e-05
1.92437e-05
1.92424e-05
1.92412e-05
1.92399e-05
1.92387e-05
1.92374e-05
1.92362e-05
1.9235e-05
1.92337e-05
1.92324e-05
1.92311e-05
1.92296e-05
1.9228e-05
1.92263e-05
1.92248e-05
1.92235e-05
1.92222e-05
1.9221e-05
1.92198e-05
1.92185e-05
1.92173e-05
1.92161e-05
1.92148e-05
1.92136e-05
1.92123e-05
1.92109e-05
1.92096e-05
1.92084e-05
1.92071e-05
1.92059e-05
1.92046e-05
1.92034e-05
1.92021e-05
1.92008e-05
1.91995e-05
1.91981e-05
1.91969e-05
1.91957e-05
1.91944e-05
1.91932e-05
1.91921e-05
1.91909e-05
1.91897e-05
1.91884e-05
1.91871e-05
1.91859e-05
1.91847e-05
1.91836e-05
1.91823e-05
1.91811e-05
1.918e-05
1.91788e-05
1.91777e-05
1.91765e-05
1.91754e-05
1.91743e-05
1.91732e-05
1.91721e-05
1.9171e-05
1.91699e-05
1.91687e-05
1.91674e-05
1.91661e-05
1.9165e-05
1.91639e-05
1.91626e-05
1.91611e-05
1.91599e-05
1.91588e-05
1.91577e-05
1.91567e-05
1.91557e-05
1.91547e-05
1.91538e-05
1.91528e-05
1.91518e-05
1.91509e-05
1.91499e-05
1.91489e-05
1.91479e-05
1.91469e-05
1.9146e-05
1.91451e-05
1.91442e-05
1.91433e-05
1.91424e-05
1.91415e-05
1.91406e-05
1.91396e-05
1.91387e-05
1.91377e-05
1.91368e-05
1.91359e-05
1.91351e-05
1.91342e-05
1.91334e-05
1.91326e-05
1.91318e-05
1.9131e-05
1.91302e-05
1.91294e-05
1.91287e-05
1.91279e-05
1.91272e-05
1.91265e-05
1.91257e-05
1.91251e-05
1.91244e-05
1.91237e-05
1.9123e-05
1.91224e-05
1.91217e-05
1.9121e-05
1.91204e-05
1.91198e-05
1.91192e-05
1.91186e-05
1.9118e-05
1.91174e-05
1.91169e-05
1.91163e-05
1.91158e-05
1.91153e-05
1.91147e-05
1.91142e-05
1.91138e-05
1.91133e-05
1.91128e-05
1.91124e-05
1.91119e-05
1.91114e-05
1.9111e-05
1.91106e-05
1.91102e-05
1.91098e-05
1.91094e-05
1.9109e-05
1.91087e-05
1.91084e-05
1.9108e-05
1.91077e-05
1.91074e-05
1.91072e-05
1.91069e-05
1.91066e-05
1.91064e-05
1.91062e-05
1.91059e-05
1.91057e-05
1.91055e-05
1.91053e-05
1.91052e-05
1.9105e-05
1.91048e-05
1.91047e-05
1.91046e-05
1.91044e-05
1.91043e-05
1.91043e-05
1.91042e-05
1.91041e-05
1.9104e-05
1.9104e-05
1.9104e-05
1.91039e-05
1.91039e-05
1.89289e-05
1.89357e-05
1.89424e-05
1.89491e-05
1.89558e-05
1.89623e-05
1.89688e-05
1.89752e-05
1.89815e-05
1.89878e-05
1.8994e-05
1.9e-05
1.90059e-05
1.9012e-05
1.9018e-05
1.9024e-05
1.90298e-05
1.90356e-05
1.90413e-05
1.90469e-05
1.90524e-05
1.90579e-05
1.90632e-05
1.90683e-05
1.90735e-05
1.90786e-05
1.90835e-05
1.90887e-05
1.90938e-05
1.90986e-05
1.91033e-05
1.9108e-05
1.91127e-05
1.91174e-05
1.9122e-05
1.91265e-05
1.91309e-05
1.91352e-05
1.91394e-05
1.91437e-05
1.91481e-05
1.91523e-05
1.91563e-05
1.91603e-05
1.91642e-05
1.91682e-05
1.9172e-05
1.91757e-05
1.91794e-05
1.91831e-05
1.91868e-05
1.91905e-05
1.91939e-05
1.91973e-05
1.92007e-05
1.92041e-05
1.92073e-05
1.92105e-05
1.92137e-05
1.92168e-05
1.92199e-05
1.92229e-05
1.92259e-05
1.92287e-05
1.92315e-05
1.92342e-05
1.9237e-05
1.92397e-05
1.92424e-05
1.92451e-05
1.92476e-05
1.925e-05
1.92524e-05
1.92548e-05
1.92572e-05
1.92596e-05
1.92618e-05
1.9264e-05
1.92662e-05
1.92683e-05
1.92703e-05
1.92724e-05
1.92744e-05
1.92763e-05
1.92782e-05
1.92801e-05
1.92819e-05
1.92837e-05
1.92854e-05
1.92871e-05
1.92887e-05
1.92903e-05
1.92919e-05
1.92934e-05
1.92948e-05
1.92962e-05
1.92976e-05
1.92989e-05
1.93002e-05
1.93015e-05
1.93027e-05
1.93039e-05
1.93051e-05
1.93062e-05
1.93073e-05
1.93084e-05
1.93094e-05
1.93103e-05
1.93112e-05
1.93121e-05
1.9313e-05
1.93138e-05
1.93146e-05
1.93153e-05
1.9316e-05
1.93167e-05
1.93174e-05
1.9318e-05
1.93186e-05
1.93192e-05
1.93197e-05
1.93202e-05
1.93207e-05
1.93211e-05
1.93215e-05
1.93219e-05
1.93222e-05
1.93225e-05
1.93228e-05
1.93231e-05
1.93233e-05
1.93235e-05
1.93236e-05
1.93238e-05
1.93239e-05
1.9324e-05
1.9324e-05
1.93241e-05
1.93241e-05
1.93241e-05
1.9324e-05
1.93239e-05
1.93238e-05
1.93237e-05
1.93236e-05
1.93234e-05
1.93232e-05
1.9323e-05
1.93227e-05
1.93225e-05
1.93222e-05
1.93219e-05
1.93215e-05
1.93212e-05
1.93208e-05
1.93204e-05
1.932e-05
1.93195e-05
1.9319e-05
1.93186e-05
1.93181e-05
1.93175e-05
1.9317e-05
1.93164e-05
1.93158e-05
1.93153e-05
1.93147e-05
1.9314e-05
1.93133e-05
1.93126e-05
1.93119e-05
1.93112e-05
1.93105e-05
1.93098e-05
1.93091e-05
1.93083e-05
1.93075e-05
1.93067e-05
1.93059e-05
1.93051e-05
1.93042e-05
1.93034e-05
1.93025e-05
1.93016e-05
1.93007e-05
1.92997e-05
1.92987e-05
1.92977e-05
1.92965e-05
1.92955e-05
1.92946e-05
1.92937e-05
1.92927e-05
1.92917e-05
1.92907e-05
1.92897e-05
1.92886e-05
1.92874e-05
1.92863e-05
1.92852e-05
1.92841e-05
1.9283e-05
1.92819e-05
1.92808e-05
1.92796e-05
1.92785e-05
1.92774e-05
1.92762e-05
1.92751e-05
1.9274e-05
1.92728e-05
1.92717e-05
1.92705e-05
1.92693e-05
1.92682e-05
1.9267e-05
1.92658e-05
1.92646e-05
1.92635e-05
1.92623e-05
1.92611e-05
1.92599e-05
1.92586e-05
1.92574e-05
1.92562e-05
1.9255e-05
1.92537e-05
1.92525e-05
1.92513e-05
1.925e-05
1.92488e-05
1.92475e-05
1.92463e-05
1.9245e-05
1.92437e-05
1.92424e-05
1.92412e-05
1.92399e-05
1.92387e-05
1.92374e-05
1.92362e-05
1.9235e-05
1.92337e-05
1.92324e-05
1.9231e-05
1.92295e-05
1.92277e-05
1.92261e-05
1.92248e-05
1.92235e-05
1.92223e-05
1.92211e-05
1.92198e-05
1.92186e-05
1.92173e-05
1.92161e-05
1.92148e-05
1.92135e-05
1.92122e-05
1.92109e-05
1.92097e-05
1.92084e-05
1.92072e-05
1.92059e-05
1.92046e-05
1.92034e-05
1.92021e-05
1.92008e-05
1.91994e-05
1.91981e-05
1.91969e-05
1.91956e-05
1.91944e-05
1.91933e-05
1.91921e-05
1.91909e-05
1.91897e-05
1.91884e-05
1.91871e-05
1.91859e-05
1.91847e-05
1.91835e-05
1.91824e-05
1.91812e-05
1.918e-05
1.91788e-05
1.91777e-05
1.91766e-05
1.91754e-05
1.91743e-05
1.91732e-05
1.91722e-05
1.91711e-05
1.91699e-05
1.91686e-05
1.91672e-05
1.91659e-05
1.91648e-05
1.91637e-05
1.91625e-05
1.91612e-05
1.916e-05
1.91589e-05
1.91578e-05
1.91568e-05
1.91558e-05
1.91548e-05
1.91538e-05
1.91528e-05
1.91519e-05
1.91509e-05
1.91499e-05
1.91489e-05
1.91479e-05
1.91469e-05
1.9146e-05
1.91451e-05
1.91442e-05
1.91433e-05
1.91424e-05
1.91415e-05
1.91405e-05
1.91395e-05
1.91386e-05
1.91377e-05
1.91368e-05
1.9136e-05
1.91351e-05
1.91343e-05
1.91334e-05
1.91326e-05
1.91318e-05
1.9131e-05
1.91302e-05
1.91294e-05
1.91287e-05
1.91279e-05
1.91272e-05
1.91264e-05
1.91257e-05
1.91251e-05
1.91244e-05
1.91237e-05
1.9123e-05
1.91224e-05
1.91217e-05
1.9121e-05
1.91204e-05
1.91198e-05
1.91192e-05
1.91186e-05
1.9118e-05
1.91174e-05
1.91169e-05
1.91163e-05
1.91158e-05
1.91153e-05
1.91148e-05
1.91142e-05
1.91138e-05
1.91133e-05
1.91128e-05
1.91124e-05
1.91119e-05
1.91114e-05
1.9111e-05
1.91106e-05
1.91102e-05
1.91098e-05
1.91094e-05
1.9109e-05
1.91087e-05
1.91084e-05
1.9108e-05
1.91077e-05
1.91074e-05
1.91072e-05
1.91069e-05
1.91066e-05
1.91064e-05
1.91062e-05
1.91059e-05
1.91057e-05
1.91055e-05
1.91053e-05
1.91052e-05
1.9105e-05
1.91048e-05
1.91047e-05
1.91046e-05
1.91044e-05
1.91043e-05
1.91043e-05
1.91042e-05
1.91041e-05
1.9104e-05
1.9104e-05
1.9104e-05
1.91039e-05
1.91039e-05
1.89289e-05
1.89356e-05
1.89424e-05
1.89492e-05
1.89558e-05
1.89624e-05
1.89688e-05
1.89752e-05
1.89816e-05
1.89878e-05
1.8994e-05
1.89998e-05
1.90058e-05
1.90121e-05
1.90182e-05
1.90239e-05
1.90297e-05
1.90355e-05
1.90412e-05
1.9047e-05
1.90525e-05
1.90579e-05
1.90632e-05
1.90683e-05
1.90735e-05
1.90785e-05
1.90835e-05
1.90887e-05
1.90937e-05
1.90986e-05
1.91034e-05
1.91081e-05
1.91126e-05
1.91173e-05
1.9122e-05
1.91265e-05
1.91308e-05
1.91352e-05
1.91395e-05
1.91439e-05
1.91481e-05
1.91523e-05
1.91563e-05
1.91603e-05
1.91642e-05
1.91681e-05
1.91719e-05
1.91756e-05
1.91794e-05
1.91832e-05
1.91868e-05
1.91904e-05
1.91939e-05
1.91973e-05
1.92007e-05
1.92041e-05
1.92073e-05
1.92105e-05
1.92137e-05
1.92168e-05
1.92198e-05
1.92229e-05
1.92258e-05
1.92287e-05
1.92314e-05
1.92342e-05
1.9237e-05
1.92397e-05
1.92424e-05
1.92451e-05
1.92476e-05
1.925e-05
1.92525e-05
1.92549e-05
1.92572e-05
1.92596e-05
1.92619e-05
1.9264e-05
1.92662e-05
1.92683e-05
1.92704e-05
1.92724e-05
1.92743e-05
1.92763e-05
1.92782e-05
1.92801e-05
1.92819e-05
1.92837e-05
1.92854e-05
1.92871e-05
1.92887e-05
1.92903e-05
1.92919e-05
1.92934e-05
1.92948e-05
1.92962e-05
1.92976e-05
1.92989e-05
1.93002e-05
1.93015e-05
1.93027e-05
1.93039e-05
1.93051e-05
1.93062e-05
1.93073e-05
1.93084e-05
1.93094e-05
1.93103e-05
1.93112e-05
1.93121e-05
1.9313e-05
1.93138e-05
1.93146e-05
1.93153e-05
1.93161e-05
1.93167e-05
1.93174e-05
1.9318e-05
1.93186e-05
1.93192e-05
1.93197e-05
1.93202e-05
1.93207e-05
1.93211e-05
1.93215e-05
1.93219e-05
1.93222e-05
1.93225e-05
1.93228e-05
1.93231e-05
1.93233e-05
1.93235e-05
1.93236e-05
1.93238e-05
1.93239e-05
1.9324e-05
1.9324e-05
1.93241e-05
1.93241e-05
1.93241e-05
1.9324e-05
1.93239e-05
1.93238e-05
1.93237e-05
1.93236e-05
1.93234e-05
1.93232e-05
1.9323e-05
1.93227e-05
1.93225e-05
1.93222e-05
1.93219e-05
1.93215e-05
1.93212e-05
1.93208e-05
1.93204e-05
1.932e-05
1.93195e-05
1.93191e-05
1.93186e-05
1.93181e-05
1.93175e-05
1.9317e-05
1.93164e-05
1.93158e-05
1.93153e-05
1.93147e-05
1.9314e-05
1.93133e-05
1.93126e-05
1.93119e-05
1.93113e-05
1.93106e-05
1.93098e-05
1.93091e-05
1.93083e-05
1.93075e-05
1.93068e-05
1.93059e-05
1.93051e-05
1.93043e-05
1.93034e-05
1.93025e-05
1.93016e-05
1.93006e-05
1.92996e-05
1.92985e-05
1.92975e-05
1.92965e-05
1.92956e-05
1.92946e-05
1.92937e-05
1.92927e-05
1.92917e-05
1.92907e-05
1.92897e-05
1.92886e-05
1.92875e-05
1.92863e-05
1.92852e-05
1.92841e-05
1.9283e-05
1.92819e-05
1.92808e-05
1.92796e-05
1.92785e-05
1.92774e-05
1.92763e-05
1.92751e-05
1.9274e-05
1.92728e-05
1.92717e-05
1.92705e-05
1.92693e-05
1.92682e-05
1.9267e-05
1.92658e-05
1.92647e-05
1.92635e-05
1.92623e-05
1.9261e-05
1.92598e-05
1.92586e-05
1.92574e-05
1.92562e-05
1.9255e-05
1.92537e-05
1.92525e-05
1.92513e-05
1.925e-05
1.92487e-05
1.92475e-05
1.92463e-05
1.9245e-05
1.92437e-05
1.92424e-05
1.92412e-05
1.92399e-05
1.92387e-05
1.92374e-05
1.92362e-05
1.92349e-05
1.92336e-05
1.92323e-05
1.92308e-05
1.92292e-05
1.92276e-05
1.92261e-05
1.92248e-05
1.92236e-05
1.92224e-05
1.92211e-05
1.92199e-05
1.92186e-05
1.92174e-05
1.92161e-05
1.92148e-05
1.92135e-05
1.92123e-05
1.9211e-05
1.92097e-05
1.92085e-05
1.92072e-05
1.92059e-05
1.92047e-05
1.92034e-05
1.92021e-05
1.92008e-05
1.91994e-05
1.91981e-05
1.91968e-05
1.91956e-05
1.91945e-05
1.91933e-05
1.91921e-05
1.91909e-05
1.91896e-05
1.91883e-05
1.91871e-05
1.91859e-05
1.91847e-05
1.91836e-05
1.91824e-05
1.91812e-05
1.918e-05
1.91789e-05
1.91777e-05
1.91766e-05
1.91755e-05
1.91744e-05
1.91733e-05
1.91722e-05
1.9171e-05
1.91698e-05
1.91683e-05
1.9167e-05
1.91658e-05
1.91647e-05
1.91636e-05
1.91624e-05
1.91613e-05
1.91601e-05
1.91589e-05
1.91579e-05
1.91568e-05
1.91558e-05
1.91548e-05
1.91538e-05
1.91529e-05
1.91519e-05
1.91509e-05
1.91499e-05
1.91489e-05
1.91479e-05
1.91469e-05
1.9146e-05
1.91451e-05
1.91442e-05
1.91433e-05
1.91424e-05
1.91414e-05
1.91404e-05
1.91395e-05
1.91386e-05
1.91377e-05
1.91369e-05
1.9136e-05
1.91351e-05
1.91343e-05
1.91334e-05
1.91326e-05
1.91318e-05
1.9131e-05
1.91302e-05
1.91294e-05
1.91287e-05
1.91279e-05
1.91272e-05
1.91264e-05
1.91257e-05
1.91251e-05
1.91244e-05
1.91237e-05
1.9123e-05
1.91223e-05
1.91217e-05
1.9121e-05
1.91204e-05
1.91198e-05
1.91192e-05
1.91186e-05
1.9118e-05
1.91174e-05
1.91169e-05
1.91163e-05
1.91158e-05
1.91153e-05
1.91148e-05
1.91143e-05
1.91138e-05
1.91133e-05
1.91128e-05
1.91124e-05
1.91119e-05
1.91114e-05
1.9111e-05
1.91106e-05
1.91102e-05
1.91098e-05
1.91094e-05
1.9109e-05
1.91087e-05
1.91084e-05
1.9108e-05
1.91077e-05
1.91075e-05
1.91072e-05
1.91069e-05
1.91066e-05
1.91064e-05
1.91062e-05
1.91059e-05
1.91057e-05
1.91055e-05
1.91053e-05
1.91052e-05
1.9105e-05
1.91048e-05
1.91047e-05
1.91046e-05
1.91044e-05
1.91043e-05
1.91042e-05
1.91042e-05
1.91041e-05
1.9104e-05
1.9104e-05
1.9104e-05
1.91039e-05
1.91039e-05
1.89289e-05
1.89355e-05
1.89422e-05
1.89491e-05
1.89558e-05
1.89624e-05
1.8969e-05
1.89754e-05
1.89816e-05
1.89877e-05
1.89939e-05
1.89999e-05
1.90059e-05
1.90121e-05
1.90182e-05
1.90241e-05
1.90298e-05
1.90354e-05
1.90411e-05
1.90468e-05
1.90524e-05
1.9058e-05
1.90633e-05
1.90683e-05
1.90735e-05
1.90786e-05
1.90836e-05
1.90886e-05
1.90936e-05
1.90986e-05
1.91035e-05
1.91081e-05
1.91127e-05
1.91173e-05
1.91219e-05
1.91265e-05
1.91308e-05
1.91352e-05
1.91396e-05
1.91439e-05
1.91481e-05
1.91523e-05
1.91563e-05
1.91602e-05
1.91642e-05
1.91681e-05
1.91719e-05
1.91756e-05
1.91794e-05
1.91831e-05
1.91869e-05
1.91904e-05
1.91939e-05
1.91973e-05
1.92007e-05
1.9204e-05
1.92073e-05
1.92105e-05
1.92137e-05
1.92168e-05
1.92198e-05
1.92228e-05
1.92258e-05
1.92287e-05
1.92314e-05
1.92342e-05
1.9237e-05
1.92397e-05
1.92424e-05
1.92451e-05
1.92476e-05
1.92501e-05
1.92526e-05
1.92549e-05
1.92573e-05
1.92596e-05
1.92619e-05
1.92641e-05
1.92662e-05
1.92683e-05
1.92703e-05
1.92724e-05
1.92743e-05
1.92763e-05
1.92782e-05
1.92801e-05
1.92819e-05
1.92837e-05
1.92854e-05
1.92871e-05
1.92887e-05
1.92903e-05
1.92919e-05
1.92934e-05
1.92948e-05
1.92962e-05
1.92976e-05
1.92989e-05
1.93002e-05
1.93015e-05
1.93027e-05
1.93039e-05
1.93051e-05
1.93062e-05
1.93073e-05
1.93084e-05
1.93093e-05
1.93103e-05
1.93112e-05
1.93121e-05
1.9313e-05
1.93138e-05
1.93146e-05
1.93153e-05
1.9316e-05
1.93167e-05
1.93174e-05
1.9318e-05
1.93186e-05
1.93192e-05
1.93197e-05
1.93202e-05
1.93207e-05
1.93211e-05
1.93215e-05
1.93219e-05
1.93222e-05
1.93225e-05
1.93228e-05
1.93231e-05
1.93233e-05
1.93235e-05
1.93236e-05
1.93238e-05
1.93239e-05
1.9324e-05
1.9324e-05
1.93241e-05
1.93241e-05
1.93241e-05
1.9324e-05
1.93239e-05
1.93238e-05
1.93237e-05
1.93236e-05
1.93234e-05
1.93232e-05
1.9323e-05
1.93227e-05
1.93225e-05
1.93222e-05
1.93219e-05
1.93215e-05
1.93212e-05
1.93208e-05
1.93204e-05
1.932e-05
1.93195e-05
1.93191e-05
1.93186e-05
1.9318e-05
1.93175e-05
1.93169e-05
1.93164e-05
1.93158e-05
1.93153e-05
1.93146e-05
1.9314e-05
1.93133e-05
1.93126e-05
1.9312e-05
1.93113e-05
1.93106e-05
1.93098e-05
1.93091e-05
1.93083e-05
1.93076e-05
1.93068e-05
1.9306e-05
1.93051e-05
1.93043e-05
1.93034e-05
1.93025e-05
1.93016e-05
1.93005e-05
1.92994e-05
1.92984e-05
1.92974e-05
1.92965e-05
1.92956e-05
1.92947e-05
1.92937e-05
1.92927e-05
1.92917e-05
1.92907e-05
1.92896e-05
1.92886e-05
1.92875e-05
1.92864e-05
1.92853e-05
1.92841e-05
1.9283e-05
1.92819e-05
1.92808e-05
1.92796e-05
1.92785e-05
1.92774e-05
1.92763e-05
1.92752e-05
1.9274e-05
1.92729e-05
1.92717e-05
1.92705e-05
1.92693e-05
1.92682e-05
1.9267e-05
1.92658e-05
1.92647e-05
1.92634e-05
1.92622e-05
1.9261e-05
1.92598e-05
1.92586e-05
1.92574e-05
1.92562e-05
1.9255e-05
1.92537e-05
1.92525e-05
1.92512e-05
1.925e-05
1.92487e-05
1.92475e-05
1.92463e-05
1.9245e-05
1.92437e-05
1.92424e-05
1.92412e-05
1.92399e-05
1.92386e-05
1.92374e-05
1.92361e-05
1.92348e-05
1.92335e-05
1.92321e-05
1.92306e-05
1.92291e-05
1.92276e-05
1.92262e-05
1.92249e-05
1.92237e-05
1.92224e-05
1.92212e-05
1.92199e-05
1.92186e-05
1.92174e-05
1.92161e-05
1.92148e-05
1.92135e-05
1.92123e-05
1.9211e-05
1.92097e-05
1.92085e-05
1.92072e-05
1.92059e-05
1.92047e-05
1.92034e-05
1.92021e-05
1.92007e-05
1.91993e-05
1.9198e-05
1.91968e-05
1.91956e-05
1.91945e-05
1.91933e-05
1.91921e-05
1.91908e-05
1.91896e-05
1.91883e-05
1.91871e-05
1.91859e-05
1.91848e-05
1.91836e-05
1.91824e-05
1.91812e-05
1.918e-05
1.91789e-05
1.91777e-05
1.91766e-05
1.91755e-05
1.91744e-05
1.91733e-05
1.91722e-05
1.91709e-05
1.91695e-05
1.91681e-05
1.91669e-05
1.91658e-05
1.91647e-05
1.91636e-05
1.91624e-05
1.91613e-05
1.91601e-05
1.9159e-05
1.91579e-05
1.91569e-05
1.91558e-05
1.91548e-05
1.91539e-05
1.91529e-05
1.91519e-05
1.91509e-05
1.91499e-05
1.91489e-05
1.91479e-05
1.91469e-05
1.9146e-05
1.91451e-05
1.91442e-05
1.91433e-05
1.91423e-05
1.91414e-05
1.91404e-05
1.91395e-05
1.91386e-05
1.91378e-05
1.91369e-05
1.9136e-05
1.91351e-05
1.91343e-05
1.91334e-05
1.91326e-05
1.91318e-05
1.9131e-05
1.91302e-05
1.91294e-05
1.91286e-05
1.91279e-05
1.91272e-05
1.91264e-05
1.91257e-05
1.91251e-05
1.91244e-05
1.91237e-05
1.9123e-05
1.91223e-05
1.91217e-05
1.9121e-05
1.91204e-05
1.91198e-05
1.91192e-05
1.91186e-05
1.9118e-05
1.91174e-05
1.91169e-05
1.91163e-05
1.91158e-05
1.91153e-05
1.91148e-05
1.91143e-05
1.91138e-05
1.91133e-05
1.91128e-05
1.91123e-05
1.91119e-05
1.91114e-05
1.9111e-05
1.91106e-05
1.91102e-05
1.91098e-05
1.91094e-05
1.9109e-05
1.91087e-05
1.91084e-05
1.9108e-05
1.91077e-05
1.91075e-05
1.91072e-05
1.91069e-05
1.91066e-05
1.91064e-05
1.91062e-05
1.91059e-05
1.91057e-05
1.91055e-05
1.91053e-05
1.91052e-05
1.9105e-05
1.91048e-05
1.91047e-05
1.91046e-05
1.91044e-05
1.91043e-05
1.91042e-05
1.91042e-05
1.91041e-05
1.9104e-05
1.9104e-05
1.9104e-05
1.91039e-05
1.91039e-05
1.89288e-05
1.89355e-05
1.89422e-05
1.89489e-05
1.89556e-05
1.89624e-05
1.8969e-05
1.89754e-05
1.89817e-05
1.89878e-05
1.89939e-05
1.89999e-05
1.90061e-05
1.90122e-05
1.90182e-05
1.9024e-05
1.90298e-05
1.90355e-05
1.90411e-05
1.90466e-05
1.90524e-05
1.90579e-05
1.90632e-05
1.90683e-05
1.90734e-05
1.90786e-05
1.90837e-05
1.90887e-05
1.90936e-05
1.90986e-05
1.91035e-05
1.91082e-05
1.91127e-05
1.91173e-05
1.91218e-05
1.91264e-05
1.91309e-05
1.91353e-05
1.91396e-05
1.91438e-05
1.91481e-05
1.91523e-05
1.91563e-05
1.91603e-05
1.91642e-05
1.91681e-05
1.91719e-05
1.91756e-05
1.91794e-05
1.91831e-05
1.91869e-05
1.91904e-05
1.91939e-05
1.91973e-05
1.92007e-05
1.9204e-05
1.92073e-05
1.92105e-05
1.92137e-05
1.92168e-05
1.92198e-05
1.92228e-05
1.92258e-05
1.92287e-05
1.92315e-05
1.92342e-05
1.9237e-05
1.92398e-05