/*--------------------------------*- C++ -*----------------------------------*\
  =========                 |
  \\      /  F ield         | OpenFOAM: The Open Source CFD Toolbox
   \\    /   O peration     | Website:  https://openfoam.org
    \\  /    A nd           | Version:  7
     \\/     M anipulation  |
\*---------------------------------------------------------------------------*/
FoamFile
{
    version     2.0;
    format      ascii;
    class       volScalarField;
    location    "4500";
    object      muTotal;
}
// * * * * * * * * * * * * * * * * * * * * * * * * * * * * * * * * * * * * * //

dimensions      [1 -1 -1 0 0 0 0];

internalField   nonuniform List<scalar> 
160000
(
0.000386727
0.000385439
0.000350483
0.000348878
0.000327369
0.000331022
0.000388002
0.000419472
0.000376208
0.000364841
0.000351007
0.000341198
0.000342149
0.000340987
0.000339976
0.000360748
0.000376132
0.000375083
0.000376503
0.000375428
0.0003744
0.000327068
0.000326211
0.000345251
0.000364442
0.000319091
0.000317955
0.000317138
0.000316352
0.000315574
0.000349315
0.000359467
0.000358634
0.000357776
0.000356997
0.000317449
0.000316733
0.000316027
0.000315355
0.000351043
0.000352259
0.000351537
0.000307483
0.000306871
0.000306267
0.00030565
0.000346426
0.000360901
0.000360242
0.000359592
0.000310231
0.000298304
0.00029776
0.000297268
0.000296735
0.000296277
0.000343233
0.000342692
0.000318663
0.000316093
0.000319486
0.000327642
0.000327166
0.000326706
0.000324271
0.000323797
0.000323366
0.000322896
0.000322477
0.000284224
0.00028386
0.000283496
0.000283148
0.000282813
0.000315804
0.000328652
0.000330148
0.000329792
0.000329471
0.000329127
0.000328779
0.000328437
0.000328101
0.000317175
0.00030679
0.000306503
0.000306223
0.00030596
0.000306015
0.000305739
0.000303706
0.000303455
0.000310024
0.00031634
0.00031611
0.000305384
0.000311888
0.000317935
0.000322647
0.000322016
0.000321822
0.000314403
0.000314203
0.000314034
0.000295691
0.000295535
0.000295387
0.000295244
0.000296916
0.000327074
0.000326961
0.000326799
0.000326679
0.00032655
0.000314982
0.00031488
0.000305016
0.000295402
0.000303177
0.000331732
0.000332137
0.000318417
0.000318348
0.000318276
0.000318539
0.000324436
0.00032439
0.000324326
0.000324287
0.000324239
0.000324208
0.000313014
0.000302749
0.000302698
0.000302707
0.000302665
0.000302683
0.000302653
0.000302664
0.000298431
0.000303656
0.000303663
0.000303368
0.00030339
0.000303425
0.000303457
0.000305681
0.000315185
0.000320049
0.000320094
0.000297396
0.000297448
0.000297488
0.000297547
0.000297595
0.000297664
0.0002977
0.000316522
0.000316575
0.000316658
0.000294787
0.000291767
0.000291847
0.000315662
0.00031285
0.000297253
0.000297348
0.000279856
0.000279944
0.00028004
0.000280141
0.000343486
0.000343603
0.000343724
0.000343838
0.000305396
0.000305513
0.000305635
0.000315702
0.000328356
0.000328474
0.000328621
0.00032876
0.000314897
0.000309618
0.00031307
0.000313222
0.000313377
0.000265066
0.000240672
0.000256079
0.000257322
0.000278361
0.000329644
0.000329829
0.000301989
0.000188929
0.00018906
0.000382392
0.000426362
0.000426537
0.000426816
0.000426071
0.000322624
0.000259071
0.000259223
0.00028043
0.000337289
0.000337546
0.000337671
0.000337897
0.000338054
0.000338257
0.000338439
0.000338634
0.000338749
0.000318395
0.000309575
0.000309833
0.000343518
0.000343784
0.000343949
0.000344152
0.000311776
0.000308066
0.000308262
0.000308414
0.000308655
0.00032102
0.000348365
0.000343586
0.000332427
0.000318577
0.00031878
0.000318981
0.000319185
0.000311786
0.000322112
0.000322309
0.00033904
0.000352346
0.000333251
0.000333463
0.000330523
0.00031741
0.000252164
0.000185858
0.000155777
0.000155882
0.000169842
0.000423941
0.000457882
0.000458146
0.000412952
0.000331487
0.000314125
0.000314314
0.000287042
0.000266434
0.000266592
0.000282053
0.000345678
0.000345915
0.000326223
0.000323776
0.000323976
0.000324184
0.000323097
0.000263985
0.000264171
0.000278828
0.000376105
0.000376297
0.000376569
0.000376743
0.000303731
0.000302901
0.000303066
0.0003458
0.000354462
0.000354683
0.000295196
0.000282946
0.000283138
0.000292954
0.000345442
0.000345635
0.000345822
0.000325938
0.000333077
0.000342695
0.00034288
0.000343066
0.000343263
0.000385525
0.00039997
0.000400207
0.000326085
0.000227845
0.000128157
0.000128244
0.000128402
0.000451626
0.000452099
0.000452095
0.000452524
0.000452509
0.000423808
0.000356638
0.000287287
0.000282292
0.000282419
0.000280394
0.000280551
0.000280664
0.000337538
0.000343899
0.000344052
0.000344194
0.00033168
0.00031626
0.000280568
0.000237797
0.000237922
0.000237939
0.000238182
0.000257011
0.000365237
0.000365376
0.000365515
0.000355619
0.000331537
0.000331647
0.00033169
0.000329876
0.000326565
0.000291736
0.000260739
0.000260835
0.000260933
0.000305887
0.000337256
0.000325341
0.00028973
0.000289827
0.000289925
0.000290019
0.000348751
0.000379783
0.00038
0.000380015
0.000380127
0.000333599
0.000323982
0.000324071
0.000324159
0.000358035
0.0003729
0.000373052
0.000373085
0.000373181
0.000348358
0.000344438
0.000326651
0.00032671
0.000333986
0.000334423
0.00033451
0.000371081
0.000371145
0.00037119
0.000371007
0.000350425
0.000350503
0.000345648
0.000345693
0.000345735
0.000330757
0.000332539
0.000338885
0.000365785
0.00037352
0.000358795
0.000358849
0.000358841
0.000358914
0.000358891
0.000358951
0.000358945
0.000333151
0.000331302
0.000305802
0.000292312
0.000262936
0.00018779
0.00018782
0.00018778
0.000164886
0.000191836
0.000199638
0.0003645
0.000363289
0.000409221
0.000352704
0.000339482
0.000334528
0.000333455
0.000358358
0.000359696
0.000367758
0.000366606
0.000362804
0.000344855
0.000341022
0.000347114
0.000376893
0.000375853
0.000339241
0.000338256
0.0003373
0.000350448
0.000329806
0.000366321
0.000365359
0.000364438
0.000318799
0.000317974
0.000317147
0.000328155
0.000355395
0.000354548
0.000340268
0.00034795
0.000357783
0.000356988
0.000317449
0.00033146
0.000316036
0.000324792
0.000353001
0.000352243
0.000351535
0.000330832
0.000306872
0.00030627
0.000305651
0.000315156
0.000321137
0.00035072
0.000359574
0.00033166
0.000299411
0.000332429
0.000341361
0.00034078
0.000315925
0.000343247
0.000328461
0.000316564
0.000316076
0.000315589
0.00032765
0.00032563
0.000316443
0.000319161
0.000323797
0.000304354
0.000303945
0.000303542
0.000315602
0.000315197
0.0003148
0.000293132
0.00029452
0.000318359
0.000330519
0.000330151
0.000327428
0.000313285
0.000312951
0.000312621
0.000312298
0.000311034
0.000310737
0.00031044
0.000310143
0.000309862
0.00030446
0.000304182
0.000303951
0.000303679
0.000305898
0.000316586
0.000316342
0.000305598
0.000305383
0.000318172
0.000321601
0.00032421
0.000324012
0.000323813
0.000323623
0.000301996
0.00030182
0.000303013
0.000295535
0.000302368
0.000327397
0.000327222
0.000327095
0.000326931
0.000315776
0.000306624
0.000304753
0.000302315
0.000301714
0.000295486
0.000295395
0.00029819
0.000332339
0.000332232
0.000332167
0.000332073
0.000332004
0.00032605
0.000324439
0.00032438
0.00031591
0.00032428
0.000324244
0.000324201
0.000302779
0.000302725
0.000315295
0.00032234
0.00030655
0.000308469
0.000308484
0.000298421
0.000298428
0.000298424
0.000298446
0.00030335
0.000319894
0.000319941
0.000319947
0.00031999
0.000320014
0.000320057
0.000300562
0.000300605
0.000300652
0.000297496
0.000297526
0.000297605
0.000297634
0.00029773
0.000301767
0.000291691
0.000291611
0.000291675
0.000291761
0.000321592
0.000322064
0.000300699
0.000297256
0.0002993
0.000281501
0.000272255
0.000283787
0.000318752
0.000347888
0.000308276
0.000308387
0.000321522
0.000327793
0.000327937
0.000328056
0.000328208
0.000328333
0.000328479
0.000328613
0.000328764
0.000297688
0.00029781
0.000310982
0.000286478
0.000194256
0.000138005
0.000138044
0.000161114
0.000404962
0.000454462
0.000414594
0.000289979
0.000188832
0.000188952
0.000194531
0.000417214
0.000426299
0.000426563
0.000399565
0.00032285
0.000265888
0.000259078
0.000259225
0.00033252
0.000337355
0.000337477
0.000337268
0.000337858
0.000329578
0.000312527
0.000319816
0.000327684
0.000314995
0.000315177
0.000321138
0.000343303
0.000343541
0.000343727
0.000323689
0.000307721
0.000307886
0.00030808
0.00030823
0.000308463
0.000308588
0.000308854
0.000348302
0.000356005
0.000356191
0.000356443
0.000356652
0.000356889
0.000301683
0.000301873
0.000322111
0.000344024
0.000351418
0.000352353
0.000325832
0.000326029
0.000315107
0.000202199
0.000148271
0.000148401
0.000214103
0.000457122
0.000457331
0.000457748
0.000457903
0.000359852
0.000324527
0.000324754
0.000314401
0.000286346
0.000273024
0.000280225
0.000345266
0.000345455
0.000345705
0.000306694
0.000306877
0.000324625
0.00032484
0.000325052
0.000263798
0.000263974
0.000299264
0.000375892
0.000376065
0.000376347
0.000376522
0.000340534
0.000302727
0.000302873
0.000303104
0.000313507
0.000354474
0.000303593
0.000282795
0.00028297
0.000329515
0.000345249
0.000345449
0.00034564
0.000336188
0.000325143
0.00032533
0.000330345
0.000353742
0.000405919
0.000406144
0.000380825
0.000352451
0.000353122
0.000267448
0.00012809
0.000128172
0.000128237
0.000287292
0.00045184
0.000451936
0.000452115
0.000353348
0.000283648
0.000278842
0.000278977
0.00030187
0.000295561
0.000280281
0.00028042
0.00028053
0.000342757
0.000343743
0.000343901
0.00034405
0.000327749
0.000311275
0.000274134
0.000237744
0.000237849
0.000237863
0.000405595
0.000412721
0.000412995
0.00036527
0.00035747
0.00035192
0.00030889
0.00030605
0.000306181
0.000313068
0.00032458
0.000336707
0.000310474
0.000300953
0.000321054
0.000314474
0.000307943
0.000349876
0.000349996
0.000289731
0.000289829
0.000289926
0.000357325
0.000379655
0.000379889
0.000379893
0.000380024
0.000348489
0.000323899
0.000323982
0.000342965
0.00036315
0.000351704
0.000349976
0.000372993
0.0003731
0.000373171
0.000356537
0.000333771
0.000326612
0.0003751
0.000383052
0.000383227
0.000383214
0.000383333
0.000367088
0.000351139
0.000351249
0.000352822
0.000332054
0.000330248
0.000328955
0.000328999
0.000329045
0.000337258
0.000349425
0.000376223
0.000376265
0.000376305
0.000376343
0.000364025
0.000365096
0.000365129
0.000346394
0.000344596
0.000344659
0.000344634
0.000336825
0.000336827
0.000307204
0.000222295
0.00022937
0.000178509
0.0001649
0.000188138
0.000199638
0.00036452
0.000368653
0.000409225
0.000402607
0.000401284
0.000359339
0.000358937
0.000375866
0.000356548
0.000355459
0.000365659
0.000364547
0.000344864
0.000345767
0.000363351
0.000362284
0.000375831
0.000374742
0.000338252
0.000337304
0.000336376
0.000367272
0.000366302
0.000350752
0.000349865
0.000353644
0.00035275
0.000340732
0.000356269
0.000355394
0.000323952
0.000335447
0.000355566
0.000357776
0.000344065
0.00032473
0.000348095
0.000347341
0.000344083
0.000325762
0.000320841
0.000320174
0.000322765
0.000326958
0.0003365
0.000335828
0.000319149
0.000318572
0.000317995
0.000325395
0.000331638
0.000315649
0.000311877
0.000311347
0.000310813
0.000310305
0.000337797
0.000344721
0.000344166
0.000343634
0.00030638
0.000300798
0.000316893
0.000316439
0.000313065
0.000323785
0.000323345
0.000322902
0.000303543
0.000311775
0.000308509
0.000308126
0.000307805
0.000307441
0.000296516
0.000296186
0.00029583
0.000295531
0.000313412
0.000326337
0.000325987
0.000325656
0.000325324
0.000325005
0.000314519
0.000295673
0.000304399
0.0003164
0.000316123
0.000303935
0.000304853
0.000309388
0.000306226
0.000305986
0.000305767
0.000283777
0.000283585
0.000283391
0.000307203
0.000305724
0.00029673
0.000323617
0.000318867
0.000296607
0.000303011
0.000316721
0.000327736
0.000311221
0.000309395
0.000309254
0.000309121
0.000316583
0.000316461
0.0003084
0.000310047
0.000309943
0.00029548
0.000295956
0.000316077
0.000325484
0.000304702
0.000294419
0.00029436
0.000303536
0.000317393
0.000314845
0.000301563
0.000301504
0.000301474
0.000301424
0.000301404
0.000327861
0.00033089
0.000330869
0.000322342
0.000310321
0.000301381
0.000301373
0.000301371
0.000298422
0.000308418
0.000327363
0.000327381
0.000301949
0.000301957
0.000301999
0.000303762
0.00032002
0.000320052
0.000297364
0.000297401
0.00029745
0.000297488
0.000299415
0.000307903
0.000307964
0.000301457
0.000315469
0.000315541
0.000315617
0.000291684
0.00029175
0.000291841
0.000323159
0.000323275
0.000323347
0.000307432
0.000272165
0.000272255
0.000272349
0.000305294
0.000352568
0.000352689
0.000352822
0.000320838
0.000309836
0.000309956
0.000310081
0.000310203
0.000326497
0.00032847
0.000327139
0.000316272
0.000311826
0.000265129
0.000192336
0.000142065
0.000137945
0.000137982
0.000151989
0.000476213
0.000476462
0.000454468
0.000357336
0.000258118
0.000200885
0.000188952
0.000211573
0.000306018
0.000360111
0.000334751
0.000282777
0.000254596
0.000273544
0.000321885
0.000349668
0.00034986
0.00032753
0.000310813
0.000310979
0.000325044
0.000311303
0.000311485
0.000311662
0.000322271
0.000314995
0.000322451
0.000343087
0.00034331
0.000333885
0.000307358
0.000307544
0.000307716
0.000307902
0.000341845
0.00035786
0.000341093
0.000323069
0.000344679
0.000348712
0.000348955
0.000356224
0.000356422
0.000333994
0.000280588
0.00030441
0.000325872
0.000321283
0.000321478
0.000339209
0.000364102
0.000364332
0.000310353
0.000207857
0.000155495
0.000148295
0.000148343
0.000262979
0.000457028
0.000457453
0.000457621
0.000354999
0.000290241
0.000290412
0.00029851
0.000288783
0.00027286
0.000273023
0.000305964
0.000345222
0.000345466
0.000309364
0.000303729
0.000328031
0.000336409
0.000318517
0.00026952
0.00026378
0.000333006
0.000377126
0.000354661
0.000349034
0.000349209
0.000365732
0.000344163
0.000302724
0.000302913
0.00030307
0.000303305
0.000303449
0.000325565
0.000352207
0.000352406
0.000352605
0.000345259
0.000316233
0.00031641
0.00033465
0.000357332
0.000358395
0.00035725
0.000321554
0.000249718
0.000186378
0.000186449
0.00018653
0.000186645
0.000150448
0.000128114
0.000128175
0.000209126
0.000451411
0.000451606
0.000395202
0.000307828
0.000291281
0.000291411
0.000336642
0.000334631
0.000317219
0.000310004
0.000304199
0.000304104
0.0003389
0.000343587
0.000343748
0.000337083
0.00032675
0.000324835
0.000292225
0.000237708
0.000237785
0.000315386
0.000412429
0.00041253
0.000412814
0.000386851
0.000324216
0.000319951
0.000318903
0.000305939
0.000306059
0.000348076
0.000357163
0.000358018
0.000364294
0.000348192
0.000346542
0.000369483
0.000387199
0.000396964
0.000386463
0.000346032
0.000328662
0.000334321
0.000338798
0.000364537
0.000379768
0.000379773
0.000376477
0.00032581
0.00032763
0.000353809
0.00036296
0.000363061
0.000363158
0.000342602
0.000342659
0.000373008
0.000373084
0.0003477
0.000326485
0.000326511
0.00032661
0.000382967
0.000383091
0.000367036
0.000382759
0.000382484
0.000351025
0.000351085
0.000356406
0.000383137
0.0003832
0.000376094
0.000368809
0.000380496
0.000369404
0.000336409
0.000336451
0.000347274
0.000350271
0.000364798
0.000376337
0.000376373
0.000365096
0.000365122
0.000366414
0.000366445
0.000366473
0.000325191
0.000325196
0.00032521
0.000311077
0.00029351
0.000260288
0.000169792
0.000166026
0.000199698
0.000199697
0.000367102
0.00038421
0.000388014
0.00038602
0.000388147
0.000386881
0.000372131
0.000375857
0.000356524
0.000364143
0.000363028
0.000360473
0.000359027
0.000343223
0.000342188
0.00034118
0.000341437
0.000345878
0.00033825
0.000349534
0.000334803
0.000333898
0.000333016
0.000337439
0.000366209
0.000365284
0.000349498
0.000357174
0.000356263
0.000313605
0.00031287
0.000312147
0.000311418
0.000310698
0.000309971
0.000359186
0.000358388
0.000346053
0.000322225
0.000321527
0.00032083
0.000320158
0.000319602
0.000318976
0.000323944
0.0003345
0.000333865
0.000333246
0.000329151
0.000313555
0.000312979
0.000312405
0.000311873
0.00031134
0.000315358
0.000314833
0.000307174
0.000306356
0.000295415
0.00029496
0.000294512
0.000300788
0.000326655
0.0003067
0.000306278
0.000305852
0.000302121
0.000281279
0.000309183
0.000333272
0.000332856
0.000298823
0.000297833
0.000297475
0.000302823
0.000324473
0.000324119
0.000323759
0.000323413
0.000297396
0.000297111
0.000296777
0.000296512
0.00029619
0.000295954
0.000295633
0.000295403
0.000314371
0.000316131
0.000315859
0.00031013
0.000309393
0.000309149
0.000308857
0.000291102
0.000299741
0.000299544
0.000283393
0.000283213
0.000283032
0.000282862
0.00026713
0.000266979
0.000294083
0.000309734
0.000336412
0.000342225
0.000332919
0.000330241
0.00033009
0.000309125
0.000314052
0.000316462
0.000301347
0.000295682
0.000295572
0.000295479
0.000295374
0.000307489
0.00031536
0.000297214
0.000296061
0.000295982
0.000289987
0.000289926
0.000289874
0.000307388
0.000307355
0.00030291
0.000302875
0.000301832
0.000309105
0.000306189
0.000293903
0.000288278
0.000311553
0.000318887
0.000318884
0.000312547
0.000325947
0.000338788
0.000327369
0.00030193
0.000301915
0.000301972
0.000301964
0.000302029
0.000310674
0.000306491
0.000309308
0.000309344
0.0003094
0.000309443
0.00029544
0.000295323
0.000295372
0.000295439
0.000295495
0.000295568
0.000292803
0.000306437
0.000323223
0.000323311
0.00032342
0.000317291
0.000278986
0.000272078
0.000272165
0.000272257
0.000358199
0.000358336
0.00035125
0.000326168
0.000326255
0.000326402
0.000326498
0.000326633
0.000321113
0.000298556
0.000298674
0.0003241
0.000323836
0.000281217
0.000252062
0.000206689
0.000159241
0.000137914
0.000137925
0.000229936
0.000498071
0.000498355
0.000466491
0.000368957
0.000345637
0.000341964
0.000300342
0.000242555
0.000235105
0.000263601
0.000287214
0.000286096
0.00025446
0.000254597
0.00025473
0.000328318
0.000349658
0.000349864
0.000329957
0.000327134
0.000327318
0.000320415
0.000311303
0.00031148
0.000321293
0.000342066
0.000342266
0.00034247
0.000342676
0.000334159
0.000309417
0.000307362
0.000307539
0.00033405
0.000359329
0.000359551
0.000359773
0.000349136
0.000332696
0.000316525
0.000302658
0.000309732
0.000337182
0.000331718
0.000288537
0.000278183
0.000319445
0.000349758
0.000367201
0.000367433
0.000367662
0.00036411
0.000314449
0.0002292
0.000160582
0.000148203
0.000148256
0.000148425
0.000339368
0.000457152
0.000457319
0.000368152
0.000295954
0.000295723
0.000292599
0.00028706
0.000287235
0.000287399
0.000324843
0.000344998
0.000345252
0.000341454
0.000295671
0.000301863
0.000336196
0.00033641
0.000315484
0.000256518
0.000256672
0.00028252
0.00037712
0.000377419
0.000377593
0.000377884
0.000378046
0.000313335
0.000302736
0.00030288
0.000303117
0.000303279
0.000383061
0.000383276
0.000360332
0.000325719
0.000309083
0.000309263
0.00031623
0.000317156
0.000332082
0.000357937
0.000358398
0.000334719
0.000237301
0.000186324
0.0001864
0.000186487
0.000186576
0.000275994
0.000394089
0.000409001
0.000409223
0.000409486
0.000316532
0.000355912
0.000328611
0.000328771
0.000356364
0.000372565
0.000377929
0.000362545
0.000348655
0.000346019
0.000327663
0.00031444
0.000328162
0.00034359
0.000341923
0.000341377
0.000329226
0.000275225
0.00023765
0.000237749
0.00025759
0.000410401
0.000412337
0.000412574
0.000364479
0.000316693
0.00030537
0.000318656
0.000324896
0.000325031
0.000321207
0.000314668
0.000310963
0.000311034
0.000382757
0.000404162
0.000419689
0.00041984
0.000419991
0.000420136
0.000398225
0.00035858
0.000328685
0.000328817
0.000339166
0.000363561
0.000348026
0.00033592
0.000333207
0.00032579
0.00032981
0.000332165
0.000342339
0.000358673
0.000360528
0.000346867
0.00033228
0.000332344
0.000357759
0.000366047
0.000366134
0.000359596
0.000316794
0.000317232
0.000329338
0.000327601
0.000345876
0.000385083
0.000385143
0.000384865
0.000374562
0.000375923
0.000382312
0.000386823
0.00038687
0.000385172
0.000353506
0.000336409
0.000336451
0.000357342
0.000350282
0.000350323
0.000364106
0.000376368
0.000376401
0.000369416
0.00036945
0.000342802
0.000342823
0.000344967
0.00034123
0.000309783
0.000309786
0.000309802
0.000272273
0.000215415
0.000199757
0.000199697
0.000199699
0.000384566
0.000399143
0.000386212
0.000378693
0.00037231
0.000370796
0.000356408
0.00035528
0.000355198
0.000353071
0.000357893
0.000350971
0.000349949
0.000351109
0.000359892
0.000341169
0.000340189
0.000339229
0.000338257
0.000350651
0.00034967
0.000342008
0.000333015
0.000332168
0.000331314
0.000319505
0.000318718
0.000317902
0.000317104
0.000350006
0.000352681
0.00035186
0.000344605
0.000350232
0.000307446
0.000306772
0.000306098
0.000305463
0.000338387
0.000365395
0.000327587
0.0003493
0.000348588
0.000326431
0.000319906
0.000319283
0.00031868
0.00031809
0.000323
0.000322709
0.000318335
0.000318407
0.000317851
0.000309819
0.000309297
0.000308779
0.000308274
0.000322036
0.000321525
0.000304494
0.000294515
0.000300615
0.000340918
0.000343869
0.000343393
0.00034291
0.000342425
0.000281279
0.000280895
0.00028055
0.000280174
0.000279873
0.000300314
0.000304577
0.00030282
0.000320104
0.000307816
0.000307483
0.000319693
0.000319354
0.000319022
0.000296809
0.000301549
0.00032086
0.000320548
0.000320254
0.000319948
0.000303029
0.000297018
0.000296768
0.000296529
0.000282852
0.000282633
0.000282421
0.000282217
0.000293545
0.000305625
0.000305437
0.000305254
0.000305073
0.000318059
0.000267129
0.000266974
0.000266827
0.000266664
0.000321274
0.000342223
0.000339001
0.000316991
0.000317126
0.000310943
0.000309885
0.000309784
0.000313789
0.000313686
0.00031357
0.000295471
0.00029538
0.000297086
0.000295201
0.000295781
0.000295734
0.000290052
0.000289984
0.000302164
0.0003021
0.000292596
0.00027431
0.000274267
0.000295499
0.000317576
0.000317578
0.000317519
0.00031751
0.00026807
0.000268058
0.000268049
0.000278565
0.000303129
0.00033549
0.000338787
0.000338801
0.000338815
0.000321487
0.000303998
0.00030403
0.000303586
0.00029461
0.000294642
0.000294677
0.000294319
0.000287918
0.000298047
0.000318897
0.000318924
0.000319021
0.000319056
0.000308289
0.000267022
0.000267055
0.000267154
0.000267167
0.0002673
0.000310622
0.000331794
0.000278985
0.000302742
0.000272167
0.000272258
0.000287278
0.000354568
0.000349471
0.000337875
0.000319748
0.000319867
0.000319988
0.000320112
0.000315947
0.000304259
0.000298662
0.000298789
0.000298912
0.000299049
0.000229765
0.000136254
0.000200079
0.000411658
0.000497614
0.000497821
0.000498113
0.000477392
0.000352844
0.00029168
0.000318706
0.000341953
0.000311399
0.000265073
0.000272484
0.000311483
0.000299028
0.000299965
0.000254457
0.000254596
0.000254737
0.000328251
0.000349668
0.000349854
0.000337575
0.000322065
0.000315687
0.000311124
0.000311298
0.000324356
0.000341859
0.000342063
0.000329953
0.000311099
0.00031129
0.000312346
0.000338966
0.000339171
0.000339376
0.000325543
0.000330786
0.000343001
0.000328949
0.000306594
0.000298749
0.000298934
0.000299122
0.000304258
0.000329207
0.000316389
0.00031114
0.000276843
0.00035422
0.000354452
0.000350541
0.000311683
0.000299794
0.000299965
0.000296126
0.000221654
0.000148127
0.000148167
0.000184689
0.00033186
0.000456689
0.000456999
0.000378979
0.000291765
0.000285447
0.000294764
0.000294479
0.000295102
0.000312583
0.000338233
0.000344775
0.000345007
0.000345219
0.000320746
0.000293982
0.000287336
0.000287513
0.000312915
0.000290977
0.000282496
0.000256674
0.000256849
0.000335639
0.000377367
0.000377647
0.000371178
0.000302402
0.000302579
0.000302713
0.000347872
0.000390168
0.000390454
0.000390646
0.000350327
0.000319796
0.000319987
0.000332072
0.000319717
0.000314797
0.000314974
0.000330523
0.000358179
0.000358388
0.000299052
0.000211099
0.000186351
0.000186437
0.000186532
0.000300392
0.000477229
0.000477493
0.000477764
0.000384688
0.000317098
0.000252913
0.000253056
0.000367199
0.000377772
0.000377907
0.000378127
0.000377935
0.000347785
0.00033423
0.000325595
0.00031434
0.000314455
0.000396845
0.000398371
0.000398557
0.00036251
0.000314526
0.000264136
0.000237688
0.000262216
0.000374077
0.00041214
0.000412382
0.000386961
0.0003141
0.000287809
0.000287935
0.000288039
0.000317205
0.000325031
0.00032516
0.000302897
0.000310973
0.000281877
0.000311856
0.000377931
0.0004059
0.000419841
0.000418227
0.000375834
0.000375745
0.00037585
0.000376013
0.000376089
0.000376239
0.000352523
0.000329747
0.000329848
0.000329449
0.000325786
0.000329821
0.000364559
0.000364682
0.000364779
0.000349637
0.000338485
0.000337461
0.000332335
0.000332404
0.000344959
0.00033503
0.000298457
0.000266152
0.000275396
0.000281681
0.00032761
0.000290234
0.000362631
0.000386905
0.000386963
0.000397153
0.000418804
0.00041888
0.000416001
0.000354595
0.000354634
0.000354678
0.000347956
0.000341302
0.000357378
0.000371795
0.000374475
0.000374514
0.000374438
0.00034857
0.000348456
0.000355534
0.000355564
0.000343044
0.000347489
0.000352748
0.000352766
0.000352779
0.000294868
0.000280606
0.000261709
0.000248371
0.00019192
0.000191944
0.000364655
0.000389257
0.000372023
0.000367546
0.000358713
0.000357535
0.000356375
0.000355258
0.000354156
0.000353094
0.000352006
0.000350971
0.000349912
0.000348847
0.000359889
0.000363342
0.000362307
0.000339229
0.000338286
0.000337322
0.000338093
0.000357119
0.000356175
0.000332164
0.000333992
0.000344957
0.000321735
0.000326121
0.000309149
0.000309645
0.000352678
0.000351858
0.000351047
0.000350245
0.000307457
0.000306759
0.000306112
0.000305428
0.000316472
0.000365387
0.000364617
0.000358784
0.000336673
0.000320538
0.000319907
0.000330792
0.000330168
0.000321486
0.000313568
0.000322716
0.000322112
0.000310887
0.000310351
0.000309816
0.000309293
0.000308787
0.000328223
0.000327692
0.000315244
0.00031476
0.000314277
0.000299051
0.000319813
0.000343874
0.000343394
0.000342909
0.000342428
0.000291924
0.000280919
0.00028053
0.000323788
0.000348792
0.000348374
0.000333131
0.000302823
0.000318825
0.000318465
0.000318115
0.000310258
0.000297411
0.000297114
0.000296795
0.000301566
0.000299531
0.000299245
0.000298961
0.000317751
0.000319474
0.000319193
0.000318926
0.000293016
0.000282856
0.000283571
0.000305301
0.000300537
0.000300323
0.000280525
0.000276877
0.0002767
0.000318254
0.000318076
0.000267133
0.000266979
0.000266816
0.000325605
0.000351062
0.00031963
0.000311411
0.000312442
0.000317123
0.000316987
0.000316859
0.000294902
0.00029479
0.000300435
0.000313574
0.000313467
0.000295372
0.000295286
0.000295175
0.000295114
0.000295022
0.000294966
0.00030297
0.000302909
0.000295634
0.000286257
0.000278862
0.000287981
0.000317609
0.000317609
0.000317545
0.000317551
0.000317497
0.00026807
0.000268058
0.000268049
0.000321794
0.000346334
0.000347427
0.000336817
0.000311416
0.000308356
0.000321482
0.000321508
0.000303561
0.000303589
0.000306051
0.000306088
0.000306127
0.000294018
0.000287909
0.000287966
0.000288014
0.000318662
0.000318985
0.00028886
0.000269743
0.000267007
0.000267086
0.000267098
0.000267228
0.000267337
0.000321886
0.000331822
0.000331895
0.000332015
0.000272168
0.000272259
0.000325245
0.000339331
0.00031952
0.000319632
0.000319748
0.000326337
0.000337696
0.000328256
0.000317585
0.000302221
0.000302342
0.000302472
0.000253418
0.000147195
5.72029e-05
9.31713e-05
0.000405963
0.000497397
0.000497589
0.000497873
0.00047063
0.000338761
0.000287279
0.000283488
0.000290663
0.000341941
0.00032736
0.000285842
0.000285422
0.000314989
0.000299274
0.00030013
0.000254455
0.000254595
0.000255463
0.000342339
0.000349653
0.000349852
0.000333408
0.000318044
0.000310943
0.00031112
0.000311305
0.000340735
0.000341853
0.000342055
0.000324201
0.000311104
0.000311271
0.000311477
0.000311655
0.000338325
0.000327137
0.000310258
0.000310435
0.000310621
0.000310809
0.000307509
0.00029875
0.000306051
0.000318932
0.000319139
0.00031936
0.000281204
0.000281384
0.000269056
0.000324483
0.000340386
0.000290879
0.000278643
0.000310424
0.000320677
0.000263833
0.000212612
0.000212739
0.000330574
0.000364046
0.000364326
0.000364598
0.000350385
0.000310051
0.000283951
0.000284125
0.0002843
0.000306525
0.000335213
0.000344346
0.000344551
0.000344788
0.000339145
0.000297268
0.000286968
0.00028715
0.000287329
0.000300427
0.000311212
0.000266392
0.000266571
0.000256684
0.000301166
0.000377134
0.000377394
0.000372198
0.000328079
0.000302412
0.000302554
0.000327821
0.000389923
0.000390203
0.000380123
0.000340612
0.000328425
0.000328594
0.000349502
0.000349678
0.000349913
0.000350087
0.000350296
0.000349355
0.000347504
0.0003244
0.000257508
0.000186307
0.000186388
0.000191812
0.000420008
0.000441975
0.000442255
0.00038638
0.000349964
0.000276237
0.000273723
0.000252908
0.000253049
0.000358869
0.000377707
0.000377949
0.000378089
0.000347175
0.000313918
0.000314073
0.000314209
0.000314352
0.000351051
0.000398179
0.00039837
0.000398466
0.000333112
0.000294648
0.000287379
0.000299365
0.000321032
0.000352267
0.000364166
0.000341903
0.00030823
0.000288643
0.000288757
0.000288882
0.000288038
0.000305956
0.00032503
0.000325159
0.000285306
0.000285425
0.000281877
0.000281987
0.000396637
0.000419676
0.00041984
0.000387817
0.000375836
0.000394511
0.000392669
0.000357797
0.00035792
0.000376204
0.000376341
0.000345303
0.00032555
0.000325648
0.000345058
0.000352763
0.000364587
0.000364686
0.000364783
0.000362091
0.000345786
0.000346512
0.000346407
0.000325051
0.000291933
0.000280574
0.000276474
0.00026558
0.000265655
0.00026933
0.000319569
0.000290234
0.00029029
0.000374385
0.000422746
0.000422821
0.000411135
0.000411519
0.000419718
0.000419779
0.00041815
0.0003986
0.000355206
0.000334255
0.000334289
0.000359994
0.000350306
0.000344851
0.000344889
0.00034858
0.000348445
0.000348461
0.000348351
0.000348362
0.000349659
0.000349678
0.000351164
0.000324806
0.000287027
0.000287069
0.000287005
0.000285735
0.000255782
0.000255766
0.000390341
0.000363576
0.000363234
0.000361005
0.000359392
0.000378688
0.000377447
0.00036881
0.000359259
0.000370307
0.000352011
0.000352495
0.000362429
0.000361313
0.000355684
0.000363352
0.000343708
0.000344874
0.00033828
0.000349439
0.000358831
0.000357843
0.000333024
0.000332178
0.00034256
0.000344956
0.000325497
0.000327535
0.000309138
0.000319753
0.000352678
0.000351848
0.000347305
0.000350234
0.00030747
0.000306787
0.000306084
0.000344213
0.000343461
0.000337419
0.000363738
0.000362974
0.000351362
0.000329833
0.000345546
0.000344276
0.000315082
0.000314492
0.000312606
0.000312022
0.000311444
0.000310887
0.000310355
0.000311332
0.000318933
0.000318412
0.000328225
0.000327697
0.000321732
0.000313378
0.0002995
0.000299053
0.000337862
0.000343863
0.00034338
0.000319162