/*--------------------------------*- C++ -*----------------------------------*\
  =========                 |
  \\      /  F ield         | OpenFOAM: The Open Source CFD Toolbox
   \\    /   O peration     | Website:  https://openfoam.org
    \\  /    A nd           | Version:  7
     \\/     M anipulation  |
\*---------------------------------------------------------------------------*/
FoamFile
{
    version     2.0;
    format      ascii;
    class       volScalarField;
    location    "4500";
    object      nuTotal;
}
// * * * * * * * * * * * * * * * * * * * * * * * * * * * * * * * * * * * * * //

dimensions      [0 2 -1 0 0 0 0];

internalField   nonuniform List<scalar> 
160000
(
7.4492e-07
7.4247e-07
7.43612e-07
7.4128e-07
7.41394e-07
7.38408e-07
7.29725e-07
7.24684e-07
7.26196e-07
7.24987e-07
7.24112e-07
7.22978e-07
7.20604e-07
7.18429e-07
7.16332e-07
7.11877e-07
7.08255e-07
7.0631e-07
7.04083e-07
7.02102e-07
7.00209e-07
7.03512e-07
7.01696e-07
6.97493e-07
6.93607e-07
6.97038e-07
6.95296e-07
6.93546e-07
6.91843e-07
6.90196e-07
6.8444e-07
6.81735e-07
6.80142e-07
6.7858e-07
6.77105e-07
6.80148e-07
6.7864e-07
6.7715e-07
6.75734e-07
6.70041e-07
6.68455e-07
6.67116e-07
6.71023e-07
6.69709e-07
6.68413e-07
6.67088e-07
6.60731e-07
6.57989e-07
6.56815e-07
6.55642e-07
6.60124e-07
6.6054e-07
6.59373e-07
6.58258e-07
6.57153e-07
6.56077e-07
6.49028e-07
6.48001e-07
6.49782e-07
6.49089e-07
6.4759e-07
6.45546e-07
6.44625e-07
6.43732e-07
6.43109e-07
6.42232e-07
6.41343e-07
6.40476e-07
6.39643e-07
6.44125e-07
6.43324e-07
6.4252e-07
6.41754e-07
6.40999e-07
6.35548e-07
6.33237e-07
6.32322e-07
6.31644e-07
6.30971e-07
6.30312e-07
6.29668e-07
6.29016e-07
6.28392e-07
6.29067e-07
6.29774e-07
6.29194e-07
6.28634e-07
6.28103e-07
6.27546e-07
6.27028e-07
6.2677e-07
6.26286e-07
6.24891e-07
6.23585e-07
6.23135e-07
6.24061e-07
6.22776e-07
6.2159e-07
6.20606e-07
6.2028e-07
6.1991e-07
6.20433e-07
6.20086e-07
6.19735e-07
6.21822e-07
6.21504e-07
6.212e-07
6.2091e-07
6.20364e-07
6.16257e-07
6.15989e-07
6.15748e-07
6.15514e-07
6.15287e-07
6.16435e-07
6.16229e-07
6.1728e-07
6.18393e-07
6.17127e-07
6.13473e-07
6.13258e-07
6.1468e-07
6.14543e-07
6.14412e-07
6.1425e-07
6.13433e-07
6.13325e-07
6.13234e-07
6.1315e-07
6.13076e-07
6.13009e-07
6.14293e-07
6.15565e-07
6.15524e-07
6.15485e-07
6.15463e-07
6.15443e-07
6.15437e-07
6.15434e-07
6.16016e-07
6.15323e-07
6.15347e-07
6.15418e-07
6.15453e-07
6.15499e-07
6.15553e-07
6.15323e-07
6.14189e-07
6.13679e-07
6.13758e-07
6.16765e-07
6.16858e-07
6.16958e-07
6.17065e-07
6.1718e-07
6.17298e-07
6.17431e-07
6.15129e-07
6.15274e-07
6.1542e-07
6.18458e-07
6.19061e-07
6.19224e-07
6.16228e-07
6.16759e-07
6.19008e-07
6.19199e-07
6.2201e-07
6.22209e-07
6.22412e-07
6.22624e-07
6.14768e-07
6.14983e-07
6.15204e-07
6.15437e-07
6.20158e-07
6.20392e-07
6.20635e-07
6.19622e-07
6.18408e-07
6.18664e-07
6.18923e-07
6.19193e-07
6.21119e-07
6.22079e-07
6.21942e-07
6.22235e-07
6.22532e-07
6.30119e-07
6.35335e-07
6.32499e-07
6.32594e-07
6.29195e-07
6.22559e-07
6.22868e-07
6.26656e-07
6.52684e-07
6.53055e-07
6.19257e-07
6.16367e-07
6.16704e-07
6.17027e-07
6.17411e-07
6.26937e-07
6.36864e-07
6.37222e-07
6.33918e-07
6.26797e-07
6.27141e-07
6.27497e-07
6.27844e-07
6.28204e-07
6.28558e-07
6.28914e-07
6.29272e-07
6.29643e-07
6.32371e-07
6.33876e-07
6.34247e-07
6.30713e-07
6.31094e-07
6.31478e-07
6.31842e-07
6.35992e-07
6.36871e-07
6.3725e-07
6.37654e-07
6.3804e-07
6.36886e-07
6.34253e-07
6.35151e-07
6.36774e-07
6.38835e-07
6.39238e-07
6.39644e-07
6.40048e-07
6.41411e-07
6.40534e-07
6.40928e-07
6.39414e-07
6.38434e-07
6.40884e-07
6.41281e-07
6.4205e-07
6.44074e-07
6.55062e-07
6.74681e-07
6.89987e-07
6.90484e-07
6.83482e-07
6.37175e-07
6.35422e-07
6.35798e-07
6.39138e-07
6.47009e-07
6.49551e-07
6.49949e-07
6.54251e-07
6.58175e-07
6.58603e-07
6.56425e-07
6.48506e-07
6.48893e-07
6.51513e-07
6.52211e-07
6.52616e-07
6.53035e-07
6.53589e-07
6.63033e-07
6.63476e-07
6.61336e-07
6.49812e-07
6.50197e-07
6.50579e-07
6.50955e-07
6.59527e-07
6.60048e-07
6.6047e-07
6.5566e-07
6.55174e-07
6.55548e-07
6.63293e-07
6.6563e-07
6.6602e-07
6.6489e-07
6.58561e-07
6.58936e-07
6.59301e-07
6.61957e-07
6.6149e-07
6.60788e-07
6.6114e-07
6.61492e-07
6.61865e-07
6.58165e-07
6.57373e-07
6.57762e-07
6.65463e-07
6.83539e-07
7.34322e-07
7.34733e-07
7.35155e-07
6.56768e-07
6.57097e-07
6.57443e-07
6.57752e-07
6.58084e-07
6.60311e-07
6.66348e-07
6.75575e-07
6.76737e-07
6.77053e-07
6.77725e-07
6.78034e-07
6.78368e-07
6.7078e-07
6.70408e-07
6.70712e-07
6.70995e-07
6.72726e-07
6.74961e-07
6.80619e-07
6.89645e-07
6.89946e-07
6.90305e-07
6.90613e-07
6.8674e-07
6.71684e-07
6.71957e-07
6.72229e-07
6.73502e-07
6.76462e-07
6.76726e-07
6.76995e-07
6.77481e-07
6.78151e-07
6.83282e-07
6.89056e-07
6.89306e-07
6.8956e-07
6.82201e-07
6.7839e-07
6.80056e-07
6.85338e-07
6.85563e-07
6.85791e-07
6.86012e-07
6.78505e-07
6.75655e-07
6.7585e-07
6.76055e-07
6.76241e-07
6.81266e-07
6.82644e-07
6.82829e-07
6.83012e-07
6.79335e-07
6.78053e-07
6.78217e-07
6.78386e-07
6.78541e-07
6.81217e-07
6.8181e-07
6.84071e-07
6.84223e-07
6.83495e-07
6.83594e-07
6.83731e-07
6.7998e-07
6.80107e-07
6.80225e-07
6.80361e-07
6.82566e-07
6.82674e-07
6.83315e-07
6.83415e-07
6.83511e-07
6.85348e-07
6.85223e-07
6.8456e-07
6.81769e-07
6.81102e-07
6.82625e-07
6.82691e-07
6.8276e-07
6.82815e-07
6.82876e-07
6.82925e-07
6.82975e-07
6.85885e-07
6.8615e-07
6.89562e-07
6.91636e-07
6.96887e-07
7.18512e-07
7.18521e-07
7.18556e-07
7.29554e-07
7.16932e-07
7.13981e-07
7.47106e-07
7.44661e-07
7.37807e-07
7.40805e-07
7.39862e-07
7.38007e-07
7.35676e-07
7.30322e-07
7.27846e-07
7.24662e-07
7.22426e-07
7.20543e-07
7.20303e-07
7.18502e-07
7.15527e-07
7.10254e-07
7.08319e-07
7.1015e-07
7.08122e-07
7.06151e-07
7.02649e-07
7.03144e-07
6.97123e-07
6.95318e-07
6.93596e-07
6.97103e-07
6.95337e-07
6.93552e-07
6.90321e-07
6.85466e-07
6.83867e-07
6.83785e-07
6.81265e-07
6.78585e-07
6.77109e-07
6.80148e-07
6.76745e-07
6.77171e-07
6.74582e-07
6.6984e-07
6.68439e-07
6.67102e-07
6.68008e-07
6.69712e-07
6.6842e-07
6.67091e-07
6.6445e-07
6.62426e-07
6.57795e-07
6.55627e-07
6.57385e-07
6.60356e-07
6.54862e-07
6.52657e-07
6.51559e-07
6.53398e-07
6.49042e-07
6.49627e-07
6.5004e-07
6.4906e-07
6.48082e-07
6.45562e-07
6.4481e-07
6.44998e-07
6.43723e-07
6.42214e-07
6.43802e-07
6.42953e-07
6.42114e-07
6.39658e-07
6.38848e-07
6.38054e-07
6.40215e-07
6.39218e-07
6.35234e-07
6.33023e-07
6.3232e-07
6.31914e-07
6.32929e-07
6.32269e-07
6.31615e-07
6.30978e-07
6.30485e-07
6.29895e-07
6.29307e-07
6.28713e-07
6.28154e-07
6.28302e-07
6.27784e-07
6.27269e-07
6.26766e-07
6.25945e-07
6.24061e-07
6.23586e-07
6.2449e-07
6.24068e-07
6.21998e-07
6.21154e-07
6.20425e-07
6.20047e-07
6.19679e-07
6.19316e-07
6.21673e-07
6.21329e-07
6.20805e-07
6.21501e-07
6.20233e-07
6.16814e-07
6.16531e-07
6.16254e-07
6.15993e-07
6.17053e-07
6.17964e-07
6.17971e-07
6.18069e-07
6.17931e-07
6.18581e-07
6.18392e-07
6.17805e-07
6.13408e-07
6.13247e-07
6.13097e-07
6.12961e-07
6.12831e-07
6.13369e-07
6.13433e-07
6.13329e-07
6.14236e-07
6.13151e-07
6.13075e-07
6.1301e-07
6.15614e-07
6.15568e-07
6.1391e-07
6.13029e-07
6.14951e-07
6.14684e-07
6.14672e-07
6.1601e-07
6.16016e-07
6.16031e-07
6.16052e-07
6.1542e-07
6.13378e-07
6.13422e-07
6.13478e-07
6.13536e-07
6.13605e-07
6.13677e-07
6.16237e-07
6.16325e-07
6.16419e-07
6.16957e-07
6.17067e-07
6.17179e-07
6.17305e-07
6.17429e-07
6.17021e-07
6.18581e-07
6.18749e-07
6.18903e-07
6.19062e-07
6.15336e-07
6.15459e-07
6.18344e-07
6.19007e-07
6.18927e-07
6.2175e-07
6.23468e-07
6.21832e-07
6.17293e-07
6.14321e-07
6.19055e-07
6.19276e-07
6.17895e-07
6.17409e-07
6.17646e-07
6.17893e-07
6.18143e-07
6.18403e-07
6.18659e-07
6.18921e-07
6.19187e-07
6.23382e-07
6.2366e-07
6.22208e-07
6.25934e-07
6.47656e-07
6.77303e-07
6.77652e-07
6.63219e-07
6.151e-07
6.12175e-07
6.15002e-07
6.2802e-07
6.52354e-07
6.52687e-07
6.5108e-07
6.1663e-07
6.16367e-07
6.16693e-07
6.18942e-07
6.26561e-07
6.35242e-07
6.36872e-07
6.37236e-07
6.26939e-07
6.26786e-07
6.27144e-07
6.27537e-07
6.27847e-07
6.29143e-07
6.31581e-07
6.3105e-07
6.30498e-07
6.32414e-07
6.32775e-07
6.32431e-07
6.30333e-07
6.30712e-07
6.31092e-07
6.33728e-07
6.36129e-07
6.36498e-07
6.36871e-07
6.37261e-07
6.3765e-07
6.38049e-07
6.38431e-07
6.34254e-07
6.33885e-07
6.3427e-07
6.34664e-07
6.35077e-07
6.35477e-07
6.42345e-07
6.42745e-07
6.40535e-07
6.38464e-07
6.3811e-07
6.38429e-07
6.4174e-07
6.42138e-07
6.43923e-07
6.67689e-07
6.93658e-07
6.94125e-07
6.6555e-07
6.34125e-07
6.34585e-07
6.35e-07
6.35395e-07
6.43188e-07
6.47424e-07
6.47808e-07
6.49517e-07
6.53947e-07
6.56578e-07
6.55785e-07
6.47617e-07
6.48067e-07
6.48479e-07
6.53596e-07
6.5398e-07
6.52109e-07
6.52519e-07
6.52925e-07
6.62635e-07
6.6305e-07
6.57686e-07
6.49412e-07
6.49808e-07
6.50192e-07
6.5058e-07
6.54543e-07
6.59666e-07
6.6006e-07
6.60474e-07
6.595e-07
6.55169e-07
6.61668e-07
6.65245e-07
6.65633e-07
6.59545e-07
6.58179e-07
6.58561e-07
6.58932e-07
6.60364e-07
6.62051e-07
6.62412e-07
6.62187e-07
6.59976e-07
6.55713e-07
6.56087e-07
6.58568e-07
6.61689e-07
6.62038e-07
6.74348e-07
7.33937e-07
7.3432e-07
7.34816e-07
6.72764e-07
6.56754e-07
6.57099e-07
6.57427e-07
6.65678e-07
6.75155e-07
6.76305e-07
6.76619e-07
6.73342e-07
6.74616e-07
6.77409e-07
6.77723e-07
6.7805e-07
6.6985e-07
6.70087e-07
6.70401e-07
6.70697e-07
6.72892e-07
6.75324e-07
6.81437e-07
6.89348e-07
6.89641e-07
6.89993e-07
6.67198e-07
6.66981e-07
6.67271e-07
6.71664e-07
6.72738e-07
6.73603e-07
6.79107e-07
6.79789e-07
6.8005e-07
6.79369e-07
6.78136e-07
6.76935e-07
6.80519e-07
6.8214e-07
6.79633e-07
6.80757e-07
6.81899e-07
6.76977e-07
6.77195e-07
6.8534e-07
6.85566e-07
6.85794e-07
6.77375e-07
6.75446e-07
6.75644e-07
6.75856e-07
6.76048e-07
6.79373e-07
6.82456e-07
6.82644e-07
6.80576e-07
6.7863e-07
6.79995e-07
6.80363e-07
6.78221e-07
6.78382e-07
6.78539e-07
6.80346e-07
6.83042e-07
6.84078e-07
6.79005e-07
6.78437e-07
6.78571e-07
6.78718e-07
6.78848e-07
6.80495e-07
6.82253e-07
6.82362e-07
6.82311e-07
6.84779e-07
6.85109e-07
6.85373e-07
6.85467e-07
6.85557e-07
6.84662e-07
6.83377e-07
6.8077e-07
6.80844e-07
6.80915e-07
6.80985e-07
6.82236e-07
6.82192e-07
6.82247e-07
6.84263e-07
6.84512e-07
6.84551e-07
6.84595e-07
6.85526e-07
6.85559e-07
6.89423e-07
7.06617e-07
7.0468e-07
7.22626e-07
7.29547e-07
7.18428e-07
7.13981e-07
7.47145e-07
7.44151e-07
7.37809e-07
7.35851e-07
7.33462e-07
7.35059e-07
7.32699e-07
7.28502e-07
7.28163e-07
7.25972e-07
7.22518e-07
7.20347e-07
7.20316e-07
7.17997e-07
7.13802e-07
7.11743e-07
7.08284e-07
7.06263e-07
7.08114e-07
7.06165e-07
7.04255e-07
6.98906e-07
6.97086e-07
6.96855e-07
6.95118e-07
6.92893e-07
6.91163e-07
6.90668e-07
6.87132e-07
6.85472e-07
6.87442e-07
6.84362e-07
6.80465e-07
6.78587e-07
6.78462e-07
6.79182e-07
6.74867e-07
6.7343e-07
6.72318e-07
6.72967e-07
6.72091e-07
6.70723e-07
6.68979e-07
6.67084e-07
6.64556e-07
6.63249e-07
6.63968e-07
6.62781e-07
6.61595e-07
6.59369e-07
6.57349e-07
6.581e-07
6.57412e-07
6.56307e-07
6.55211e-07
6.54143e-07
6.49662e-07
6.47815e-07
6.468e-07
6.45812e-07
6.49301e-07
6.49055e-07
6.45887e-07
6.44988e-07
6.44499e-07
6.42213e-07
6.41337e-07
6.40494e-07
6.42114e-07
6.40137e-07
6.39719e-07
6.38942e-07
6.38154e-07
6.37413e-07
6.38156e-07
6.3743e-07
6.36731e-07
6.36046e-07
6.32894e-07
6.30622e-07
6.29986e-07
6.29347e-07
6.28726e-07
6.28137e-07
6.28793e-07
6.30703e-07
6.28888e-07
6.26749e-07
6.26225e-07
6.27264e-07
6.26603e-07
6.25476e-07
6.25385e-07
6.2492e-07
6.24474e-07
6.27181e-07
6.26766e-07
6.2636e-07
6.22536e-07
6.22323e-07
6.23157e-07
6.19317e-07
6.19509e-07
6.22048e-07
6.20805e-07
6.18703e-07
6.17081e-07
6.18756e-07
6.18691e-07
6.18416e-07
6.18154e-07
6.16956e-07
6.16721e-07
6.17496e-07
6.17057e-07
6.1685e-07
6.18582e-07
6.1831e-07
6.15475e-07
6.14177e-07
6.16568e-07
6.17819e-07
6.17678e-07
6.16276e-07
6.14387e-07
6.14578e-07
6.16179e-07
6.16087e-07
6.16e-07
6.15927e-07
6.1586e-07
6.12531e-07
6.12138e-07
6.12095e-07
6.13029e-07
6.14467e-07
6.15618e-07
6.15609e-07
6.15608e-07
6.16016e-07
6.14701e-07
6.12439e-07
6.12469e-07
6.15647e-07
6.15696e-07
6.15747e-07
6.15575e-07
6.13603e-07
6.13676e-07
6.16677e-07
6.16765e-07
6.16858e-07
6.16957e-07
6.16807e-07
6.15803e-07
6.15924e-07
6.16919e-07
6.15259e-07
6.15399e-07
6.15545e-07
6.189e-07
6.19061e-07
6.19228e-07
6.15332e-07
6.155e-07
6.1568e-07
6.17837e-07
6.23265e-07
6.23467e-07
6.23679e-07
6.18994e-07
6.1386e-07
6.14075e-07
6.14295e-07
6.17971e-07
6.19571e-07
6.19812e-07
6.20061e-07
6.20312e-07
6.18607e-07
6.18657e-07
6.19083e-07
6.20651e-07
6.21494e-07
6.28839e-07
6.47697e-07
6.73613e-07
6.77011e-07
6.77349e-07
6.68135e-07
6.10394e-07
6.10673e-07
6.1217e-07
6.19674e-07
6.33393e-07
6.48111e-07
6.52708e-07
6.45566e-07
6.27267e-07
6.21573e-07
6.245e-07
6.31689e-07
6.37016e-07
6.33918e-07
6.2741e-07
6.24739e-07
6.25096e-07
6.27874e-07
6.3029e-07
6.30645e-07
6.29287e-07
6.31355e-07
6.31711e-07
6.32072e-07
6.31137e-07
6.32416e-07
6.31886e-07
6.2996e-07
6.30333e-07
6.31749e-07
6.35377e-07
6.35748e-07
6.36123e-07
6.36501e-07
6.32869e-07
6.31651e-07
6.33765e-07
6.36219e-07
6.3421e-07
6.3421e-07
6.34593e-07
6.34274e-07
6.34675e-07
6.37449e-07
6.45099e-07
6.41972e-07
6.39662e-07
6.40631e-07
6.4102e-07
6.39388e-07
6.37284e-07
6.37672e-07
6.44101e-07
6.654e-07
6.8859e-07
6.93659e-07
6.94206e-07
6.54095e-07
6.34172e-07
6.34579e-07
6.34982e-07
6.43235e-07
6.51659e-07
6.52055e-07
6.5127e-07
6.53144e-07
6.56191e-07
6.56592e-07
6.51927e-07
6.47634e-07
6.48051e-07
6.52793e-07
6.53987e-07
6.51276e-07
6.50732e-07
6.53299e-07
6.61146e-07
6.62652e-07
6.52874e-07
6.48862e-07
6.51419e-07
6.52414e-07
6.5281e-07
6.51568e-07
6.54144e-07
6.59672e-07
6.60066e-07
6.60487e-07
6.60892e-07
6.61288e-07
6.58791e-07
6.5621e-07
6.56601e-07
6.56993e-07
6.58172e-07
6.62005e-07
6.62376e-07
6.60531e-07
6.58471e-07
6.58744e-07
6.59236e-07
6.63627e-07
6.75854e-07
6.95115e-07
6.95508e-07
6.95935e-07
6.96355e-07
7.15664e-07
7.33973e-07
7.34415e-07
6.9003e-07
6.5638e-07
6.5674e-07
6.61111e-07
6.70782e-07
6.7357e-07
6.73897e-07
6.68173e-07
6.6874e-07
6.71223e-07
6.72527e-07
6.7368e-07
6.74038e-07
6.69945e-07
6.69764e-07
6.70082e-07
6.71154e-07
6.72695e-07
6.73241e-07
6.78101e-07
6.89049e-07
6.89356e-07
6.75734e-07
6.66353e-07
6.66677e-07
6.6697e-07
6.69369e-07
6.76198e-07
6.7704e-07
6.77467e-07
6.79517e-07
6.79785e-07
6.74852e-07
6.74168e-07
6.7435e-07
6.73985e-07
6.75909e-07
6.76348e-07
6.7426e-07
6.72897e-07
6.72312e-07
6.73435e-07
6.77626e-07
6.79882e-07
6.79441e-07
6.79159e-07
6.76649e-07
6.75435e-07
6.75653e-07
6.76162e-07
6.81811e-07
6.81787e-07
6.79e-07
6.78263e-07
6.78449e-07
6.78627e-07
6.8099e-07
6.81168e-07
6.78219e-07
6.78382e-07
6.81124e-07
6.83768e-07
6.8393e-07
6.84083e-07
6.78293e-07
6.78437e-07
6.80085e-07
6.78759e-07
6.78922e-07
6.82138e-07
6.82257e-07
6.81818e-07
6.79359e-07
6.79466e-07
6.80222e-07
6.81018e-07
6.80022e-07
6.81153e-07
6.84759e-07
6.84843e-07
6.83697e-07
6.83448e-07
6.8202e-07
6.80985e-07
6.81049e-07
6.82192e-07
6.82247e-07
6.82174e-07
6.82222e-07
6.82265e-07
6.86908e-07
6.86944e-07
6.86976e-07
6.88878e-07
6.915e-07
6.97466e-07
7.26908e-07
7.28927e-07
7.13955e-07
7.1396e-07
7.46878e-07
7.42588e-07
7.39677e-07
7.37322e-07
7.34608e-07
7.32245e-07
7.31268e-07
7.28488e-07
7.28119e-07
7.24959e-07
7.22771e-07
7.20821e-07
7.18756e-07
7.18302e-07
7.16175e-07
7.14103e-07
7.11947e-07
7.09303e-07
7.08109e-07
7.04734e-07
7.04454e-07
7.02581e-07
7.0076e-07
6.98385e-07
6.93365e-07
6.91639e-07
6.91515e-07
6.8885e-07
6.87124e-07
6.90512e-07
6.88935e-07
6.87363e-07
6.85805e-07
6.8424e-07
6.82691e-07
6.75256e-07
6.73782e-07
6.73588e-07
6.74934e-07
6.73504e-07
6.72074e-07
6.70697e-07
6.69362e-07
6.68067e-07
6.66056e-07
6.63429e-07
6.62193e-07
6.60989e-07
6.60196e-07
6.60881e-07
6.59685e-07
6.58501e-07
6.57396e-07
6.56307e-07
6.54605e-07
6.53537e-07
6.53451e-07
6.52472e-07
6.52953e-07
6.51962e-07
6.50992e-07
6.49048e-07
6.44688e-07
6.46275e-07
6.45403e-07
6.44521e-07
6.44105e-07
6.46332e-07
6.41339e-07
6.37506e-07
6.36715e-07
6.40222e-07
6.39553e-07
6.38804e-07
6.37253e-07
6.33702e-07
6.33008e-07
6.3233e-07
6.31653e-07
6.34361e-07
6.33721e-07
6.33083e-07
6.32464e-07
6.31884e-07
6.31295e-07
6.30713e-07
6.30138e-07
6.27002e-07
6.26223e-07
6.2571e-07
6.25903e-07
6.25481e-07
6.25002e-07
6.24548e-07
6.26533e-07
6.24839e-07
6.24419e-07
6.26365e-07
6.25976e-07
6.25587e-07
6.25211e-07
6.27434e-07
6.27079e-07
6.22399e-07
6.19918e-07
6.16439e-07
6.15502e-07
6.16191e-07
6.16191e-07
6.15919e-07
6.18158e-07
6.17273e-07
6.16723e-07
6.18428e-07
6.18983e-07
6.18779e-07
6.18582e-07
6.18392e-07
6.16555e-07
6.1538e-07
6.17585e-07
6.17588e-07
6.17448e-07
6.18171e-07
6.1805e-07
6.17935e-07
6.15408e-07
6.15312e-07
6.15808e-07
6.15732e-07
6.15801e-07
6.14784e-07
6.15107e-07
6.16737e-07
6.17519e-07
6.14311e-07
6.13393e-07
6.13383e-07
6.14156e-07
6.12562e-07
6.11168e-07
6.12438e-07
6.15609e-07
6.15651e-07
6.15693e-07
6.15751e-07
6.15807e-07
6.14749e-07
6.15363e-07
6.15085e-07
6.15173e-07
6.15266e-07
6.15367e-07
6.17361e-07
6.175e-07
6.17622e-07
6.1775e-07
6.17887e-07
6.18025e-07
6.18574e-07
6.1687e-07
6.14969e-07
6.15137e-07
6.15305e-07
6.16214e-07
6.21736e-07
6.23069e-07
6.23265e-07
6.23472e-07
6.12876e-07
6.13086e-07
6.13986e-07
6.16872e-07
6.17097e-07
6.1732e-07
6.17553e-07
6.17792e-07
6.18695e-07
6.21854e-07
6.22109e-07
6.19154e-07
6.19461e-07
6.25532e-07
6.3101e-07
6.42595e-07
6.625e-07
6.76716e-07
6.77065e-07
6.37578e-07
6.08992e-07
6.09277e-07
6.11192e-07
6.18296e-07
6.20843e-07
6.21552e-07
6.26899e-07
6.37301e-07
6.39368e-07
6.33851e-07
6.3028e-07
6.3081e-07
6.36679e-07
6.37016e-07
6.37363e-07
6.26663e-07
6.24742e-07
6.2509e-07
6.27587e-07
6.28283e-07
6.28637e-07
6.2983e-07
6.31348e-07
6.31709e-07
6.30873e-07
6.28911e-07
6.29271e-07
6.29635e-07
6.30003e-07
6.31317e-07
6.34701e-07
6.35369e-07
6.35747e-07
6.32918e-07
6.30706e-07
6.31089e-07
6.31472e-07
6.32928e-07
6.35099e-07
6.3744e-07
6.39684e-07
6.39148e-07
6.3626e-07
6.37286e-07
6.43412e-07
6.45494e-07
6.40015e-07
6.37031e-07
6.35755e-07
6.36147e-07
6.36539e-07
6.37283e-07
6.43148e-07
6.58939e-07
6.85181e-07
6.93231e-07
6.93735e-07
6.9425e-07
6.43159e-07
6.34167e-07
6.34569e-07
6.41539e-07
6.50365e-07
6.50821e-07
6.5171e-07
6.52985e-07
6.53381e-07
6.53784e-07
6.49065e-07
6.47217e-07
6.47629e-07
6.48468e-07
6.54705e-07
6.54237e-07
6.50326e-07
6.50731e-07
6.53684e-07
6.63626e-07
6.64047e-07
6.59825e-07
6.48868e-07
6.49266e-07
6.49669e-07
6.50054e-07
6.50436e-07
6.57817e-07
6.59674e-07
6.60082e-07
6.60489e-07
6.60901e-07
6.52494e-07
6.52876e-07
6.55393e-07
6.59589e-07
6.62141e-07
6.62522e-07
6.61996e-07
6.6227e-07
6.60821e-07
6.58402e-07
6.58736e-07
6.61655e-07
6.78291e-07
6.94721e-07
6.95106e-07
6.95532e-07
6.96004e-07
6.72541e-07
6.58781e-07
6.57987e-07
6.58388e-07
6.58798e-07
6.68477e-07
6.64317e-07
6.67714e-07
6.68052e-07
6.65342e-07
6.64111e-07
6.63958e-07
6.65741e-07
6.67502e-07
6.68126e-07
6.70583e-07
6.72615e-07
6.71214e-07
6.69764e-07
6.70278e-07
6.70657e-07
6.72384e-07
6.80613e-07
6.88746e-07
6.89054e-07
6.84968e-07
6.662e-07
6.66375e-07
6.66671e-07
6.71114e-07
6.76853e-07
6.78709e-07
6.77198e-07
6.76696e-07
6.76968e-07
6.77735e-07
6.78871e-07
6.7965e-07
6.79917e-07
6.72264e-07
6.70731e-07
6.69805e-07
6.70049e-07
6.70286e-07
6.70514e-07
6.72443e-07
6.76299e-07
6.79882e-07
6.80107e-07
6.79119e-07
6.76746e-07
6.78582e-07
6.80166e-07
6.80697e-07
6.8181e-07
6.81518e-07
6.81435e-07
6.80449e-07
6.78889e-07
6.78889e-07
6.80514e-07
6.82374e-07
6.82545e-07
6.79891e-07
6.79225e-07
6.79381e-07
6.80199e-07
6.85351e-07
6.85456e-07
6.84067e-07
6.84431e-07
6.82431e-07
6.78691e-07
6.78816e-07
6.78967e-07
6.80027e-07
6.80018e-07
6.79547e-07
6.79254e-07
6.79353e-07
6.79602e-07
6.82759e-07
6.84757e-07
6.84842e-07
6.82622e-07
6.83447e-07
6.83518e-07
6.82162e-07
6.81051e-07
6.81109e-07
6.81827e-07
6.81879e-07
6.84715e-07
6.84758e-07
6.84559e-07
6.85018e-07
6.89031e-07
6.89059e-07
6.89081e-07
6.95142e-07
7.08695e-07
7.13926e-07
7.13956e-07
7.1396e-07
7.45138e-07
7.41246e-07
7.39844e-07
7.37992e-07
7.36122e-07
7.33788e-07
7.32901e-07
7.30625e-07
7.28229e-07
7.26146e-07
7.23327e-07
7.21909e-07
7.19823e-07
7.17342e-07
7.14134e-07
7.14117e-07
7.12123e-07
7.10121e-07
7.08145e-07
7.04606e-07
7.02679e-07
7.01589e-07
7.00761e-07
6.99009e-07
6.9724e-07
6.96938e-07
6.95251e-07
6.93501e-07
6.91797e-07
6.86079e-07
6.84073e-07
6.82519e-07
6.81693e-07
6.79425e-07
6.83042e-07
6.81554e-07
6.80119e-07
6.78679e-07
6.72938e-07
6.68571e-07
6.71225e-07
6.67293e-07
6.65955e-07
6.67127e-07
6.66585e-07
6.65309e-07
6.64076e-07
6.62868e-07
6.60936e-07
6.59679e-07
6.58974e-07
6.5773e-07
6.56609e-07
6.565e-07
6.55417e-07
6.5434e-07
6.53297e-07
6.50432e-07
6.49418e-07
6.50597e-07
6.50996e-07
6.49083e-07
6.43081e-07
6.41813e-07
6.40945e-07
6.40063e-07
6.39187e-07
6.46331e-07
6.45488e-07
6.44657e-07
6.43864e-07
6.43096e-07
6.39185e-07
6.37796e-07
6.3725e-07
6.34225e-07
6.35044e-07
6.34369e-07
6.32108e-07
6.31451e-07
6.30811e-07
6.33087e-07
6.31766e-07
6.28643e-07
6.2806e-07
6.27471e-07
6.26905e-07
6.28492e-07
6.28757e-07
6.28242e-07
6.27746e-07
6.29271e-07
6.28793e-07
6.28328e-07
6.27887e-07
6.25717e-07
6.23596e-07
6.23193e-07
6.22804e-07
6.22419e-07
6.20368e-07
6.27431e-07
6.2708e-07
6.26735e-07
6.26398e-07
6.18146e-07
6.15501e-07
6.15535e-07
6.17739e-07
6.17432e-07
6.17927e-07
6.17803e-07
6.17565e-07
6.16813e-07
6.16591e-07
6.16389e-07
6.18586e-07
6.18394e-07
6.17957e-07
6.18039e-07
6.17787e-07
6.17633e-07
6.18301e-07
6.18172e-07
6.16329e-07
6.16215e-07
6.17427e-07
6.20148e-07
6.20064e-07
6.16743e-07
6.13793e-07
6.13731e-07
6.13684e-07
6.1364e-07
6.20762e-07
6.20736e-07
6.20719e-07
6.18958e-07
6.15371e-07
6.11504e-07
6.11168e-07
6.1119e-07
6.1122e-07
6.13189e-07
6.15422e-07
6.15475e-07
6.15598e-07
6.169e-07
6.16973e-07
6.17054e-07
6.17198e-07
6.18229e-07
6.16883e-07
6.14313e-07
6.14432e-07
6.14549e-07
6.14681e-07
6.1616e-07
6.2251e-07
6.22661e-07
6.22813e-07
6.22987e-07
6.23146e-07
6.16866e-07
6.14536e-07
6.21736e-07
6.18455e-07
6.23269e-07
6.23476e-07
6.2131e-07
6.13441e-07
6.14157e-07
6.15574e-07
6.17856e-07
6.18082e-07
6.18314e-07
6.1855e-07
6.19311e-07
6.21069e-07
6.221e-07
6.22361e-07
6.22627e-07
6.22895e-07
6.3595e-07
6.77344e-07
6.45076e-07
6.13036e-07
6.08374e-07
6.08683e-07
6.08977e-07
6.10303e-07
6.19487e-07
6.2714e-07
6.2386e-07
6.21566e-07
6.25438e-07
6.32826e-07
6.31894e-07
6.26507e-07
6.28539e-07
6.28772e-07
6.36672e-07
6.37014e-07
6.37363e-07
6.26672e-07
6.24739e-07
6.25085e-07
6.26732e-07
6.28869e-07
6.30024e-07
6.30983e-07
6.31345e-07
6.30122e-07
6.2855e-07
6.2891e-07
6.30621e-07
6.33298e-07
6.33665e-07
6.33925e-07
6.31185e-07
6.31559e-07
6.31934e-07
6.33894e-07
6.33691e-07
6.32755e-07
6.34712e-07
6.37903e-07
6.39398e-07
6.39789e-07
6.40181e-07
6.39885e-07
6.3716e-07
6.39118e-07
6.40208e-07
6.4572e-07
6.36166e-07
6.36561e-07
6.37367e-07
6.42257e-07
6.44296e-07
6.44698e-07
6.45671e-07
6.60943e-07
6.92823e-07
6.93321e-07
6.74805e-07
6.43507e-07
6.33735e-07
6.34148e-07
6.40134e-07
6.5055e-07
6.51951e-07
6.50947e-07
6.51416e-07
6.51751e-07
6.49746e-07
6.47084e-07
6.46805e-07
6.47215e-07
6.47624e-07
6.50867e-07
6.54947e-07
6.56399e-07
6.56805e-07
6.53585e-07
6.57129e-07
6.58909e-07
6.6405e-07
6.64497e-07
6.53054e-07
6.49286e-07
6.49668e-07
6.5065e-07
6.58905e-07
6.59286e-07
6.5969e-07
6.54597e-07
6.51064e-07
6.51458e-07
6.51848e-07
6.55998e-07
6.59913e-07
6.60297e-07
6.59233e-07
6.61139e-07
6.6217e-07
6.62543e-07
6.61e-07
6.58377e-07
6.58731e-07
6.66286e-07
6.85465e-07
6.94717e-07
6.95138e-07
6.95615e-07
6.68279e-07
6.52845e-07
6.53202e-07
6.53564e-07
6.60379e-07
6.67962e-07
6.79019e-07
6.79393e-07
6.63552e-07
6.62928e-07
6.63267e-07
6.63592e-07
6.63946e-07
6.67249e-07
6.69107e-07
6.70488e-07
6.7228e-07
6.72617e-07
6.64374e-07
6.64583e-07
6.6489e-07
6.68425e-07
6.74247e-07
6.8267e-07
6.88749e-07
6.83719e-07
6.68942e-07
6.66078e-07
6.66373e-07
6.68732e-07
6.76883e-07
6.81063e-07
6.81349e-07
6.81637e-07
6.77682e-07
6.76968e-07
6.77232e-07
6.8051e-07
6.79645e-07
6.8437e-07
6.80081e-07
6.72966e-07
6.70855e-07
6.7005e-07
6.70414e-07
6.74152e-07
6.74398e-07
6.74626e-07
6.74851e-07
6.75082e-07
6.75302e-07
6.77871e-07
6.8068e-07
6.80884e-07
6.81145e-07
6.81807e-07
6.81515e-07
6.77904e-07
6.78091e-07
6.78275e-07
6.80027e-07
6.81458e-07
6.8176e-07
6.82546e-07
6.82711e-07
6.81429e-07
6.82733e-07
6.87791e-07
6.93482e-07
6.91923e-07
6.9098e-07
6.84432e-07
6.89858e-07
6.80806e-07
6.78664e-07
6.78784e-07
6.78038e-07
6.76458e-07
6.76565e-07
6.76886e-07
6.82449e-07
6.82544e-07
6.82635e-07
6.83447e-07
6.84279e-07
6.82618e-07
6.81266e-07
6.81088e-07
6.81157e-07
6.81231e-07
6.83911e-07
6.8398e-07
6.83278e-07
6.83327e-07
6.84734e-07
6.8428e-07
6.83748e-07
6.83779e-07
6.83805e-07
6.91288e-07
6.93651e-07
6.97196e-07
7.00047e-07
7.16901e-07
7.16895e-07
7.47166e-07
7.42193e-07
7.41304e-07
7.39145e-07
7.37571e-07
7.35182e-07
7.32845e-07
7.30573e-07
7.28356e-07
7.26193e-07
7.24007e-07
7.21895e-07
7.19777e-07
7.17591e-07
7.14156e-07
7.11612e-07
7.09611e-07
7.10127e-07
7.08178e-07
7.06211e-07
7.04049e-07
6.99908e-07
6.98091e-07
6.98998e-07
6.9693e-07
6.9379e-07
6.94813e-07
6.92452e-07
6.92945e-07
6.91084e-07
6.84056e-07
6.82504e-07
6.80968e-07
6.79435e-07
6.83071e-07
6.81564e-07
6.80113e-07
6.78673e-07
6.75614e-07
6.68558e-07
6.67174e-07
6.66311e-07
6.67285e-07
6.67872e-07
6.66585e-07
6.63891e-07
6.62657e-07
6.62433e-07
6.62163e-07
6.59687e-07
6.58479e-07
6.58716e-07
6.57605e-07
6.56491e-07
6.5541e-07
6.5435e-07
6.50768e-07
6.4974e-07
6.50217e-07
6.49231e-07
6.4826e-07
6.49325e-07
6.45548e-07
6.41814e-07
6.40943e-07
6.4006e-07
6.39179e-07
6.44668e-07
6.45487e-07
6.44657e-07
6.37756e-07
6.34166e-07
6.33392e-07
6.34243e-07
6.37247e-07
6.34386e-07
6.33675e-07
6.32996e-07
6.33292e-07
6.34354e-07
6.33713e-07
6.33086e-07
6.31767e-07
6.31418e-07
6.30829e-07
6.30245e-07
6.2718e-07
6.26384e-07
6.25844e-07
6.25329e-07
6.28257e-07
6.29279e-07
6.28646e-07
6.25014e-07
6.2519e-07
6.24762e-07
6.27248e-07
6.27404e-07
6.27006e-07
6.20738e-07
6.20371e-07
6.27439e-07
6.27078e-07
6.26723e-07
6.1797e-07
6.14928e-07
6.18028e-07
6.18736e-07
6.18305e-07
6.17431e-07
6.17173e-07
6.16931e-07
6.19572e-07
6.19341e-07
6.18318e-07
6.16389e-07
6.16198e-07
6.18399e-07
6.18214e-07
6.18044e-07
6.17881e-07
6.17734e-07
6.17592e-07
6.16352e-07
6.16228e-07
6.17105e-07
6.18362e-07
6.19408e-07
6.17912e-07
6.13859e-07
6.13788e-07
6.13734e-07
6.1368e-07
6.13642e-07
6.20763e-07
6.20736e-07
6.20719e-07
6.13037e-07
6.1037e-07
6.10267e-07
6.11376e-07
6.14342e-07
6.14764e-07
6.1319e-07
6.13235e-07
6.15536e-07
6.15596e-07
6.15342e-07
6.15416e-07
6.15496e-07
6.1724e-07
6.1823e-07
6.18331e-07
6.18441e-07
6.14466e-07
6.14554e-07
6.18699e-07
6.21886e-07
6.22511e-07
6.22657e-07
6.22826e-07
6.22981e-07
6.23141e-07
6.15488e-07
6.14535e-07
6.14714e-07
6.14897e-07
6.23271e-07
6.23476e-07
6.16306e-07
6.1497e-07
6.17417e-07
6.1763e-07
6.17854e-07
6.17324e-07
6.1631e-07
6.17595e-07
6.19102e-07
6.21333e-07
6.21586e-07
6.21846e-07
6.30143e-07
6.68782e-07
8.67038e-07
7.30989e-07
6.13176e-07
6.08111e-07
6.08402e-07
6.08685e-07
6.10352e-07
6.20612e-07
6.27472e-07
6.2838e-07
6.27624e-07
6.21573e-07
6.23508e-07
6.29369e-07
6.29793e-07
6.26054e-07
6.28493e-07
6.28739e-07
6.36666e-07
6.3701e-07
6.37217e-07
6.2512e-07
6.24733e-07
6.25078e-07
6.27182e-07
6.29351e-07
6.30622e-07
6.30981e-07
6.31343e-07
6.2828e-07
6.28544e-07
6.28903e-07
6.31284e-07
6.33293e-07
6.33666e-07
6.34039e-07
6.34418e-07
6.31655e-07
6.33307e-07
6.35788e-07
6.36169e-07
6.36554e-07
6.36939e-07
6.37783e-07
6.394e-07
6.38807e-07
6.37561e-07
6.37951e-07
6.38331e-07
6.44136e-07
6.44533e-07
6.47071e-07
6.39412e-07
6.38019e-07
6.44764e-07
6.47128e-07
6.42867e-07
6.4199e-07
6.51027e-07
6.63561e-07
6.64013e-07
6.42644e-07
6.3965e-07
6.40114e-07
6.40553e-07
6.42387e-07
6.47518e-07
6.5175e-07
6.52146e-07
6.52545e-07
6.4969e-07
6.4656e-07
6.45987e-07
6.46395e-07
6.46801e-07
6.47843e-07
6.53592e-07
6.55586e-07
6.5599e-07
6.56398e-07
6.54867e-07
6.53806e-07
6.61274e-07
6.61691e-07
6.64076e-07
6.57015e-07
6.48897e-07
6.49283e-07
6.5015e-07
6.55155e-07
6.589e-07
6.59296e-07
6.56433e-07
6.50668e-07
6.51064e-07
6.52334e-07
6.56632e-07
6.58439e-07
6.58826e-07
6.56891e-07
6.57277e-07
6.57652e-07
6.58031e-07
6.58402e-07
6.5889e-07
6.59468e-07
6.62495e-07
6.73435e-07
6.94335e-07
6.94746e-07
6.93104e-07
6.55651e-07
6.54565e-07
6.5493e-07
6.5946e-07
6.63307e-07
6.73713e-07
6.74562e-07
6.79005e-07
6.79378e-07
6.64355e-07
6.62921e-07
6.6325e-07
6.63581e-07
6.66966e-07
6.71296e-07
6.7162e-07
6.7195e-07
6.72283e-07
6.68282e-07
6.64267e-07
6.64582e-07
6.64895e-07
6.71599e-07
6.77093e-07
6.78563e-07
6.77038e-07
6.7439e-07
6.71097e-07
6.70208e-07
6.72853e-07
6.77373e-07
6.80615e-07
6.80905e-07
6.81193e-07
6.81635e-07
6.79219e-07
6.76966e-07
6.7723e-07
6.83235e-07
6.83494e-07
6.84369e-07
6.84632e-07
6.7135e-07
6.69815e-07
6.70051e-07
6.72841e-07
6.74153e-07
6.72753e-07
6.73146e-07
6.76624e-07
6.76848e-07
6.75302e-07
6.75513e-07
6.78867e-07
6.81409e-07
6.81611e-07
6.79535e-07
6.78907e-07
6.77901e-07
6.7809e-07
6.78275e-07
6.78731e-07
6.80633e-07
6.80736e-07
6.80925e-07
6.83616e-07
6.88469e-07
6.90516e-07
6.91402e-07
6.93595e-07
6.93744e-07
6.93202e-07
6.8546e-07
6.89858e-07
6.89988e-07
6.79799e-07
6.75932e-07
6.76047e-07
6.77038e-07
6.7712e-07
6.76609e-07
6.76705e-07
6.76923e-07
6.78548e-07
6.8267e-07
6.85102e-07
6.85184e-07
6.8243e-07
6.83522e-07
6.84193e-07
6.84256e-07
6.8391e-07
6.83982e-07
6.84035e-07
6.84099e-07
6.84144e-07
6.84044e-07
6.84079e-07
6.83951e-07
6.87057e-07
6.92546e-07
6.9256e-07
6.92587e-07
6.92811e-07
6.98439e-07
6.98447e-07
7.4461e-07
7.44746e-07
7.42236e-07
7.39914e-07
7.37548e-07
7.33007e-07
7.30637e-07
7.29103e-07
7.27759e-07
7.24308e-07
7.23998e-07
7.21712e-07
7.18356e-07
7.16188e-07
7.14587e-07
7.11626e-07
7.11677e-07
7.09454e-07
7.0818e-07
7.04858e-07
7.01751e-07
6.99847e-07
7.00771e-07
6.99023e-07
6.95935e-07
6.93788e-07
6.94301e-07
6.92245e-07
6.92923e-07
6.89702e-07
6.8406e-07
6.82484e-07
6.81359e-07
6.79438e-07
6.83098e-07
6.81587e-07
6.80095e-07
6.73762e-07
6.7234e-07
6.71543e-07
6.67278e-07
6.65897e-07
6.65672e-07
6.66722e-07
6.63558e-07
6.6235e-07
6.64542e-07
6.63323e-07
6.62282e-07
6.61073e-07
6.59868e-07
6.5872e-07
6.57607e-07
6.56287e-07
6.54146e-07
6.53095e-07
6.50779e-07
6.49748e-07
6.49407e-07
6.49415e-07
6.50284e-07
6.49337e-07
6.4344e-07
6.41803e-07