/*--------------------------------*- C++ -*----------------------------------*\
  =========                 |
  \\      /  F ield         | OpenFOAM: The Open Source CFD Toolbox
   \\    /   O peration     | Website:  https://openfoam.org
    \\  /    A nd           | Version:  7
     \\/     M anipulation  |
\*---------------------------------------------------------------------------*/
FoamFile
{
    version     2.0;
    format      ascii;
    class       volScalarField;
    location    "4500";
    object      p;
}
// * * * * * * * * * * * * * * * * * * * * * * * * * * * * * * * * * * * * * //

dimensions      [1 -1 -2 0 0 0 0];

internalField   nonuniform List<scalar> 
160000
(
72147.2
72148.2
72150.8
72154.1
72158
72163.1
72169.5
72177.3
72187.4
72195.8
72204
72214.8
72226.2
72236.2
72247.4
72261.8
72279.1
72295.4
72308.8
72322.8
72341.1
72363.4
72385.8
72407.4
72432.3
72456.8
72475.6
72493.7
72514.6
72539.6
72572.1
72605.1
72629.4
72654.4
72689.6
72721.4
72746.2
72770.7
72801.5
72836
72867.9
72903.5
72936.3
72971.1
73004
73030.5
73062
73108.2
73154
73192.9
73233.5
73265.2
73296.9
73332.4
73365.9
73404.6
73441.5
73479.8
73539.8
73594.5
73625.4
73655.5
73703.8
73763.6
73828.9
73872.9
73912.4
73952.5
73996.3
74063.4
74104
74145.1
74194.4
74245.6
74300.8
74353.2
74406.3
74463.5
74515.8
74564.8
74610.7
74650
74693.4
74748.4
74799.2
74843.3
74894.6
74960.9
75028
75082.1
75138.7
75191.5
75231.8
75273.1
75328.5
75402.7
75473.9
75538.3
75604
75678.1
75747
75815.5
75875.4
75923.2
75980.5
76045
76113.1
76178.5
76234.6
76290.5
76347.6
76422.5
76493.6
76558.2
76637.9
76708.1
76777.7
76844.8
76895.7
76944.1
77004.3
77085.5
77163.9
77231.1
77292.2
77339.7
77387.7
77458.9
77538.9
77611.8
77695.4
77785.4
77842
77882.2
77930
77999.2
78068.3
78138.7
78235.9
78347.7
78420.3
78471.7
78537.1
78615.7
78670.4
78732.7
78809.5
78883.2
78963.5
79055
79146
79231.1
79326.5
79401.8
79478.4
79563.7
79639.9
79704.4
79770.2
79839.6
79909.6
79988.6
80074.7
80160.5
80254.3
80336.2
80393.9
80458.7
80535.7
80620.2
80699.1
80772.9
80870.2
80932.2
80987.5
81076.6
81163.6
81248.4
81311.1
81369.7
81460.2
81545.3
81620.2
81727.2
81821.6
81901.9
81983.1
82067.4
82151.8
82214.9
82273.2
82349.1
82432.7
82492.3
82536.4
82584.3
82632
82666.5
82709
82769.3
82826.2
82885.7
82939.8
82981.4
83018.3
83063.2
83135.7
83214.2
83276.7
83338.3
83399.1
83454.6
83515.2
83587.9
83650.2
83711.1
83789.1
83851.2
83904.3
83968.8
84029.5
84089.5
84166.5
84242.1
84313
84383.7
84453.5
84534.2
84616
84697.9
84827.2
84931.7
85008.4
85084.2
85168.7
85249
85335.7
85430.6
85533.1
85633
85724.5
85821.3
85896.8
85969.9
86048.9
86110.2
86167.9
86240.2
86313.5
86385.6
86466.1
86545.5
86623.7
86714.6
86790.1
86843.4
86904
86981.6
87055.4
87110
87160.9
87220.4
87286.8
87359
87428.3
87493.8
87565.2
87634.5
87693.9
87750.9
87830
87947.6
88053.4
88160.3
88248.5
88320.8
88381.4
88444.8
88541.3
88654.3
88747
88829.3
88902.4
88975.5
89059.3
89161.9
89249.8
89338.1
89403.9
89454
89510.6
89592.8
89693.3
89782.1
89870.2
89945.1
90017.6
90116.4
90196.2
90261.8
90341.2
90422.9
90509.1
90606.7
90705.5
90810.9
90905.5
90992.8
91086.4
91146.5
91204.3
91279.8
91353.5
91425.6
91524
91648.5
91754.9
91854.6
91942.4
92021.5
92114.9
92214
92298.1
92371
92461
92567
92641.5
92709.5
92803.4
92907.6
93000.7
93100.6
93212
93307.1
93401.2
93503.1
93584.6
93653.7
93714.7
93789
93928.9
94069.3
94186
94305.4
94396.7
94492.9
94644.7
94790.2
94930.8
95057.4
95172.6
95286.9
95372.4
95454.3
95563
95675.7
95774.1
95875.6
96002.3
96149.7
96291.3
96406.1
96504
96607.8
96707.2
96811.4
96929.7
97005.7
97082.1
97219.5
97399.1
97575.6
97728.1
97828.4
97936.8
98068.4
98192.8
98343.1
98499.9
98660.6
98802
98956.9
99101.7
99234.7
99377.6
99507.2
99624.3
99744.4
99877.3
100021
100169
100318
100447
100579
100735
100840
100939
101089
101196
101280
72148
72149.1
72151.7
72154.9
72159.1
72164.4
72170.7
72177.9
72187.1
72196.1
72204.5
72215
72227.7
72239.3
72250.2
72263.5
72281.1
72295.1
72307.7
72321.9
72340.2
72362.3
72383.7
72405.6
72431.7
72459.1
72478.2
72495.7
72516.1
72540.3
72570.1
72601.8
72629.2
72656.2
72691.1
72721.6
72745.4
72773.3
72809.3
72838.2
72866.5
72901.9
72936.3
72972.9
73004.5
73030.6
73063.4
73112.4
73157.3
73190.2
73224.5
73261.8
73300.3
73333.9
73367.5
73410.2
73447.4
73487.5
73536.2
73584.1
73625
73662.2
73707
73764.7
73824
73869.3
73915.6
73960.8
74007.6
74056
74098
74141.8
74192.3
74247.6
74302.9
74353.1
74405.4
74462.5
74514.8
74563.1
74608.3
74651.6
74700.2
74758.2
74805.2
74844.8
74893.4
74956.7
75023.1
75081.3
75133.3
75185.9
75231.2
75275
75335.4
75410.3
75478.8
75544.3
75608.5
75680.9
75748.5
75811.3
75878.8
75927.3
75975.3
76041.2
76110.2
76173.1
76232.5
76289.4
76347.2
76419.3
76494
76568.2
76643.6
76711.9
76779.6
76842
76896.8
76948.2
77004
77075.8
77153.9
77222.5
77286.5
77340.6
77396.2
77467.7
77540.5
77614.3
77701.5
77789.8
77840.1
77881.4
77934.8
78013.1
78072.6
78130.9
78236.1
78346.3
78422.2
78476.3
78537
78608.1
78666.3
78732.6
78811.4
78888.3
78975.5
79073.7
79146.7
79220.7
79327.4
79404.2
79475.7
79555.2
79630.8
79699.8
79772.9
79845.5
79917
79989.6
80066.7
80159.3
80259.3
80340.8
80399.6
80462.4
80533.9
80604.8
80685.3
80769.4
80872.3
80933.7
80997.1
81084.9
81159
81237.6
81310
81377.4
81464.7
81553.4
81642.5
81747.5
81829.1
81901.6
81981.7
82068.1
82150.4
82209.9
82266.2
82343
82436.1
82496.8
82541.9
82583.9
82625.4
82662.2
82702.8
82761.2
82818.9
82875.4
82931.2
82977.7
83015.6
83057.4
83125.3
83202.1
83265.4
83328.2
83390.4
83450.8
83508.5
83576.6
83648
83710.2
83776.5
83843.2
83903.4
83968.5
84032.7
84102
84175.3
84246.7
84316.9
84386
84456.5
84536.6
84617.2
84702.5
84824
84933.5
85008.7
85077.5
85160.4
85245.5
85335.3
85429.7
85533.5
85634.7
85731
85833.5
85901.8
85965.5
86043.2
86104.1
86156.2
86221.2
86310.2
86397.8
86481
86555.5
86617.4
86688.3
86770.7
86833.2
86899.8
86970.5
87037.3
87103.4
87167.1
87230.4
87294
87363.7
87427.3
87488.8
87562.5
87632.2
87689.1
87751.1
87845.3
87949.1
88046.8
88158.4
88248
88321.6
88379.3
88441
88544.1
88653.8
88746.6
88826.9
88901.4
88975.4
89055
89145.8
89236.3
89329.3
89405.2
89466.2
89530.6
89607.1
89691.6
89774.7
89864.4
89945.8
90022.3
90116.2
90193.7
90256.9
90330.7
90414.5
90504.3
90606.7
90700.3
90795.6
90886.8
90973.6
91063.7
91134.9
91202.1
91279.8
91351.4
91424.4
91514.7
91632.4
91752.7
91857.6
91944.7
92025.3
92113.2
92207.3
92292.5
92364.7
92450.3
92567
92647.6
92714.6
92801.2
92912.2
92996.9
93083.5
93203.1
93296.4
93384.4
93492.7
93574.5
93643.5
93718.3
93815.3
93944.8
94073.8
94185.7
94294.3
94397.2
94499.2
94623.9
94771.1
94922.8
95057.7
95176.3
95290
95376.2
95455
95558.3
95679.5
95779.4
95876.8
95999
96151
96293.1
96404.9
96500
96598.1
96694.4
96804.1
96917
97003.3
97100.7
97240.2
97387.4
97544.2
97697
97823.5
97944.5
98079
98221.3
98364.6
98516.7
98667.5
98800.9
98959.6
99087.4
99200.8
99360.3
99504.1
99626
99754.1
99887.5
100017
100164
100316
100441
100574
100725
100834
100943
101079
101189
101281
72149.9
72151.6
72154
72157.2
72161
72165.9
72172.3
72179.2
72187.6
72196.9
72205.5
72216.1
72229.9
72242.6
72253
72265.6
72280.5
72293.8
72308.2
72323.3
72340.7
72360.3
72381.2
72406.3
72431.2
72457.1
72479.9
72499.6
72518.3
72541.3
72572.8
72604.1
72632.1
72658.4
72688.2
72719.7
72746.4
72777.6
72814.6
72842.8
72869.7
72900.9
72935.8
72973.8
73003.2
73030.5
73070.6
73119.9
73160
73189.1
73218.2
73254.8
73298.8
73337
73374.1
73416.1
73454.3
73494.3
73534.9
73576.6
73625.8
73668.3
73709.2
73762.6
73824
73867.6
73909.4
73959.6
74007.6
74051.9
74100.2
74148.9
74195.8
74250.4
74303.6
74352
74406.7
74461.2
74508.9
74560.3
74609.4
74653.3
74701.9
74760.1
74811.2
74854
74901.7
74952.3
75011.7
75074.6
75127.1
75178.5
75231.3
75282.6
75345.8
75418.8
75486.6
75554.7
75619.4
75684.5
75750.6
75811.5
75872.9
75928.8
75977.3
76033.2
76100.6
76170.9
76236.1
76292.5
76354.1
76423.9
76492.5
76572.4
76646
76714.6
76782
76838.7
76890.9
76948.2
77011.1
77081.8
77150.3
77217.1
77281.1
77339.5
77402.6
77471.9
77544
77623.4
77707.4
77776.6
77832.7
77884.7
77942.3
78015.3
78080
78144.7
78237.1
78342.2
78422.7
78479.3
78538.5
78609.5
78668.6
78731.1
78811
78895.8
78986.6
79075.6
79148.7
79230.2
79332.9
79404.2
79468
79548
79625.8
79694
79771.7
79848.2
79922.7
79994.2
80067.6
80156.7
80256.1
80342.4
80408.8
80475.4
80539.6
80600.6
80673.2
80758
80845.8
80929.2
81019.1
81098.3
81163.3
81233.5
81312
81385.2
81464.8
81567.7
81671.4
81759.4
81833.8
81904.2
81980.8
82061.7
82138.1
82203.4
82269.3
82357.8
82433.3
82494.1
82543.2
82581.9
82617.7
82654
82693.6
82749.9
82811.5
82863.9
82911.5
82958.4
83008.8
83060.9
83132.8
83194
83248.2
83322
83385.6
83438.5
83496.1
83570.4
83642.8
83705.2
83768
83836.3
83909.3
83977.5
84037.1
84102.8
84175.1
84245.6
84318.6
84390.3
84466
84547.6
84619.6
84702
84815.1
84922.8
85010.9
85090.1
85163.1
85236.3
85327.5
85432.4
85544.8
85638.6
85731
85835.8
85903.9
85963.7
86031
86093.7
86147
86207.9
86309
86408.5
86490.3
86554.6
86615.1
86679.5
86750.1
86819.8
86887.8
86955.7
87023.3
87098.7
87172
87233.2
87296.4
87365.5
87432.5
87494.1
87555.4
87617.3
87681.6
87760.2
87853.3
87952.2
88053.8
88158.7
88242.2
88317.5
88377.8
88441.7
88545.9
88647.3
88741.5
88820.8
88892.9
88974.9
89061
89143
89225.6
89320.4
89402.7
89478.5
89549.7
89620.1
89699.7
89778.5
89859.4
89937.1
90016.6
90111.6
90185.2
90249.7
90327.4
90414.7
90512.1
90603.6
90687.5
90770.6
90859.1
90956.8
91048.3
91121.2
91196
91271.8
91340.2
91418.7
91520.1
91638.6
91748.2
91852.4
91942.7
92026.5
92108.6
92189.2
92272.6
92358.6
92461.4
92563.8
92646.7
92721.1
92807.8
92918.2
93000.4
93077.1
93184.4
93283.1
93368.5
93475.9
93559.5
93632
93719.5
93827.5
93953.8
94091.4
94197
94287.6
94393
94503.5
94614.5
94745.8
94909.9
95063.2
95177
95288.1
95374.5
95455.1
95571.3
95692.2
95787.8
95878.1
95985.5
96140.6
96291.3
96404.7
96494.4
96579.1
96668.3
96788.1
96910.2
97009.1
97132
97259.8
97380.9
97515.7
97660.9
97805.7
97942.6
98080.1
98231.9
98396.5
98550.9
98673.8
98798.4
98960.2
99081.4
99183.9
99327.2
99499.3
99636
99755
99878.1
100006
100157
100306
100436
100572
100710
100829
100956
101078
101180
101278
72152.4
72153.8
72156.1
72159
72162.6
72167.3
72173.6
72180.3
72188
72196.9
72206.6
72219.4
72233.3
72244.6
72254.7
72267.5
72281.8
72295.5
72310.6
72325.5
72343
72360.7
72381.2
72409
72430.6
72453.8
72481.3
72501
72520.4
72546.2
72576.3
72608.3
72637.6
72663.1
72688.7
72718.2
72749.3
72784.1
72819.8
72845.6
72870.3
72898.9
72933.5
72972.4
73005.3
73038
73078.6
73122
73158.3
73190.2
73219.6
73251.5
73295.1
73337
73374.2
73415.1
73457.8
73500.1
73540.8
73583.4
73629.2
73670.2
73711.1
73767.2
73827.3
73871.3
73913.1
73960
74004.5
74045.2
74093.1
74154.3
74206.1
74257.1
74300.6
74342.6
74398.7
74455.2
74506.9
74564.2
74610.2
74654.4
74707.3
74769.7
74818.4
74860
74906.5
74954.4
75010.8
75068.2
75122.9
75179.8
75232.3
75291
75360.4
75422.2
75483.5
75563
75634.3
75690.2
75747.6
75811.3
75870.7
75926.7
75979
76032.9
76094.3
76166.9
76234.4
76294.8
76366.2
76434.3
76497.1
76569.3
76643.1
76718
76788.4
76840.9
76888.7
76950.2
77018.1
77086.3
77152.2
77221.4
77279
77334.1
77399.5
77470.3
77547.6
77624.4
77704.4
77769.7
77828.6
77889
77947.7
78016.7
78085.3
78154.9
78238.3
78329.6
78411.1
78483.6
78551.8
78617.2
78677.6
78736
78808.3
78902.9
78999.1
79076.2
79148.8
79231.9
79320.4
79402.6
79475.6
79556.2
79627.5
79695.3
79779.2
79852.1
79919.2
79992.5
80065.7
80150.5
80256.8
80349.4
80417.8
80481.8
80541.3
80597.2
80666.8
80761.5
80848.1
80928.7
81015.1
81098.1
81169.5
81245.4
81328.5
81398.9
81470.7
81570.3
81684.1
81764.8
81832.4
81896.3
81969.4
82053.5
82134.4
82213.6
82296.6
82362.2
82414.7
82474.9
82534.5
82577.5
82610.6
82643.9
82683.4
82737.3
82800.6
82853.7
82897.6
82940.4
82994.3
83057.2
83129.9
83189.7
83244.6
83322.5
83377.5
83425.9
83486.3
83562.9
83636.9
83702.4
83765.3
83834.8
83911.1
83977.5
84039.2
84105.1
84172.2
84242.6
84321.8
84397
84473.4
84555.9
84631.3
84716.6
84807.1
84901.3
85012
85094
85166.5
85245.3
85331
85424.5
85531.2
85628.8
85726
85837.8
85904.9
85964
86025.8
86085.2
86140.5
86203
86308.2
86405.7
86483
86545.2
86610.1
86670.5
86730.9
86808.5
86877.8
86940.2
87009.4
87089.7
87169.1
87233.6
87295.4
87363.4
87437.4
87503.3
87560.5
87614.5
87681.4
87758.7
87835.3
87938.1
88058.1
88154.1
88236
88309.2
88375.2
88446.7
88536.7
88637.7
88739.6
88822
88899.5
88975.6
89053.6
89137.8
89222.7
89318.3
89396.5
89475.7
89566.4
89633.9
89701.7
89773.7
89847.9
89927.7
90013
90104.1
90183.1
90259.4
90338.9
90419.8
90495.6
90576.3
90668.9
90759.4
90850.9
90947.7
91035.2
91111.5
91194.5
91263.2
91327.7
91412
91517.2
91627.6
91739.7
91859.4
91940.2
92012.2
92093.2
92174.5
92262.9
92363.8
92474.5
92560.8
92642.4
92716.9
92793.9
92910.8
93008
93088.7
93180.6
93276
93358.5
93450.8
93541.7
93618.4
93717.9
93840.4
93961.4
94090
94205.8
94291.4
94384
94504.2
94627
94752.7
94894.4
95044.3
95158.3
95271.3
95374.2
95466.9
95584.9
95698.1
95799
95893
95991.4
96118
96262.8
96392.1
96492.2
96577
96654
96757.6
96892.9
97008.9
97136.4
97253.8
97366.4
97496.7
97637.6
97791
97952.4
98098.7
98249.6
98436
98579.3
98682.6
98796
98960.5
99075.7
99171.5
99304.5
99488.3
99637.6
99750.4
99869.1
99994.6
100126
100280
100427
100568
100710
100838
100961
101076
101184
101281
72154.3
72155.8
72158
72160.8
72164.6
72169.5
72175.4
72182
72189.5
72199.1
72210.5
72225.4
72236.8
72245.5
72255.5
72269.6
72284.2
72299.4
72314.5
72328
72342.7
72361
72382.9
72410
72433.4
72459.5
72484.9
72504.4
72526.2
72550.8
72575.3
72607.9
72640.1
72666
72690.7
72721.2
72756.8
72790.7
72818.7
72843.8
72871.9
72900.7
72932.9
72974
73011
73046.2
73087.3
73127.7
73158.3
73186.9
73218.8
73253.5
73295.4
73337.4
73377.8
73418.1
73460
73502.2
73543.6
73587.7
73633.1
73677.2
73721.3
73774.4
73833.5
73875.5
73915.2
73959.8
74004.3
74046.4
74094.8
74152.9
74201.7
74253.2
74300.4
74341.2
74391.7
74452.4
74511
74561.2
74606.6
74659.2
74714.2
74772.9
74822.2
74864.6
74911.2
74959.3
75010.2
75066.3
75127.3
75188.2
75239.1
75295.2
75365.4
75426.2
75486.1
75562
75636.1
75695
75750.1
75810.4
75872.7
75925
75978.6
76036
76097.3
76169.9
76234.2
76293.8
76368.5
76447.3
76510.4
76566.7
76629.7
76715.6
76798.4
76848.7
76894.8
76956.6
77023.4
77087.9
77154.9
77219.4
77272.9
77330.4
77402.2
77474.5
77548.1
77622
77701.7
77765.5
77825.4
77892.9
77955.1
78016.8
78087
78164.4
78240.8
78323.1
78406
78487.2
78555.8
78619.9
78685.3
78747.2
78821.2
78910.5
78997.1
79078.6
79161.3
79241.1
79317.8
79395.5
79474.3
79554.4
79631.4
79708.7
79793.3
79858.7
79918.8
79988.6
80062
80144.5
80253.4
80350.5
80416.5
80478.3
80542.5
80601.9
80676.5
80770
80850.7
80933.3
81017.2
81102.8
81185.3
81264.8
81345.8
81415.5
81484.9
81569.3
81664.9
81751.1
81822
81885.2
81958.5
82059.1
82155.8
82229.1
82293.9
82348.1
82391.9
82446.5
82519
82565.5
82598.6
82633.3
82674.8
82728.3
82790.6
82842.7
82886.8
82928.7
82980.6
83050.6
83124.5
83188.8
83250.8
83317.7
83367.7
83417.2
83486.6
83561.4
83641.6
83706
83760.7
83826.6
83899.3
83970
84043.2
84113.4
84176.7
84243.9
84326
84406.5
84484.3
84562.7
84639.9
84731
84813.9
84898.2
85007.3
85089.4
85165
85250.8
85339.5
85433
85535.6
85622.1
85710.5
85814.1
85895.2
85962
86022.9
86079.8
86133
86197.1
86305.7
86389.2
86460.1
86527.6
86592
86658.5
86721.7
86793.4
86870.8
86935.8
87002.9
87077.7
87154.3
87231.6
87297.7
87365
87442.3
87509.4
87561
87610.5
87675.4
87756.1
87841.1
87961.9
88069.4
88140.6
88215.7
88295.4
88365.7
88446.6
88537.3
88639.8
88735.4
88813.5
88892.8
88978.3
89060.5
89136.8
89212.1
89297.4
89391
89483.5
89568.4
89634.6
89699.4
89771
89848.1
89922
90000.7
90107.2
90198.5
90269.6
90337
90403.7
90472
90553.9
90649.8
90747.7
90859.4
90945.3
91025.1
91109.1
91194.2
91255
91313.4
91405
91520.2
91631.4
91736.3
91846.6
91932.7
92002.6
92079.1
92164.5
92259.9
92374.1
92477.4
92552
92629.6
92705.5
92778.1
92890.1
93010.7
93097.3
93172.4
93255.7
93351.3
93438.8
93527.7
93621
93738.4
93856.9
93963.4
94080.7
94196.3
94288.4
94389.7
94525.5
94650.7
94768.3
94894.1
95029.7
95139.8
95242.5
95357
95469.2
95592.5
95699.4
95800.9
95901.3
96004.5
96120.6
96251.2
96381.3
96490.3
96575.6
96648.1
96739.3
96869.2
97001.7
97123
97239.2
97356.4
97480.7
97613.4
97767
97972.2
98138.7
98273.2
98436.8
98588.4
98693
98799.8
98937.9
99064.2
99167.4
99305.7
99497.8
99641.2
99743.1
99852.4
99984.5
100115
100260
100403
100554
100728
100851
100951
101057
101178
101283
72156.9
72158.7
72161
72164.3
72168.6
72173.4
72178.3
72184.9
72193.4
72204
72215
72228
72238.5
72247.4
72258.4
72270.7
72284.8
72302.2
72318.9
72333.5
72347.7
72363.3
72384.5
72412.9
72438.4
72461.4
72485.6
72508.2
72534
72554.4
72575.9
72608
72641
72670
72696.4
72726.2
72760
72791.6
72819.1
72845.8
72874.9
72904.3
72938
72979.5
73014.9
73049.1
73089.4
73129.1
73162.2
73189.9
73218.5
73257.2
73299.9
73338
73379.8
73423.1
73463.1
73504.3
73549.8
73594.5
73640.4
73689.6
73731.6
73777.8
73835.1
73876.8
73914.7
73959.7
74006.5
74050.1
74098
74147.6
74192.5
74246.3
74300.6
74342.6
74388.9
74447.1
74507.4
74563.9
74613.4
74664.3
74721.5
74777.1
74824.4
74869.8
74918.9
74963.8
75009.3
75066.5
75136.1
75197.3
75243.4
75295.3
75366.2
75432.8
75496.7
75561.4
75626.3
75694.7
75757.9
75817
75870.6
75919.2
75974.9
76039.9
76111.5
76183.7
76237.7
76290.6
76364
76449.2
76517
76572.1
76632.6
76717.4
76802.9
76859.3
76906.2
76959.9
77027.6
77089.8
77157.3
77216
77267.2
77337.9
77408.3
77473.2
77544.4
77619.5
77696.7
77762.3
77826.5
77902.8
77965
78017.2
78077.7
78155.2
78239.8
78326.8
78412.5
78496
78560.9
78622
78691.9
78764.3
78836.1
78913.9
78998.2
79087.8
79168.2
79244.2
79315.8
79386.1
79467.7
79558.5
79652.3
79729.1
79801.4
79861.2
79915.9
79984.2
80066.9
80148.1
80236.1
80336.1
80414
80480.3
80546.3
80612
80690.5
80785.9
80859.7
80930.4
81017.3
81117.4
81202.8
81284.3
81362.9
81426.6
81493.1
81580.3
81665
81734.8
81797.1
81869
81964
82067.4
82169.1
82224.5
82274.9
82326.6
82368.3
82414.7
82486.6
82544.4
82583.4
82620.9
82666.1
82720.1
82782.9
82836.8
82880.2
82922.5
82976.4
83040.1
83109.3
83180.5
83244.1
83307.3
83364.3
83423.4
83492.8
83562.4
83643.4
83708.5
83759.3
83815.6
83887.6
83972.1
84050.3
84123.4
84188.3
84252.3
84326.6
84407
84491.5
84568.2
84642.6
84730.8
84831.6
84927.2
85006.2
85084.1
85170.3
85260
85345.4
85430.5
85519.4
85608.4
85705.1
85804.5
85883.1
85952
86015.5
86078.6
86130.3
86186.3
86289.8
86370.7
86438.3
86505.4
86571.9
86641.1
86709.3
86781
86859.1
86932.2
87008.8
87072
87137
87224.3
87300.4
87370.4
87440.9
87500.9
87555.8
87612.8
87680.2
87758.2
87853
87968.7
88069.7
88133.4
88198.7
88285.5
88363
88451.1
88537.9
88635.9
88727.5
88805.4
88884.8
88966.6
89053.7
89138
89221.1
89302.2
89387.9
89482.7
89559.9
89620.8
89685.2
89762.5
89847.7
89930.1
90016.9
90110.6
90199.1
90259.2
90323.1
90393.8
90460.4
90542
90642.3
90742.1
90859
90932.7
91004.3
91096.8
91184.8
91250.7
91313.7
91407.8
91523.2
91631.5
91733.9
91831.5
91918.5
91996.3
92074.3
92164.2
92273.8
92381.3
92467.9
92538.3
92612.5
92694.2
92772
92872.5
93002.1
93090.9
93165.7
93250.7
93342.4
93421.4
93509.4
93630.7
93759.1
93858
93953.7
94083.7
94204.7
94293.6
94391.5
94532.6
94673.2
94789.2
94891.3
95000.6
95126.1
95237.7
95342.9
95463
95586.9
95691.4
95799.6
95907.1
96016.4
96131.8
96252.7
96366.8
96481.2
96569.7
96641
96729.6
96858.1
96998.7
97114
97225.3
97347.4
97482.4
97612.7
97755.3
97960.1
98150.4
98285.7
98425.9
98581.5
98697.1
98805.2
98927.1
99062.8
99177.6
99306.9
99492.2
99630
99733.4
99847.2
99976.2
100104
100245
100394
100564
100748
100852
100940
101042
101167
101281
72161.5
72162.9
72165.1
72168.7
72172.9
72177
72181.7
72188.6
72196.9
72207.1
72218.5
72230.5
72240.1
72249.3
72260.8
72274.4
72290.1
72305.7
72323.1
72338.8
72352
72367.3
72391.6
72419.7
72443.8
72464.9
72486.7
72509
72534.6
72556.8
72579.6
72609.8
72642.9
72674.2
72703.2
72731.5
72760.4
72791.1
72821.6
72852.2
72881.3
72909.6
72943.6
72983.8
73017.3
73051
73091.5
73129.1
73162.7
73192.7
73223.3
73261.8
73303.5
73340.5
73382.2
73428.7
73469.9
73511.4
73558.9
73602.9
73649.3
73698
73736.7
73776.4
73828.6
73879
73917.6
73955.8
74001.3
74053.3
74104.3
74146.2
74188.1
74242.8
74297.3
74344.2
74394.8
74449.5
74507.9
74565.6
74616.9
74671.6
74732
74778.2
74821.9
74872.3
74922.9
74967.7
75015.6
75073.1
75142.4
75203.4
75250.5
75303.7
75373.8
75447.5
75507.4
75559.6
75617.3
75693.8
75759
75816.9
75867.1
75916.8
75979.9
76043.4
76116
76193.5
76242.7
76293.5
76375.4
76456
76521.6
76578.4
76642.6
76726.7
76806
76859.3
76909.7
76962.4
77020.4
77090
77163.4
77216.2
77266.8
77346
77417.3
77477.3
77540.7
77612
77695
77771.1
77840.2
77910.6
77965
78017.3
78074.3
78141.1
78241.4
78334.7
78419.1
78498.3
78569
78631.5
78696.1
78768.7
78845.2
78929.1
79015.4
79106.2
79170.8
79238.5
79314.7
79377.3
79460.4
79564.7
79667.9
79741.4
79809.1
79865.1
79914.9
79981.4
80077.8
80155.5
80234.5
80333.3
80421.7
80488
80548.7
80619.1
80695.3
80781.2
80862.7
80935.6
81022.7
81127
81214.4
81297.5
81377.9
81444.2
81511.4
81591
81662.6
81720.1
81777.9
81857.8
81964.2
82056.5
82141
82201.8
82259.9
82313.7
82352.8
82393.6
82455
82518.2
82566.5
82608.6
82654.1
82712.2
82779.1
82834
82878.9
82922.4
82973.4
83025.8
83087.7
83170.9
83234.7
83293.9
83363.5
83434.5
83498
83563.5
83643
83711.3
83763.8
83817.7
83887.1
83977.2
84052.9
84125
84197.7
84264.7
84330.5
84403.8
84489.6
84571.9
84654.1
84740.7
84846.4
84934.7
85010
85096.1
85184.6
85268.5
85346.2
85422.9
85505.8
85596.4
85694.1
85791.4
85870.2
85933.6
85993.2
86055.2
86125.3
86191.8
86275.4
86350.8
86418.3
86488.7
86560.9
86633.5
86698.8
86769.7
86845
86916.4
86990.7
87060.1
87134.1
87229.6
87304
87364.3
87430.2
87494.6
87557.1
87620.1
87681.3
87755.5
87850.7
87962.6
88062.6
88129.1
88196.2
88284.7
88364.3
88444.7
88528.2
88623.9
88722.9
88805.9
88883.7
88961.2
89048.6
89130.5
89218
89307.2
89393.9
89488.7
89556.7
89606.6
89665.3
89752.2
89851
89948.1
90028.5
90106.3
90179.7
90238.3
90301.2
90386.3
90460.5
90541.9
90635.1
90730
90835.6
90910.5
90978.7
91075.9
91180
91260.3
91335.6
91422.3
91519.9
91618.2
91721.4
91821.7
91907.3
91993
92070.9
92154.1
92268.4
92375.9
92461.3
92534.5
92605.6
92682.7
92771.8
92872.8
92975.3
93072.3
93159.1
93249.1
93335.7
93409.2
93493.7
93635.7
93769.3
93857.9
93945.6
94074.7
94204
94300.5
94403
94537.1
94683.5
94798.8
94891
94984.5
95097.3
95228.5
95349.1
95470.2
95582.8
95679.6
95787.3
95911.5
96030.1
96139.2
96245.7
96350.2
96465.2
96562.5
96641.8
96736
96855.6
96972.5
97086.8
97218.4
97350.5
97481.7
97610.8
97749.6
97935.2
98155
98312
98439.6
98565
98690.2
98819.4
98949.4
99077
99190.3
99314.4
99474.1
99606.6
99711.5
99826.3
99961.7
100098
100237
100387
100567
100726
100839
100942
101056
101182
101285
72166.6
72167.6
72169.9
72172.9
72176.7
72180.9
72186
72192.8
72200.6
72210.6
72222.1
72233.6
72243.3
72253
72265.6
72281.2
72295.1
72308
72324.6
72343.1
72358.7
72377.2
72399
72422.6
72447.6
72470.7
72488.7
72508.1
72535.5
72559.1
72584.2
72616
72649.4
72676.8
72702.8
72732.9
72764.7
72799.3
72830.2
72856.9
72886.2
72917.1
72951.4
72988.7
73020.8
73054.3
73092.6
73128.7
73160.9
73191.8
73228.2
73268.8
73307.3
73345.2
73389.4
73436
73478.9
73523.6
73570.2
73609.3
73651.3
73698.8
73739.1
73779.7
73828.8
73877.6
73918.4
73955.3
73997.5
74052.6
74103.1
74143.3
74186
74245.1
74299.8
74347.6
74398
74456.5
74519.2
74571.9
74621.3
74676.7
74728.9
74776.3
74825.5
74879.5
74929.9
74971
75017.1
75078.6
75148.6
75209.9
75261.7
75319.4
75382.7
75444.7
75510.1
75567.8
75621.9
75683.8
75751.7
75813.1
75865
75921.5
75987.8
76051.5
76124.8
76195.6
76249.5
76311.9
76388.8
76454.3
76524.7
76588.3
76657.4
76733.5
76798.8
76853.8
76911.4
76966.7
77023.5
77095.5
77165.9
77214.4
77263.3
77345.5
77428.6
77490.8
77546
77610.6
77700.4
77783.7
77846.9
77904.2
77959.8
78018
78076
78145.4
78256.3
78343.7
78414.8
78491.5
78575.9
78639.1
78700.2
78780.7
78870.4
78944.9
79020.9
79104.5
79175.9
79258
79321.9
79378
79459
79561
79661.1
79742.8
79816.7
79871.9
79923.5
79997.2
80087.8
80156.9
80231
80336.7
80437.8
80495.9
80546.4
80615.1
80706.1
80781.8
80850.9
80934.7
81040.6
81141.9
81226.5
81309.9
81398.6
81470.9
81532.5
81592.7
81650
81708
81767.1
81845.1
81959.2
82036.6
82102.9
82164.1
82228.1
82295.1
82338.4
82379.8
82433.8
82495
82551.1
82598.5
82643.6
82703.7
82771.4
82827.6
82876.1
82923.2
82973.1
83019.6
83072.2
83149
83221.2
83290.7
83368.8
83435.1
83499.9
83569.4
83645.1
83711.2
83766.6
83825.6
83894.2
83978.5
84062
84135
84201.6
84264.8
84334.4
84421.4
84499.3
84573.6
84659
84745.4
84843.5
84933.5
85013.4
85102.7
85190.5
85268.4
85343.1
85416.8
85500.5
85595.4
85683.4
85773.3
85855.9
85917.1
85974.2
86033.4
86106.9
86177.4
86248.2
86331
86406.7
86474
86549.3
86622.5
86686.3
86764.7
86839.4
86899.7
86969.6
87044.9
87127.4
87226.3
87303.8
87361.6
87422.9
87492
87559.4
87620.1
87677.7
87752.9
87845
87948.6
88042.9
88117.7
88195.8
88284.1
88366.7
88449.8
88525.4
88613.2
88717.6
88806
88884.4
88964.5
89054.6
89126.6
89203
89296.6
89390.1
89489.5
89554.1
89601.8
89653.8
89736.7
89851.9
89955.4
90024.7
90096.3
90160.7
90218.2
90285
90370
90457.5
90546.5
90631.5
90715.9
90802.4
90884.1
90962.8
91061.3
91178.4
91267.3
91343.3
91416.6
91501.5
91613.1
91718.1
91815.4
91900.3
91983.6
92066.7
92149.4
92256.5
92366.6
92449.2
92525.6
92598.1
92674.2
92777.7
92889.6
92972
93053.1
93152.9
93241.5
93324.5
93401.6
93490.9
93638.4
93767
93862.5
93959.5
94076.6
94205.2
94302.1
94404.5
94541
94684.7
94790.2
94881.6
94983.5
95089.5
95209.5
95353.8
95477.4
95575.3
95668.3
95775.7
95897.7
96023.4
96148.7
96247.3
96335.6
96434.3
96541.2
96642.4
96750.6
96866.1
96967.3
97070.8
97204.8
97342.2
97475.4
97606.9
97752.3
97934.5
98139.1
98315.7
98442.7
98561
98699.5
98842.8
98963.5
99075.3
99201.6
99331.7
99447.3
99568.2
99689.6
99816.4
99956.8
100094
100234
100392
100578
100705
100807
100928
101070
101196
101287
72171.5
72172.1
72174
72177
72181
72184.7
72189.6
72196.8
72205.5
72216.1
72226.3
72236.7
72246.8
72257.5
72271
72286.3
72299.7
72312.8
72331.4
72351
72368.2
72385.4
72403.8
72425.8
72449.4
72471.7
72491.4
72514.2
72539.8
72564.1
72591.9
72622.5
72653.7
72680.3
72707.1
72739.6
72772.3
72810.1
72836.3
72858.8
72886.2
72921.2
72958
72992.7
73024.7
73059.5
73094.7
73130.7
73162.5
73193.1
73232.8
73279.3
73314.3
73348.9
73396.3
73442.3
73485.8
73532.8
73576.6
73613.5
73654.6
73701.1
73743
73784.7
73827.4
73871.2
73918.1
73957.9
73998.3
74052.3
74103.5
74146.2
74193.2
74250.5
74300.3
74345.7
74400.9
74467.9
74529.6
74576.9
74622.9
74677.5
74730.1
74778.9
74830.8
74887.5
74935.7
74977.1
75023.8
75082.7
75150.8
75212.7
75269.7
75330.9
75392.1
75449.6
75514.6
75574
75626.5
75686.7
75755
75811.5
75863.6
75926.9
75988.2
76052.3
76126.1
76195.9
76262.6
76346
76404.4
76460.3
76526.6
76587.3
76658.2
76733.2
76794.9
76852.9
76916.1
76969.6
77026.4
77097.1
77161.8
77216.8
77273.8
77342.2
77422.7
77494.4
77560.2
77635.4
77708.8
77778.2
77843.1
77904.6
77963.7
78019.5
78080.5
78167.1
78266.7
78346.1
78411.4
78483
78574.8
78649.7
78723
78803.5
78878.1
78952.8
79038
79112
79180.2
79265.7
79331.3
79394.6
79469.5
79551.3
79650
79738.4
79820.5
79881.2
79938.9
80009
80079.3
80150.4
80236.2
80341.5
80441.2
80507.2
80562.9
80621.1
80694.9
80778.9
80856
80949
81058.7
81148.8
81232.7
81327.5
81430.5
81481.4
81530.9
81586.1
81640.2
81699.1
81761.7
81845.2
81940.3
82010.3
82079.3
82140.6
82198.3
82262.4
82314.4
82364.3
82419.2
82475.3
82534.2
82587.1
82634.8
82692.5
82763.3
82822.3
82871.6
82921.9
82973.4
83021.1
83072.1
83139.5
83213
83287.1
83361.2
83424.7
83492.4
83571.5
83651.1
83711.6
83769.3
83831.4
83901
83987.9
84069.7
84135.4
84200.5
84277
84352.8
84433
84507.7
84580.8
84663.6
84749.6
84837.9
84925.1
85020.4
85116.7
85194.9
85265.1
85337.7
85405.4
85479.3
85580.1
85671.6
85762
85844.5
85905.1
85960.6
86016.9
86083.9
86163.7
86238.6
86314.8
86391.8
86457.2
86529.2
86613.4
86680.1
86762
86837.8
86893.2
86951.3
87022.9
87108.5
87206.3
87288.7
87361.6
87441.3
87494.5
87547.2
87613.3
87681.3
87773.5
87850.3
87928.9
88017.4
88097.1
88189.4
88281
88368.1
88447.9
88521.7
88611.7
88714.8
88807.7
88882.5
88955.7
89037.3
89120
89206.3
89300.8
89392.3
89471
89543.9
89605.6
89663.4
89745.4
89849.9
89935.9
90002.5
90071.6
90148.3
90214.4
90281.2
90350.9
90429.6
90526.9
90626
90715
90789.3
90862.2
90949.4
91048.9
91166.4
91261.8
91345.3
91415.9
91492.8
91599.3
91698.5
91798.8
91895.2
91977.3
92060.7
92146
92239.6
92346.6
92437
92519.9
92600.5
92678.4
92769
92881.5
92968.8
93046.3
93142
93229
93305.5
93391.2
93505.8
93651.9
93779.9
93892.1
93987.7
94084.5
94204.6
94298.1
94394.2
94528.5
94673
94785.1
94883.4
94982.8
95079.2
95181.9
95317.5
95472
95577.8
95672.5
95781.4
95888.3
96009.9
96151.3
96250.8
96334.6
96419
96511.9
96629.7
96746.6
96862
96972.5
97082.3
97196
97315.8
97448.5
97600.6
97782.4
97972.6
98133.5
98291.9
98441.4
98572.8
98705.6
98827.5
98948.3
99068.6
99203.6
99343.9
99442.7
99540.8
99670.3
99803.9
99947.8
100095
100236
100387
100556
100690
100799
100921
101060
101179
101280
72176.5
72177.3
72178.2
72181.3
72184.9
72188.6
72194.3
72201.9
72211.2
72221.3
72231.1
72241.5
72251.8
72263.5
72276.4
72290.8
72306.3
72320.4
72339.6
72359.5
72376.4
72389.7
72405.4
72429.9
72452.6
72474.8
72498.8
72522.5
72546.1
72571.9
72600.1
72626.2
72654.3
72685.3
72717.4
72747.7
72775.6
72808.7
72841.1
72865.7
72892.4
72929.8
72965.8
72999.3
73032.5
73066.5
73098.1
73131.6
73162.9
73194.6
73237.4
73285.9
73319.9
73354.7
73402.1
73446.2
73490.7
73540.2
73581.9
73618.9
73661.8
73705.6
73746.4
73788.2
73826.5
73865.1
73914.2
73960.1
74004
74059.5
74111.1
74155.7
74202.8
74253.9
74303
74350.5
74407.4
74469.5
74526
74577.1
74630.2
74687.3
74734.6
74779.9
74833.9
74892
74941
74984.6
75031.2
75091.4
75154.3
75212.9
75274.6
75339.1
75407.4
75464.8
75522.9
75577.4
75628.2
75688.4
75756.5
75810.6
75863
75933.8
75992.9
76053.4
76124.2
76194.4
76270.8
76350.7
76413.2
76477.8
76531
76581.8
76654.5
76734.4
76798.3
76853.4
76913.7
76973.8
77037.8
77103.8
77162.1
77218.4
77279
77344.2
77420.9
77498.2
77571.8
77643.8
77710.4
77778.3
77846.3
77911
77972
78026.7
78093.7
78187.4
78260.4
78326.7
78409
78503.2
78598.5
78667.9
78736.4
78809.8
78881.8
78964.8
79056.4
79118.9
79181.2
79272.4
79343.5
79415
79478.6
79544.4
79649.6
79742.2
79821.5
79881.6
79941
80016.8
80086.7
80155.8
80240.9
80347.7
80439.8
80511.9