/*--------------------------------*- C++ -*----------------------------------*\
  =========                 |
  \\      /  F ield         | OpenFOAM: The Open Source CFD Toolbox
   \\    /   O peration     | Website:  https://openfoam.org
    \\  /    A nd           | Version:  7
     \\/     M anipulation  |
\*---------------------------------------------------------------------------*/
FoamFile
{
    version     2.0;
    format      ascii;
    class       surfaceScalarField;
    location    "4500";
    object      phi;
}
// * * * * * * * * * * * * * * * * * * * * * * * * * * * * * * * * * * * * * //

dimensions      [0 3 -1 0 0 0 0];

internalField   nonuniform List<scalar> 
319200
(
-1.05198e-16
-1.27556e-16
-2.68284e-16
-8.59131e-17
-4.16555e-16
-1.05863e-16
-5.92541e-16
-9.85396e-17
-7.32738e-16
-1.62887e-16
-8.34153e-16
-1.55894e-16
-9.01293e-16
-1.88586e-16
-1.0201e-15
-8.162e-17
-1.27821e-15
2.11825e-17
-1.49008e-15
-6.57127e-17
-1.64792e-15
-1.10831e-16
-1.85258e-15
-4.70679e-17
-1.87209e-15
-2.62331e-16
-1.58331e-15
-5.64914e-16
-1.38477e-15
-4.18914e-16
-1.42889e-15
-1.83569e-16
-1.4079e-15
-2.23205e-16
-1.65068e-15
3.89125e-17
-2.07585e-15
1.89881e-16
-2.43384e-15
1.27173e-16
-2.72771e-15
7.18047e-17
-3.0867e-15
1.20918e-16
-3.63179e-15
2.97137e-16
-4.14645e-15
2.60831e-16
-4.41005e-15
3.43084e-17
-4.24916e-15
-4.3029e-16
-3.81606e-15
-7.02163e-16
-3.59895e-15
-4.61533e-16
-3.55163e-15
-2.99551e-16
-3.65052e-15
-1.24098e-16
-4.07202e-15
2.18491e-16
-4.69508e-15
4.06261e-16
-4.95213e-15
7.71391e-18
-4.90544e-15
-2.63688e-16
-4.92525e-15
-1.88076e-16
-5.0982e-15
-6.66795e-17
-5.4938e-15
1.52109e-16
-5.28924e-15
-4.64629e-16
-4.41507e-15
-1.07514e-15
-4.19593e-15
-4.21866e-16
-4.53819e-15
1.41734e-16
-4.8894e-15
1.52912e-16
-5.08339e-15
-3.86932e-17
-5.05044e-15
-2.37833e-16
-5.1424e-15
-1.39684e-16
-5.31894e-15
-5.22757e-17
-5.29294e-15
-2.24122e-16
-5.05107e-15
-4.10121e-16
-4.75458e-15
-4.86971e-16
-5.30035e-15
3.76397e-16
-6.73434e-15
1.22716e-15
-7.6637e-15
6.84723e-16
-7.28279e-15
-6.05721e-16
-7.13337e-15
-3.60019e-16
-7.05111e-15
-3.17363e-16
-6.40737e-15
-8.33508e-16
-5.46472e-15
-1.14658e-15
-4.85288e-15
-7.70084e-16
-5.33205e-15
3.18332e-16
-6.68374e-15
1.17508e-15
-6.95471e-15
4.2462e-17
-6.14845e-15
-9.82154e-16
-5.94244e-15
-3.78603e-16
-5.98089e-15
-1.24286e-16
-6.62025e-15
4.86609e-16
-7.40543e-15
5.86641e-16
-7.12896e-15
-4.586e-16
-5.69928e-15
-1.61801e-15
-4.41675e-15
-1.42345e-15
-5.67337e-15
1.12626e-15
-7.19216e-15
1.31043e-15
-7.79221e-15
4.35025e-16
-8.29735e-15
3.05494e-16
-8.19837e-15
-2.70892e-16
-8.05642e-15
-3.15864e-16
-8.2084e-15
-7.42324e-18
-8.47844e-15
1.02509e-16
-8.73737e-15
1.06227e-16
-9.08341e-15
1.73383e-16
-9.53661e-15
2.98494e-16
-1.02115e-14
5.02017e-16
-9.98597e-15
-4.05439e-16
-8.9625e-15
-1.18072e-15
-7.64562e-15
-1.46854e-15
-6.45032e-15
-1.34857e-15
-6.28898e-15
-3.09863e-16
-6.55432e-15
1.18137e-16
-7.09829e-15
4.11048e-16
-7.84054e-15
5.97788e-16
-8.14671e-15
1.4851e-16
-9.14149e-15
8.6517e-16
-1.04555e-14
1.1496e-15
-1.07645e-14
1.42857e-16
-1.04578e-14
-4.63269e-16
-9.64647e-15
-9.55117e-16
-8.78828e-15
-9.83682e-16
-8.24377e-15
-6.82768e-16
-7.56228e-15
-8.0854e-16
-7.15571e-15
-5.32277e-16
-7.03096e-15
-2.38257e-16
-6.9717e-15
-1.86845e-16
-7.52428e-15
4.46764e-16
-7.23628e-15
-4.26687e-16
-6.57267e-15
-7.85328e-16
-7.33554e-15
6.48635e-16
-7.95322e-15
4.82181e-16
-8.44422e-15
3.80791e-16
-9.48085e-15
9.04313e-16
-9.96296e-15
3.45944e-16
-1.02478e-14
1.60557e-16
-1.0362e-14
-1.59066e-17
-1.07248e-14
2.59833e-16
-1.07954e-14
-5.59782e-17
-9.83655e-15
-1.06747e-15
-9.29914e-15
-6.43689e-16
-8.95545e-15
-4.56603e-16
-8.90471e-15
-1.53976e-16
-9.56334e-15
5.44808e-16
-9.51793e-15
-1.71388e-16
-8.79271e-15
-8.34104e-16
-8.9215e-15
2.59561e-17
-1.00379e-14
1.01867e-15
-1.16222e-14
1.4755e-15
-1.31166e-14
1.38259e-15
-1.43479e-14
1.11691e-15
-1.43188e-14
-1.50043e-16
-1.29057e-14
-1.52663e-15
-1.19908e-14
-1.0087e-15
-1.19234e-14
-1.65167e-16
-1.17742e-14
-2.47192e-16
-1.1301e-14
-5.63057e-16
-1.10888e-14
-2.9767e-16
-1.1986e-14
7.98457e-16
-1.24251e-14
3.24585e-16
-1.16298e-14
-8.98338e-16
-9.78586e-15
-1.94116e-15
-8.86908e-15
-1.00327e-15
-9.87153e-15
9.10476e-16
-9.99368e-15
3.9808e-17
-1.03416e-14
2.73541e-16
-1.02476e-14
-1.84962e-16
-9.36763e-15
-9.75537e-16
-9.51043e-15
7.51595e-17
-1.09867e-14
1.38745e-15
-1.19626e-14
8.75602e-16
-1.20647e-14
1.48874e-17
-1.18846e-14
-2.66411e-16
-1.12981e-14
-6.68386e-16
-9.99695e-15
-1.37836e-15
-8.35308e-15
-1.7124e-15
-8.37715e-15
-4.41514e-17
-9.53304e-15
1.08017e-15
-9.61166e-15
1.12912e-17
-9.39318e-15
-2.98503e-16
-9.8052e-15
3.4851e-16
-1.11843e-14
1.30337e-15
-1.26563e-14
1.39687e-15
-1.3721e-14
9.85569e-16
-1.34398e-14
-3.52764e-16
-1.2357e-14
-1.1547e-15
-1.13326e-14
-1.09099e-15
-1.1246e-14
-1.5589e-16
-1.22784e-14
9.678e-16
-1.25349e-14
1.86508e-16
-1.21299e-14
-4.58446e-16
-1.13592e-14
-8.38137e-16
-1.01995e-14
-1.22614e-15
-9.80723e-15
-4.53071e-16
-1.01973e-14
3.25905e-16
-1.20466e-14
1.79041e-15
-1.42724e-14
2.15378e-15
-1.48807e-14
5.45514e-16
-1.48084e-14
-1.23556e-16
-1.44653e-14
-4.03013e-16
-1.32073e-14
-1.31107e-15
-1.20427e-14
-1.21493e-15
-1.29011e-14
8.05066e-16
-1.46494e-14
1.69475e-15
-1.51123e-14
4.04004e-16
-1.39521e-14
-1.21476e-15
-1.36649e-14
-3.2728e-16
-1.2334e-14
-1.38125e-15
-1.01329e-14
-2.24258e-15
-8.45745e-15
-1.71474e-15
-7.56292e-15
-9.34669e-16
-7.72815e-15
1.25017e-16
-8.00492e-15
2.35628e-16
-8.01911e-15
-2.51703e-17
-8.27856e-15
2.19122e-16
-9.57336e-15
1.24647e-15
-1.09718e-14
1.35045e-15
-1.14287e-14
4.12858e-16
-1.05711e-14
-9.00405e-16
-9.18828e-15
-1.42319e-15
-7.46296e-15
-1.76723e-15
-7.55121e-15
5.70616e-17
-9.48263e-15
1.88646e-15
-1.09571e-14
1.41536e-15
-1.13903e-14
3.9477e-16
-1.11794e-14
-2.4248e-16
-1.0423e-14
-7.85146e-16
-9.72884e-15
-7.192e-16
-9.65069e-15
-9.9646e-17
-9.92843e-15
2.51527e-16
-1.09144e-14
9.5489e-16
-1.21253e-14
1.17489e-15
-1.24731e-14
3.1208e-16
-1.29595e-14
4.576e-16
-1.32012e-14
2.15256e-16
-1.34185e-14
1.92494e-16
-1.34387e-14
-3.93622e-18
-1.29112e-14
-5.50635e-16
-1.28652e-14
-6.7212e-17
-1.35024e-14
6.17096e-16
-1.3281e-14
-2.4145e-16
-1.29385e-14
-3.61592e-16
-1.43459e-14
1.38928e-15
-1.61082e-14
1.74289e-15
-1.63126e-14
1.825e-16
-1.60907e-14
-2.41751e-16
-1.49706e-14
-1.13861e-15
-1.2771e-14
-2.21566e-15
-1.12479e-14
-1.53496e-15
-1.0627e-14
-6.32753e-16
-1.00638e-14
-5.75408e-16
-9.74406e-15
-3.32804e-16
-9.14112e-15
-6.1701e-16
-8.85533e-15
-2.97045e-16
-8.69072e-15
-1.76761e-16
-8.26689e-15
-4.33987e-16
-8.55534e-15
2.80786e-16
-8.45306e-15
-1.11369e-16
-8.47169e-15
1.0137e-17
-9.36238e-15
8.81694e-16
-1.02172e-14
8.46542e-16
-1.07252e-14
5.00423e-16
-1.08422e-14
1.10582e-16
-1.10218e-14
1.73604e-16
-1.10925e-14
6.5695e-17
-1.09937e-14
-1.03309e-16
-1.04639e-14
-5.33506e-16
-9.20947e-15
-1.25771e-15
-8.42357e-15
-7.88938e-16
-9.14639e-15
7.20308e-16
-1.01601e-14
1.01162e-15
-1.18631e-14
1.70136e-15
-1.50514e-14
3.18739e-15
-1.88185e-14
3.76736e-15
-1.9321e-14
5.05749e-16
-1.59422e-14
-3.37341e-15
-1.19406e-14
-3.99726e-15
-8.4025e-15
-3.53538e-15
-7.14763e-15
-1.25261e-15
-7.53392e-15
3.88867e-16
-8.66975e-15
1.1394e-15
-9.67073e-15
1.00577e-15
-9.61616e-15
-4.953e-17
-1.14212e-14
1.80988e-15
-1.51843e-14
3.76967e-15
-1.70667e-14
1.89374e-15
-1.4976e-14
-2.07595e-15
-1.20833e-14
-2.88284e-15
-1.02208e-14
-1.85465e-15
-9.51185e-15
-7.02092e-16
-9.99522e-15
4.91385e-16
-1.08921e-14
9.07593e-16
-1.1242e-14
3.61209e-16
-1.18851e-14
6.52126e-16
-1.34224e-14
1.54984e-15
-1.32333e-14
-1.70543e-16
-1.12922e-14
-1.92553e-15
-1.06152e-14
-6.65851e-16
-1.07791e-14
1.76554e-16
-1.04949e-14
-2.71939e-16
-1.04711e-14
-1.28882e-17
-1.06636e-14
2.04593e-16
-1.16719e-14
1.02333e-15
-1.23681e-14
7.175e-16
-1.17086e-14
-6.41322e-16
-1.12633e-14
-4.28528e-16
-1.1078e-14
-1.70439e-16
-1.14318e-14
3.71631e-16
-1.1575e-14
1.63222e-16
-1.14428e-14
-1.09764e-16
-1.17129e-14
2.93222e-16
-1.32466e-14
1.55376e-15
-1.50066e-14
1.78165e-15
-1.61003e-14
1.11216e-15
-1.60355e-14
-4.48942e-17
-1.33654e-14
-2.64933e-15
-1.03004e-14
-3.04475e-15
-9.15783e-15
-1.12752e-15
-9.82652e-15
6.87636e-16
-1.10373e-14
1.23226e-15
-1.1912e-14
8.95062e-16
-1.18423e-14
-4.91063e-17
-1.10279e-14
-7.92587e-16
-1.09827e-14
-2.5262e-17
-1.15807e-14
6.29588e-16
-1.27445e-14
1.19898e-15
-1.46339e-14
1.93546e-15
-1.57899e-14
1.21978e-15
-1.54647e-14
-2.85056e-16
-1.40802e-14
-1.34945e-15
-1.28589e-14
-1.19149e-15
-1.22233e-14
-6.09306e-16
-1.25175e-14
3.18055e-16
-1.2964e-14
4.70874e-16
-1.39744e-14
1.03807e-15
-1.53941e-14
1.45121e-15
-1.49458e-14
-4.16299e-16
-1.45151e-14
-4.00756e-16
-1.49104e-14
4.24803e-16
-1.52219e-14
3.46654e-16
-1.59615e-14
7.81133e-16
-1.6876e-14
9.55633e-16
-1.60359e-14
-7.99957e-16
-1.47389e-14
-1.26493e-15
-1.40308e-14
-6.82883e-16
-1.34781e-14
-5.26276e-16
-1.39394e-14
4.87279e-16
-1.53477e-14
1.4374e-15
-1.6916e-14
1.60127e-15
-1.89979e-14
2.12768e-15
-2.03112e-14
1.37141e-15
-1.96466e-14
-6.02294e-16
-1.71517e-14
-2.43902e-15
-1.51503e-14
-1.96128e-15
-1.45472e-14
-5.64107e-16
-1.29944e-14
-1.51517e-15
-1.27169e-14
-2.42097e-16
-1.39279e-14
1.24848e-15
-1.41893e-14
2.99359e-16
-1.54982e-14
1.34582e-15
-1.72436e-14
1.78269e-15
-1.83906e-14
1.18443e-15
-2.04547e-14
2.10317e-15
-2.29754e-14
2.56425e-15
-2.1659e-14
-1.2632e-15
-1.72643e-14
-4.34246e-15
-1.51897e-14
-2.03898e-15
-1.45018e-14
-6.55655e-16
-1.45728e-14
1.07301e-16
-1.60315e-14
1.49723e-15
-1.59972e-14
1.28212e-17
-1.51606e-14
-7.91155e-16
-1.70051e-14
1.89214e-15
-1.88654e-14
1.90745e-15
-1.9345e-14
5.24217e-16
-1.88487e-14
-4.54095e-16
-1.7918e-14
-8.91441e-16
-1.71252e-14
-7.58403e-16
-1.61151e-14
-9.71821e-16
-1.59014e-14
-1.74524e-16
-1.63514e-14
4.93153e-16
-1.56804e-14
-6.27007e-16
-1.47475e-14
-8.92239e-16
-1.44656e-14
-2.42752e-16
-1.46183e-14
1.91678e-16
-1.43723e-14
-2.10677e-16
-1.41259e-14
-2.13492e-16
-1.43286e-14
2.3763e-16
-1.50185e-14
7.28614e-16
-1.64519e-14
1.4724e-15
-1.90417e-14
2.63598e-15
-2.0125e-14
1.13214e-15
-2.24321e-14
2.35176e-15
-2.3127e-14
7.48109e-16
-2.02502e-14
-2.82725e-15
-1.79552e-14
-2.25236e-15
-1.89927e-14
1.07624e-15
-2.23058e-14
3.35351e-15
-2.65275e-14
4.26414e-15
-2.77046e-14
1.22724e-15
-2.65603e-14
-1.10272e-15
-2.45168e-14
-1.99625e-15
-2.0314e-14
-4.16264e-15
-1.7096e-14
-3.17655e-15
-1.53356e-14
-1.72172e-15
-1.44998e-14
-7.96347e-16
-1.46303e-14
1.69517e-16
-1.43896e-14
-2.03298e-16
-1.671e-14
2.35855e-15
-2.09747e-14
4.30763e-15
-2.3104e-14
2.17366e-15
-2.36312e-14
5.71599e-16
-2.33219e-14
-2.63233e-16
-2.18256e-14
-1.45116e-15
-2.03383e-14
-1.44545e-15
-2.09031e-14
6.07622e-16
-2.15496e-14
6.9209e-16
-2.18679e-14
3.63779e-16
-2.29668e-14
1.15e-15
-2.36283e-14
7.12846e-16
-2.51817e-14
1.60646e-15
-2.69446e-14
1.83109e-15
-2.6281e-14
-6.0111e-16
-2.78908e-14
1.66027e-15
-2.9758e-14
1.93877e-15
-3.65832e-16
-1.62639e-16
-2.79517e-16
-2.66023e-16
-2.15413e-16
-3.31113e-16
-2.75275e-16
-4.38153e-16
-2.37767e-16
-5.83029e-16
-2.61642e-16
-8.21677e-16
-1.7753e-16
-1.04388e-15
-2.53537e-16
-1.16262e-15
-2.16303e-16
-1.29534e-15
-9.93396e-17
-1.43709e-15
-1.78117e-16
-1.57637e-15
-2.31264e-16
-1.67732e-15
-1.81444e-16
-1.85257e-15
-3.39446e-16
-2.03387e-15
-6.464e-16
-2.01142e-15
-7.19282e-16
-2.04887e-15
-3.5905e-16
-2.55451e-15
6.77222e-17
-3.05606e-15
2.47448e-16
-3.00984e-15
-1.41955e-16
-2.8348e-15
-3.09488e-16
-2.87182e-15
-1.16316e-16
-3.21091e-15
2.16676e-16
-3.42145e-15
2.66195e-16
-3.25792e-15
-1.40523e-16
-3.40309e-15
-1.49739e-17
-4.25997e-15
1.8445e-16
-4.82137e-15
-4.33514e-16
-4.67355e-15
-8.89627e-16
-4.65785e-15
-5.53462e-16
-4.8129e-15
-2.08831e-16
-4.3954e-15
-4.24146e-16
-3.8257e-15
-3.76484e-16
-3.54306e-15
-4.93244e-16
-3.65543e-15
-3.50765e-16
-4.22901e-15
2.00512e-16
-4.75899e-15
2.18774e-16
-4.61116e-15
-2.45679e-16
-4.75995e-15
-4.78971e-16
-5.32058e-15
-7.44296e-16
-5.08088e-15
-8.95475e-16
-4.61666e-15
-5.25257e-16
-4.71414e-15
6.54791e-17
-4.98114e-15
9.85307e-18
-5.23231e-15
-1.81089e-16
-5.86601e-15
2.62561e-16
-6.12806e-15
-3.9603e-17
-5.66912e-15
-8.93785e-16
-5.50607e-15
-7.54176e-16
-5.70396e-15
-4.82069e-16
-5.72305e-15
1.90734e-16
-5.50787e-15
8.24443e-16
-5.88223e-15
8.45433e-16
-6.77533e-15
1.01952e-16
-6.65386e-15
-7.03073e-16
-6.13199e-15
-9.94729e-16
-6.16909e-15
-9.94282e-16
-6.00545e-15
-1.50163e-15
-5.81253e-15
-1.13316e-15
-5.86773e-15
1.90628e-16
-5.71755e-15
8.41228e-16
-5.68356e-15
-1.76967e-16
-5.87915e-15
-9.72174e-16
-6.06226e-15
-3.60488e-16
-6.47857e-15
1.27483e-16
-6.11921e-15
-5.38592e-17
-5.90941e-15
2.05464e-16
-7.07913e-15
5.49988e-16
-9.03147e-15
1.34154e-16
-1.06034e-14
-4.88691e-17
-1.04051e-14
7.23748e-16
-8.88454e-15
-4.0742e-16
-7.43273e-15
-1.19542e-15
-6.79709e-15
-4.86604e-16
-6.89853e-15
-3.41377e-16
-7.24717e-15
-1.26428e-16
-7.54918e-15
1.28206e-16
-7.38307e-15
-2.14802e-16
-7.61853e-15
1.90505e-16
-8.69609e-15
1.09658e-15
-9.0057e-15
4.31844e-16
-8.41452e-15
-2.58234e-16
-8.6104e-15
-3.68177e-16
-9.61392e-15
-3.35976e-16
-1.0966e-14
-2.74724e-16
-1.10443e-14
-1.45402e-15
-9.52352e-15
-2.01043e-15
-8.16824e-15
-1.37765e-15
-8.49465e-15
5.90515e-16
-9.29776e-15
1.25003e-15
-1.02996e-14
9.89607e-16
-1.06878e-14
1.08677e-15
-1.07719e-14
1.07862e-15
-1.07368e-14
-5.88783e-17
-1.00481e-14
-1.30544e-15
-1.01193e-14
-1.01678e-15
-1.02338e-14
-1.01571e-15
-1.00828e-14
-9.68714e-16
-9.55176e-15
-1.47744e-15
-8.75152e-15
-1.46478e-15
-8.75077e-15
-3.56662e-16
-8.82317e-15
-2.49031e-16
-8.51848e-15
1.65616e-17
-9.85743e-15
7.94309e-16
-1.05329e-14
-2.638e-16
-9.65913e-15
-3.60625e-16
-1.03161e-14
1.01677e-15
-1.1389e-14
1.31435e-15
-1.09104e-14
2.90525e-16
-1.01109e-14
-5.773e-16
-9.47847e-15
-5.96709e-16
-8.65775e-15
-9.55135e-16
-7.97602e-15
-5.2584e-16
-8.32599e-15
1.82525e-16
-9.17299e-15
-3.29732e-16
-9.70446e-15
-2.26518e-16
-1.00435e-14
-2.33352e-16
-1.0125e-14
-1.8958e-16
-1.03779e-14
6.76041e-16
-1.17034e-14
1.03048e-15
-1.26762e-14
1.66664e-17
-1.17127e-14
-1.05624e-15
-1.01921e-14
-6.05092e-16
-9.34495e-15
5.2712e-16
-8.74091e-15
6.78317e-16
-8.43715e-15
7.14019e-16
-8.91705e-15
2.28631e-16
-9.84308e-15
-6.98965e-16
-1.05367e-14
-4.08707e-16
-1.04358e-14
-3.638e-16
-9.95755e-15
-8.16506e-16
-1.01303e-14
-4.76845e-16
-1.27609e-14
2.25346e-15
-1.43758e-14
2.30114e-15
-1.35118e-14
-6.52041e-16
-1.32528e-14
-1.25512e-15
-1.50797e-14
-1.98477e-16
-1.42496e-14
-1.94119e-15
-1.15821e-14
-1.8445e-15
-1.16486e-14
2.68588e-17
-1.21858e-14
7.25888e-16
-1.26299e-14
1.66567e-16
-1.29966e-14
-7.05197e-16
-1.29147e-14
-9.78021e-17
-1.14693e-14
-1.47797e-16
-1.02245e-14
-4.58098e-16
-1.04863e-14
2.01973e-16
-1.0944e-14
1.09869e-16
-1.08238e-14
-8.64727e-16
-1.11095e-14
-1.16491e-15
-1.28303e-14
-6.11742e-17
-1.26601e-14
-3.03748e-16
-1.07869e-14
-8.61619e-16
-1.03612e-14
-4.83904e-16
-1.08836e-14
1.48237e-16
-1.19953e-14
1.38404e-15
-1.18706e-14
1.09724e-15
-1.13994e-14
8.5368e-16
-1.14787e-14
9.8806e-16
-1.21391e-14
2.39701e-16
-1.3053e-14
-3.1579e-16
-1.35264e-14
-6.89937e-16
-1.2935e-14
-8.22218e-16
-1.19091e-14
-1.22606e-16
-1.21365e-14
3.52973e-16
-1.30991e-14
4.42602e-16
-1.38656e-14
-1.38848e-16
-1.33217e-14
-1.84099e-15
-1.19416e-14
-1.89725e-15
-1.07011e-14
-9.82723e-16
-9.75393e-15
7.78597e-16
-9.32015e-15
1.66116e-15
-1.02817e-14
1.45538e-15
-1.31511e-14
2.69602e-15
-1.47225e-14
1.10449e-15
-1.41145e-14
-1.97254e-15
-1.3148e-14
-2.23382e-15
-1.17918e-14
-6.03798e-16
-1.0925e-14
7.791e-16
-1.05441e-14
-2.7113e-17
-1.10251e-14
-7.80204e-16
-1.16387e-14
2.42063e-16
-1.1734e-14
-1.33233e-15
-1.10744e-14
-2.94279e-15
-1.15376e-14
-1.28961e-15
-1.18719e-14
-6.48162e-16
-1.14856e-14
-3.05004e-16
-1.15749e-14
2.78815e-16
-1.29395e-14
1.29096e-15
-1.56156e-14
2.83487e-15
-1.6356e-14
1.91496e-15
-1.3841e-14
-1.23665e-15
-1.09521e-14
-2.5114e-15
-1.08756e-14
-1.00373e-15
-1.17037e-14
-6.26039e-16
-1.24709e-14
-1.04192e-15
-1.27583e-14
2.9085e-16
-1.2559e-14
1.62342e-15
-1.27424e-14
1.53322e-15
-1.26467e-14
2.65702e-16
-1.2539e-14
-3.79583e-16
-1.23694e-14
-9.80796e-16
-1.28682e-14
-2.45978e-16
-1.50003e-14
2.00337e-15
-1.82191e-14
3.4373e-15
-1.88866e-14
1.58621e-15
-1.63367e-14
-1.41361e-15
-1.41154e-14
-1.94005e-15
-1.3538e-14
-1.47065e-16
-1.37483e-14
4.00982e-16
-1.28596e-14
-7.19438e-16
-1.2061e-14
-8.2498e-16
-1.31574e-14
5.24631e-16
-1.38418e-14
5.9658e-16
-1.3046e-14
-1.99017e-16
-1.32863e-14
-2.0653e-17
-1.39092e-14
2.42492e-16
-1.33953e-14
8.56848e-16
-1.24558e-14
7.84282e-16
-1.15357e-14
-7.5532e-16
-1.05747e-14
-1.21861e-15
-1.0824e-14
-9.0291e-16
-1.28028e-14
-2.49061e-16
-1.4436e-14
8.621e-17
-1.54443e-14
3.62913e-16
-1.57885e-14
-2.44871e-16
-1.52125e-14
-9.22948e-16
-1.39932e-14
-1.85036e-15
-1.25706e-14
-1.73191e-15
-1.23088e-14
-4.50924e-16
-1.27947e-14
4.1673e-17
-1.34399e-14
9.1651e-16
-1.50288e-14
1.46859e-15
-1.46994e-14
-3.28733e-16
-1.1928e-14
-1.89856e-15
-1.06739e-14
-4.14414e-16
-1.14904e-14
1.30978e-15
-1.23309e-14
9.44111e-16
-1.20429e-14
-1.20376e-16
-1.1128e-14
-8.53837e-16
-1.08727e-14
-3.62748e-16
-1.16242e-14
2.14411e-16
-1.2826e-14
-5.91799e-17
-1.33103e-14
-3.07639e-16
-1.32811e-14
6.88418e-16
-1.52167e-14
2.94486e-15
-1.67952e-14
3.27806e-15
-1.66957e-14
3.0872e-15
-1.49655e-14
2.04006e-15
-1.3392e-14
-1.0596e-15
-1.32959e-14
-3.46444e-15
-1.36375e-14
-3.65286e-15
-1.46699e-14
-2.50068e-15
-1.40892e-14
-1.83003e-15
-1.2981e-14
-7.15524e-16
-1.31667e-14
1.32936e-15
-1.33303e-14
1.1743e-15
-1.4378e-14
1.00327e-15
-1.52885e-14
2.7267e-15
-1.3841e-14
2.33059e-15
-1.19896e-14
5.1992e-17
-1.23288e-14
-1.72814e-15
-1.36229e-14
-1.58164e-15
-1.45532e-14
-9.17139e-16
-1.4997e-14
-2.49982e-16
-1.3715e-14
-7.80798e-16
-1.18936e-14
-9.02837e-16
-1.27724e-14
1.24908e-15
-1.54262e-14
3.31707e-15
-1.55999e-14
1.73979e-15
-1.40787e-14
-1.67417e-15
-1.44029e-14
-1.58932e-15
-1.3871e-14
-1.18595e-15
-1.21871e-14
-1.49466e-15
-1.19302e-14
-5.17475e-16
-1.29616e-14
1.03023e-15
-1.39763e-14
1.23313e-15
-1.40454e-14
1.11033e-15
-1.32181e-14
-8.89934e-17
-1.29684e-14
-8.72196e-16
-1.37006e-14
3.19193e-16
-1.41772e-14
3.24184e-16
-1.47816e-14
9.96609e-16
-1.56539e-14
1.05832e-15
-1.54722e-14
-2.68655e-16
-1.40654e-14
-1.09185e-15
-1.26942e-14
2.02111e-16
-1.21026e-14
1.20756e-15
-1.22147e-14
1.24092e-15
-1.30961e-14
8.53802e-16
-1.39153e-14
-1.81199e-15
-1.34251e-14
-3.51879e-15
-1.30199e-14
-1.51543e-15
-1.18883e-14
-4.26636e-16
-1.06601e-14
2.20631e-17
-1.10739e-14
1.32491e-15
-1.34532e-14
2.35254e-15
-1.53459e-14
1.12568e-15
-1.60939e-14
7.51704e-16
-1.83088e-14
2.88296e-15
-1.88704e-14
1.81484e-15
-1.70707e-14
2.06577e-16
-1.48001e-14
-9.90972e-16
-1.28965e-14
-2.15767e-15
-1.26999e-14
-1.52087e-15
-1.34653e-14
-4.04488e-16
-1.5114e-14
1.06543e-15
-1.64012e-14
1.63419e-15
-1.60056e-14
1.0408e-16
-1.53638e-14
4.25181e-16
-1.51258e-14
1.24126e-15
-1.54801e-14
-3.31726e-17
-1.67066e-14
8.55913e-16
-1.81069e-14
1.85819e-15
-1.83152e-14
5.93092e-16
-1.60216e-14
-1.47696e-15
-1.32448e-14
-1.78722e-15
-1.33186e-14
-6.97589e-16
-1.44298e-14
-1.30358e-16
-1.52525e-14
1.64279e-16
-1.58342e-14
8.25921e-17
-1.67338e-14
1.41668e-15
-1.96504e-14
4.38778e-15
-2.31595e-14
5.15468e-15
-2.23098e-14
1.34105e-15
-1.90487e-14
-1.84208e-15
-1.91399e-14
-4.71737e-16
-2.07099e-14
-8.3549e-16
-2.0344e-14
-2.2906e-15
-1.91367e-14
-1.73443e-15
-1.88152e-14
-1.80163e-15
-1.73936e-14
-1.6269e-15
-1.62401e-14
1.32734e-16
-1.70321e-14
1.12888e-15
-1.7349e-14
1.69975e-15
-1.68806e-14
1.3515e-15
-1.71728e-14
1.51223e-15
-1.78116e-14
2.77893e-15
-1.72847e-14
2.07765e-15
-1.79763e-14
-5.32094e-16
-2.01668e-14
-2.11572e-15
-2.08194e-14
-1.35076e-15
-1.89692e-14
-2.46941e-15
-1.6822e-14
-2.00285e-15
-1.64164e-14
1.13492e-15
-1.69819e-14
6.24669e-16
-1.69325e-14
-7.91979e-16
-1.58617e-14
8.63672e-16
-1.58203e-14
1.90574e-15
-1.58066e-14
5.48323e-16
-1.52339e-14
-9.90999e-16
-1.55997e-14
-4.92984e-16
-1.63058e-14
-1.88462e-17
-1.74917e-14
2.50368e-16
-1.75096e-14
-1.16141e-16
-1.54383e-14
-1.53836e-15
-1.41384e-14
-1.8915e-15
-1.35321e-14
-1.46319e-15
-1.34652e-14
-2.7327e-16
-1.4267e-14
1.02785e-15
-1.5203e-14
7.59609e-16
-1.55837e-14
2.01289e-16
-1.54243e-14
1.15393e-16
-1.58501e-14
1.19461e-15
-1.76221e-14
3.28706e-15
-1.94563e-14
4.51442e-15
-1.99387e-14
1.65787e-15
-1.87254e-14
1.18039e-15
-1.69085e-14
-1.02572e-15
-1.62435e-14
-3.45451e-15
-1.57085e-14
-2.75309e-15
-1.5514e-14
9.18012e-16
-1.5756e-14
3.63102e-15
-1.60832e-14
4.62883e-15
-1.73796e-14
2.56208e-15
-1.87552e-14
3.14434e-16
-2.06125e-14
-9.98112e-17
-2.34298e-14
-1.30436e-15
-2.22978e-14
-4.26415e-15
-1.98318e-14
-4.14876e-15
-1.96965e-14
-8.9109e-16
-1.98648e-14
3.81013e-16
-2.00315e-14
-4.22394e-18
-1.88817e-14
1.25283e-15
-1.68168e-14
2.2826e-15
-1.76734e-14
3.06484e-15
-1.77214e-14
6.61928e-16
-1.65908e-14
-1.35432e-15
-1.79279e-14
-7.54494e-17
-2.0772e-14
1.44074e-15
-2.18438e-14
1.72633e-15
-2.19366e-14
8.25189e-16
-2.3193e-14
1.66499e-15
-2.31271e-14
1.13227e-15
-2.26537e-14
2.84853e-16
-2.34838e-14
2.48774e-15
-2.27132e-14
1.12284e-15
-2.14384e-14
-1.82506e-15
-1.98826e-14
1.66796e-16
-1.96344e-14
1.74235e-15
6.62705e-16
-1.37976e-16
-3.63582e-16
-2.53011e-16
-3.09485e-16
-3.92802e-16
-3.85357e-16
-5.25376e-16
-3.10364e-16
-6.89761e-16
-3.61211e-16
-8.24538e-16
-2.61888e-16
-1.10237e-15
-2.32009e-16
-1.32335e-15
-2.65742e-16
-1.56283e-15
-9.25486e-17
-1.97105e-15
-4.88088e-17
-2.23677e-15
-2.60379e-16
-2.16702e-15
-5.13952e-16
-2.22646e-15
-5.27485e-16
-2.70812e-15
-4.44633e-16
-3.18498e-15
-5.34575e-16
-3.39938e-15
-3.98142e-16
-3.24474e-15
-3.62805e-16
-2.83407e-15
-4.17044e-16
-2.73377e-15
-4.79741e-16
-2.84378e-15
-4.67159e-16
-2.83553e-15
-3.67501e-16
-2.70842e-15
-1.4112e-16
-2.57238e-15
-7.9325e-17
-2.50665e-15
-4.09461e-16
-2.74117e-15
1.26088e-17
-3.00415e-15
2.29084e-16
-3.39525e-15
-2.67796e-16
-4.18479e-15
-3.35061e-16
-4.55246e-15
-4.47743e-16
-4.35557e-15
-6.2727e-16
-4.52807e-15
-4.79203e-16
-4.5021e-15
-6.38188e-16
-4.24338e-15
-9.73477e-16
-3.88837e-15
-9.27212e-16
-3.70537e-15
-1.70742e-16
-3.8054e-15
1.04717e-16
-3.74397e-15
-5.1886e-16
-3.75808e-15
-6.58995e-16
-3.95212e-15
-7.44292e-16
-4.40278e-15
-6.54513e-16
-4.92614e-15
-2.22721e-16
-5.31235e-15
2.33825e-16
-5.76178e-15
2.4473e-16
-6.25404e-15
1.04943e-16
-5.66354e-15
-5.68543e-16
-4.78749e-15
-1.10413e-15
-4.88708e-15
-9.77706e-16
-5.49978e-15
-3.26854e-16
-6.36047e-15
1.64143e-16
-6.1027e-15
-3.02186e-16
-5.12386e-15
-3.50804e-16
-4.80944e-15
3.48769e-16
-5.12897e-15
2.36663e-16
-5.93547e-15
-9.32393e-17
-7.0261e-15
-1.08875e-16
-8.28282e-15
5.49951e-17
-9.29747e-15
-6.99974e-16
-9.5542e-15
-1.07549e-15
-8.27791e-15
-1.29578e-15
-6.48146e-15
-1.12182e-15
-6.27056e-15
-5.68264e-16
-6.97796e-15
-4.53868e-16
-7.16446e-15
-3.72053e-16
-6.68436e-15
-5.14178e-16
-6.45636e-15
-4.50007e-16
-5.77036e-15
-6.6944e-16
-4.89012e-15
-4.86994e-16
-4.78159e-15
-1.2508e-16
-5.28967e-15
3.14333e-16
-5.60097e-15
8.66451e-16
-6.59439e-15
4.41414e-16
-7.20336e-15
-7.69078e-16
-6.48542e-15
-1.37819e-15
-5.99279e-15
-9.7472e-16
-6.78159e-15
5.05775e-16
-8.29688e-15
1.46993e-15
-9.60748e-15
9.22497e-16
-1.0656e-14
1.05568e-15
-1.0044e-14
2.97855e-16
-9.19924e-15
-5.70484e-16
-9.40828e-15
-2.13959e-16
-9.67982e-15
-2.64146e-16
-9.26181e-15
-9.17953e-16
-8.48072e-15
-1.19434e-15
-8.46941e-15
-1.62225e-15
-9.35657e-15
-1.27547e-15
-9.84568e-15
-1.05411e-15
-8.87801e-15
-5.37007e-16
-7.78975e-15
2.51356e-17
-8.02947e-15
1.09549e-15
-7.64189e-15
5.43962e-16
-6.46284e-15
-2.36436e-16
-6.47187e-15
-1.73177e-16
-6.83032e-15
-1.08475e-15
-6.65948e-15
-1.30513e-15
-7.3153e-15
-4.79131e-16
-8.72779e-15
3.06807e-16
-9.38544e-15
-9.61814e-16
-8.82597e-15
-2.15846e-15
-8.29974e-15
-1.00882e-15
-9.12206e-15
4.46253e-16
-9.32589e-15
8.7579e-17
-9.07855e-15
4.26006e-16
-9.96782e-15
4.89329e-16
-1.0156e-14
-3.14809e-16
-9.26851e-15
1.66408e-18
-8.79155e-15
7.17325e-16
-8.97905e-15
3.64462e-16
-9.87414e-15
1.94611e-16
-1.01994e-14
-4.03377e-16
-9.81834e-15
-1.45476e-15
-8.77322e-15
-1.68776e-15
-8.21427e-15
-4.86293e-16
-9.00699e-15
3.59812e-16
-9.85129e-15
5.02447e-16
-9.9118e-15
-2.83174e-16
-9.41229e-15
-8.05723e-16
-8.56322e-15
-2.93454e-16
-8.00902e-15
3.64878e-16
-7.89979e-15
-1.95774e-16
-8.33454e-15
-7.2186e-16
-8.63594e-15
-4.06606e-16
-8.07059e-15
-1.45382e-16
-7.23379e-15
-2.59245e-16
-7.0561e-15
4.4276e-16
-7.69979e-15
7.78507e-16
-8.97929e-15
4.87159e-16
-9.78108e-15
2.93472e-16
-9.97588e-15
-2.6899e-16
-1.09661e-14
8.27001e-17
-1.2163e-14
6.24691e-16
-1.15696e-14
1.5591e-15
-1.02857e-14
9.16381e-16
-1.04768e-14
-5.51542e-16
-1.10932e-14
-7.29122e-16
-1.13498e-14
-3.12888e-17
-1.25417e-14
-8.43646e-16
-1.31072e-14
-1.37371e-15
-1.32191e-14
5.18311e-17
-1.43948e-14
1.8144e-15
-1.66761e-14
2.35304e-15
-1.67944e-14
-6.85832e-16
-1.4856e-14
-2.12121e-15
-1.38179e-14
-1.27506e-15
-1.23331e-14
-2.03634e-15
-1.13838e-14
-8.31402e-16
-1.17792e-14
4.23485e-16
-1.20163e-14
-7.05654e-16
-1.19272e-14
-1.32901e-15
-1.21573e-14
9.33827e-17
-1.27471e-14
2.03711e-16
-1.36737e-14
-9.67739e-18
-1.59568e-14
1.72224e-15
-1.64576e-14
5.60354e-16
-1.39483e-14
-1.20935e-15
-1.19517e-14
-9.66393e-16
-1.09496e-14
-2.22653e-16
-9.97154e-15
-5.92148e-17
-9.09819e-15
-6.98752e-16
-9.03988e-15
-4.37144e-16
-1.03106e-14
5.1851e-16
-1.15103e-14
3.06698e-16
-1.19675e-14
2.64894e-16
-1.24294e-14
7.52052e-16
-1.20904e-14
4.25654e-17
-1.14315e-14
-8.57823e-16
-1.18739e-14
-1.45996e-15
-1.27735e-14
-1.06194e-15
-1.35759e-14
-2.49834e-16
-1.38333e-14
9.62414e-16
-1.3243e-14
1.00608e-15
-1.14812e-14
-3.61355e-16
-8.72544e-15
-1.11245e-16
-7.93593e-15
2.69195e-16
-1.0578e-14
6.26701e-16
-1.31769e-14
3.13651e-16
-1.30229e-14
-8.15331e-16
-1.11077e-14
-1.19147e-15
-9.63425e-15
-1.54898e-15
-8.92956e-15
-1.5309e-15
-8.56167e-15
-1.68693e-16
-1.01545e-14
2.21694e-16
-1.22648e-14
-8.73959e-16
-1.29748e-14
-6.24837e-16
-1.42449e-14
5.74022e-16
-1.68147e-14
2.2079e-15
-1.91877e-14
2.58958e-15
-1.99526e-14
1.98805e-15
-1.78133e-14
6.16681e-16
-1.33172e-14
-2.66605e-15
-1.08436e-14
-3.74092e-15
-1.0948e-14
-2.43335e-15
-1.23144e-14
3.35948e-16
-1.40049e-14
1.02779e-15
-1.55195e-14
4.25074e-16
-1.54436e-14
1.59762e-16
-1.45179e-14
6.40533e-16
-1.42192e-14
1.18135e-15
-1.43423e-14
3.48709e-16
-1.45523e-14
-2.01171e-16
-1.50474e-14
-5.16627e-16
-1.53231e-14
-3.21383e-18
-1.47227e-14
1.36856e-15
-1.35378e-14
2.21862e-15
-1.2917e-14
9.3536e-16
-1.38354e-14
-5.22117e-16
-1.46652e-14
-1.13519e-15
-1.41637e-14
-6.72777e-16
-1.26203e-14
-1.16693e-15
-1.18946e-14
-1.46891e-15
-1.26644e-14
-7.64182e-17
-1.32131e-14
1.05301e-15
-1.28025e-14
1.65727e-16
-1.2985e-14
-3.67606e-17
-1.30959e-14
7.15168e-17
-1.27682e-14
-1.03697e-16
-1.19868e-14
5.72185e-17
-1.12673e-14
4.78461e-17
-1.18244e-14
-2.13599e-16
-1.30702e-14
1.33539e-17
-1.36799e-14
-3.07237e-16
-1.3741e-14
-2.02711e-16
-1.43785e-14
7.08702e-16
-1.46477e-14
6.16818e-16
-1.43375e-14
-5.68695e-16
-1.38227e-14
-1.45016e-15
-1.44612e-14
-1.22364e-15
-1.47983e-14
-1.40651e-15
-1.32847e-14
-1.97592e-15
-1.18099e-14
-1.44334e-15
-1.19225e-14
1.02015e-15
-1.25022e-14
2.03936e-15
-1.29094e-14
6.97384e-17
-1.44412e-14
-3.74362e-16
-1.44188e-14
-4.44781e-16
-1.2038e-14
-1.0786e-15
-1.09373e-14
-1.62673e-16
-1.21351e-14
1.07222e-15
-1.45497e-14
1.55582e-15
-1.66309e-14
1.71405e-15
-1.73205e-14
9.00255e-16
-1.75177e-14
1.34821e-16
-1.79666e-14
1.38391e-16
-1.77216e-14
4.40404e-16
-1.66885e-14
1.90901e-15
-1.59018e-14
2.4892e-15
-1.46836e-14
1.86966e-15
-1.20809e-14
-5.51052e-16
-1.07885e-14
-2.346e-15
-1.14339e-14
-2.81663e-15
-1.25537e-14
-2.53144e-15
-1.36565e-14
-1.3954e-15
-1.38444e-14
-1.63863e-15
-1.44487e-14
-1.07243e-16
-1.44378e-14
1.32286e-15
-1.39018e-14
6.43108e-16
-1.41581e-14
1.26503e-15
-1.38006e-14
2.37568e-15
-1.28279e-14
1.36523e-15
-1.2794e-14
2.51646e-17
-1.3837e-14
-6.78456e-16
-1.45396e-14
-8.71836e-16
-1.52958e-14
-1.52888e-16
-1.60343e-14
4.97272e-16
-1.62791e-14
-5.2646e-16
-1.54432e-14
-1.72877e-15
-1.36191e-14
-5.63864e-16
-1.14611e-14
1.17229e-15
-9.8439e-15
1.35385e-16
-1.1095e-14
-4.12092e-16
-1.40954e-14
1.42214e-15
-1.58461e-14
5.77311e-16
-1.60682e-14
-1.25862e-15
-1.66086e-14
3.59827e-17
-1.67229e-14
1.15844e-15
-1.75503e-14
2.07611e-15
-1.78259e-14
1.40447e-15
-1.69054e-14
-9.89313e-16
-1.80587e-14
3.00278e-16
-1.81782e-14
4.58076e-16
-1.73931e-14
-4.4184e-16
-1.56394e-14
-7.37804e-16
-1.32198e-14
-1.34211e-15
-1.29706e-14
-4.99865e-16
-1.46465e-14
6.00556e-16
-1.51013e-14
6.74306e-16
-1.43939e-14
5.18226e-16
-1.38191e-14
6.83653e-16
-1.47725e-14
1.82431e-15
-1.77903e-14
1.22351e-15
-1.86337e-14
-2.65701e-15
-1.75336e-14
-2.59603e-15
-1.88816e-14
9.43132e-16
-2.15638e-14
2.73053e-15
-2.3895e-14
3.69003e-15
-2.43013e-14
2.80532e-15
-2.34068e-14
2.76989e-16
-2.36925e-14
1.07902e-15
-2.09096e-14
1.55148e-16
-1.68955e-14
-2.13436e-15
-1.41405e-14
-2.49141e-15
-1.32308e-14
-1.87374e-15
-1.58796e-14
5.13037e-16
-1.91731e-14
1.79556e-15
-2.04513e-14
9.01048e-16
-1.92384e-14
-1.18801e-16
-1.6865e-14
-7.09883e-16
-1.60227e-14
-7.11841e-16
-1.60644e-14
4.92862e-16
-1.51732e-14
3.77246e-16
-1.46023e-14
-5.75108e-16
-1.47291e-14
1.01335e-15
-1.44675e-14
1.62858e-15
-1.40564e-14
2.12536e-16
-1.47371e-14
-7.66661e-16
-1.63883e-14
-1.09318e-16
-1.69392e-14
-1.21823e-16
-1.57176e-14
-1.32494e-15
-1.59979e-14
4.74501e-16
-1.87584e-14
2.87534e-15
-2.12876e-14
3.98295e-15
-2.03661e-14
3.51123e-15
-1.66618e-14
1.49899e-15
-1.40874e-14
-1.19215e-15
-1.39809e-14
-1.91208e-15
-1.37616e-14
-6.60439e-16
-1.39804e-14
-5.86912e-16
-1.59063e-14
-3.30432e-16
-1.85264e-14
9.20041e-16
-2.02158e-14
-7.86114e-17
-1.92317e-14
-2.57538e-15
-1.64962e-14
-2.56549e-15
-1.52315e-14
-1.02358e-16
-1.41313e-14
6.30991e-16
-1.42827e-14
1.53357e-15
-1.53171e-14
2.5763e-15
-1.64117e-14
3.90565e-15
-1.65935e-14
2.29411e-15
-1.69775e-14
-1.1445e-16
-1.72428e-14
-1.81869e-15
-1.74724e-14
-1.08963e-15
-1.99178e-14
8.44827e-18
-2.02848e-14
-1.59865e-15
-1.8346e-14
-7.62181e-16
-1.88621e-14
1.18309e-15
-1.93337e-14
-2.78803e-16
-1.66677e-14
-1.76278e-15
-1.37684e-14
-9.55787e-16
-1.37521e-14
5.66331e-16
-1.59243e-14
1.21163e-15
-1.84076e-14
2.02522e-15
-2.00942e-14
1.70552e-15
-1.97044e-14
-1.00192e-16
-1.76789e-14
-2.10155e-15
-1.76051e-14
-1.57545e-15
-1.8311e-14
-1.15159e-15
-1.76748e-14
-2.06215e-15
-1.4733e-14