/*--------------------------------*- C++ -*----------------------------------*\
  =========                 |
  \\      /  F ield         | OpenFOAM: The Open Source CFD Toolbox
   \\    /   O peration     | Website:  https://openfoam.org
    \\  /    A nd           | Version:  7
     \\/     M anipulation  |
\*---------------------------------------------------------------------------*/
FoamFile
{
    version     2.0;
    format      ascii;
    class       volScalarField;
    location    "4500";
    object      rho;
}
// * * * * * * * * * * * * * * * * * * * * * * * * * * * * * * * * * * * * * //

dimensions      [1 -3 0 0 0 0 0];

internalField   nonuniform List<scalar> 
160000
(
22.5701
22.5689
18.8729
18.8251
16.8842
17.3158
23.6674
28.3375
22.482
21.267
19.8457
18.9184
19.123
19.1105
19.1092
21.5523
23.6173
23.6159
23.949
23.9477
23.9464
18.4304
18.4293
20.6261
23.1252
17.9461
17.9136
17.9122
17.9117
17.9094
21.8537
23.2914
23.2929
23.2891
23.2895
18.5601
18.5591
18.5582
18.5573
23.0014
23.2694
23.2677
17.9796
17.9787
17.9779
17.977
23.0392
25.253
25.2514
25.2511
18.7888
17.5398
17.5382
17.5396
17.5363
17.5392
23.442
23.4427
20.2872
20.0278
20.5118
21.6352
21.6343
21.6338
21.3678
21.3641
21.3665
21.3627
21.363
16.8726
16.8717
16.8708
16.8699
16.8698
20.7906
22.5934
22.8611
22.8611
22.8656
22.8659
22.8645
22.8646
22.8635
21.3704
20.0451
20.0448
20.044
20.0437
20.0829
20.0803
19.8525
19.8506
20.7335
21.6224
21.6223
20.2133
21.1016
21.9671
22.6744
22.611
22.6109
21.5793
21.5762
21.5775
19.1926
19.1922
19.1918
19.1914
19.4168
23.6263
23.6307
23.6258
23.6267
23.6254
21.9266
21.9272
20.5811
19.3502
20.3616
24.5422
24.6219
22.5176
22.5179
22.5174
22.5655
23.4621
23.4637
23.4616
23.4623
23.4611
23.4618
21.8105
20.4043
20.4005
20.4039
20.4001
20.4036
20.4002
20.4017
19.8477
20.5324
20.5318
20.4906
20.4911
20.4927
20.4932
20.7878
22.11
22.8178
22.8184
19.6795
19.6803
19.6794
19.6802
19.6792
19.6806
19.6773
22.2256
22.2226
22.2236
19.2745
18.8921
18.8925
22.0323
21.6213
19.5335
19.5339
17.4346
17.4343
17.4349
17.4354
26.2873
26.2867
26.2862
26.2833
20.4509
20.451
20.4513
21.8048
23.6456
23.6429
23.6441
23.6432
21.5981
20.8585
21.3067
21.3073
21.3078
15.6115
13.2991
14.7013
14.8085
16.9478
23.5122
23.515
19.6562
9.2622
9.26364
33.1055
45.3274
45.3074
45.325
44.9934
22.2244
14.8095
14.81
16.9451
24.291
24.3013
24.2914
24.2971
24.2914
24.293
24.2915
24.2916
24.2792
21.3128
20.1375
20.1466
24.9003
24.9089
24.9021
24.9025
20.2759
19.7876
19.7889
19.7839
19.79
21.3555
25.3392
24.5499
22.8532
20.9293
20.9294
20.9291
20.9293
19.9634
21.2611
21.2608
23.5701
25.5935
22.6744
22.6749
22.2345
20.4721
13.619
8.72176
6.94946
6.94918
7.73125
40.3426
51.7096
51.706
37.1924
22.0282
19.776
19.7755
16.7121
14.6972
14.6959
16.1513
23.8174
23.8215
21.0856
20.749
20.7488
20.7487
20.5871
14.3278
14.3286
15.666
28.3807
28.375
28.3834
28.3757
18.1367
18.0268
18.0238
23.3126
24.5465
24.5488
17.1127
15.8726
15.8748
16.8293
23.0603
23.0597
23.059
20.4344
21.3063
22.5501
22.5503
22.5507
22.5509
29.1554
31.8844
31.8842
20.2527
11.1144
5.34702
5.34773
5.3512
44.4191
44.4927
44.4194
44.4834
44.4101
36.5088
24.0067
15.8821
15.402
15.4015
15.2041
15.2066
15.2044
21.2777
22.0728
22.0724
22.0719
20.4818
18.6881
15.1175
11.6386
11.64
11.6329
11.6421
13.0671
24.7959
24.7945
24.7931
23.3591
20.2572
20.2548
20.2449
20.0165
19.6185
15.9848
13.2794
13.2795
13.2797
17.3264
20.7977
19.3884
15.7327
15.7328
15.7329
15.733
22.1558
26.5925
26.6086
26.5933
26.5944
20.2235
19.114
19.1141
19.1142
23.2708
25.3845
25.3933
25.3848
25.3861
21.9377
21.4332
19.3231
19.3216
20.1451
20.188
20.1902
24.9776
24.9769
24.974
24.9381
22.1042
22.1069
21.4858
21.4851
21.4843
19.6951
19.8943
20.6331
24.1197
25.2335
23.1447
23.1471
23.1415
23.147
23.14
23.1443
23.1402
19.9257
19.712
17.0094
15.7255
13.2233
8.20075
8.20212
8.19963
6.96446
8.43043
8.88587
20.0762
20.0748
25.8156
19.2134
18.0133
17.6427
17.6415
20.2904
20.5586
21.6086
21.6071
21.2901
19.4078
19.1105
19.875
23.5789
23.5779
19.3326
19.3313
19.3301
20.9177
18.7178
23.1279
23.1269
23.1253
17.9151
17.9136
17.9128
19.1676
22.5296
22.5278
20.834
21.8854
23.2896
23.288
18.5601
20.2329
18.5582
19.6134
23.2705
23.2684
23.2684
20.6535
17.9787
17.9779
17.977
19.0966
19.8611
23.8257
25.2495
21.3867
17.6588
21.6393
22.9319
22.9314
19.7683
23.4429
21.4776
20.0286
20.0275
20.0265
21.635
21.4297
20.3033
20.7029
21.3653
18.989
18.9883
18.9878
20.5176
20.5172
20.5167
17.9594
18.1551
21.1264
22.8614
22.8618
22.5217
20.6419
20.6411
20.6406
20.6398
20.5151
20.5145
20.5139
20.5136
20.5131
19.8535
19.8504
19.8528
19.8496
20.1634
21.6228
21.6226
20.2137
20.2127
21.9706
22.4917
22.9044
22.9044
22.9037
22.9038
19.945
19.9442
20.1194
19.1924
20.0752
23.63
23.6265
23.6296
23.626
21.9906
20.7403
20.5055
20.1982
20.1329
19.3496
19.3495
19.7142
24.6402
24.6372
24.6399
24.6368
24.6371
23.7021
23.4625
23.462
22.2053
23.4611
23.4618
23.4606
20.405
20.4012
22.1445
23.1913
20.922
21.1862
21.1889
19.8469
19.8473
19.846
19.8474
20.4881
22.8183
22.8217
22.8184
22.8202
22.8185
22.8191
20.0936
20.0937
20.0938
19.6803
19.6776
19.6805
19.6767
19.681
20.1942
18.9094
18.8912
18.8901
18.8915
22.9125
22.9699
19.9848
19.5339
19.7819
17.6212
16.5866
17.8623
22.3768
27.0653
20.8801
20.8801
22.7151
23.6413
23.6439
23.642
23.6446
23.6426
23.644
23.6431
23.6443
19.3376
19.3364
21.0227
17.9494
9.68244
6.23033
6.22888
7.53181
39.1992
57.57
41.945
18.2243
9.26205
9.26351
9.63583
42.3947
45.3067
45.3184
37.1382
22.2807
15.4874
14.8097
14.8097
23.5893
24.3016
24.2911
24.2291
24.2911
23.0125
20.6311
21.5797
22.656
20.8841
20.8842
21.6591
24.8993
24.9039
24.9006
21.9033
19.7894
19.7878
19.7892
19.7846
19.7897
19.7817
19.791
25.3296
26.5693
26.5641
26.5689
26.5648
26.5667
18.771
18.7711
21.2609
24.3513
25.4791
25.5951
21.6518
21.651
20.2082
9.80346
6.55403
6.55555
10.5994
51.7815
51.7323
51.777
51.7255
26.3457
21.1299
21.1341
19.8094
16.6582
15.3265
16.0076
23.8263
23.8191
23.8232
18.7395
18.7397
20.8566
20.8579
20.859
14.3255
14.3264
17.7666
28.384
28.3742
28.384
28.3754
22.6927
18.0269
18.0233
18.0275
19.1735
24.5485
18.0213
15.8737
15.8746
20.996
23.0615
23.0612
23.0606
21.7568
20.3373
20.3384
20.9371
24.0804
33.2716
33.2697
28.316
23.7771
23.843
14.2433
5.34696
5.34765
5.34689
15.9896
44.4862
44.4432
44.4284
23.6101
15.5772
15.122
15.1225
17.3231
16.6716
15.2057
15.2064
15.2043
21.9673
22.074
22.0735
22.073
20.0294
18.1615
14.5563
11.6419
11.6422
11.635
31.8082
33.2251
33.2437
24.8021
23.6571
22.8732
17.752
17.4461
17.4474
18.1539
19.4056
20.8182
17.8441
16.8647
18.9574
18.2303
17.5367
22.3928
22.3936
15.7327
15.7328
15.733
23.3134
26.591
26.6093
26.5918
26.5952
22.069
19.1147
19.1139
21.3335
23.9933
22.425
22.1883
25.3846
25.3871
25.3849
23.0099
20.1459
19.3186
25.6244
26.849
26.864
26.8492
26.8562
24.3885
22.2111
22.2176
22.4144
19.8651
19.6529
19.5011
19.501
19.5012
20.4447
21.9325
25.6447
25.6448
25.6448
25.6448
23.8518
23.9972
23.9976
21.517
21.2913
21.2963
21.2908
20.3489
20.3473
17.1456
10.299
10.7692
7.68575
6.96515
8.2196
8.88587
20.0762
20.6486
25.8159
25.0883
25.0873
20.1514
20.2292
22.3039
20.2126
20.2114
21.496
21.495
19.4081
19.613
21.7369
21.7353
23.5776
23.576
19.3312
19.3299
19.3286
23.129
23.128
21.2814
21.2805
21.853
21.8522
20.5005
22.5303
22.529
18.8746
20.2597
22.8785
23.2886
21.591
19.368
22.3074
22.3063
21.9742
19.8053
19.3157
19.3145
19.6882
20.2613
21.5326
21.5318
19.5568
19.5563
19.5558
20.5202
21.3862
19.4826
19.1045
19.104
19.1028
19.1027
22.6685
23.7359
23.7342
23.7339
18.9251
18.3374
20.3047
20.3034
19.9369
21.3637
21.3643
21.3623
18.9879
20.0349
19.6789
19.6781
19.6851
19.6845
18.4223
18.4232
18.42
18.4223
20.6596
22.4655
22.463
22.4632
22.462
22.4603
21.0514
18.7129
19.8126
21.4218
21.4203
19.8512
19.999
20.6184
20.2365
20.2351
20.2351
17.6011
17.6007
17.5997
20.5286
20.3594
19.2391
22.9029
22.2361
19.2864
20.1192
22.0033
23.6585
21.2762
21.0457
21.0455
21.0453
22.1058
22.1059
20.9953
21.2355
21.2355
19.3488
19.4201
22.1409
23.5566
20.5861
19.2673
19.2683
20.4585
22.3975
22.0367
20.22
20.2183
20.2198
20.2182
20.2197
24.036
24.5246
24.5249
23.1915
21.4421
20.2316
20.2312
20.231
19.8465
21.1786
23.9693
23.9696
20.3
20.298
20.3
20.53
22.8195
22.8186
19.6807
19.6801
19.6806
19.6794
19.9201
21.0406
21.0406
20.1623
22.0736
22.0737
22.0738
18.8913
18.8902
18.8916
23.1343
23.1383
23.1349
20.8505
16.5864
16.5866
16.5867
20.5097
27.9218
27.9213
27.9223
22.6149
21.0456
21.0455
21.0454
21.0449
23.3628
23.6428
23.4185
21.8105
21.1761
15.6682
9.56124
6.45803
6.23022
6.22881
7.00306
70.2291
70.2481
57.5747
28.1683
14.8505
10.0968
9.26317
10.8618
20.0997
28.4645
24.1007
17.285
14.4119
16.2653
22.0935
26.3797
26.3782
22.8224
20.4999
20.4988
22.3851
20.4954
20.496
20.4958
21.892
20.884
21.8653
24.8975
24.9003
23.42
19.7897
19.7903
19.7891
19.7894
24.4765
27.0792
24.2954
21.6588
24.7876
25.3959
25.4005
26.569
26.5644
23.0179
16.4767
19.0917
21.7922
21.1519
21.1518
23.5957
27.5806
27.5817
19.6471
10.2008
6.9508
6.55517
6.55201
14.5434
51.7317
51.7812
51.7329
25.5914
17.136
17.1354
17.9905
16.928
15.3263
15.326
18.7456
23.819
23.8218
19.0701
18.4045
21.3212
22.4143
20.0698
14.8576
14.3234
21.8385
28.6499
24.87
23.9924
23.987
26.5263
23.2006
18.0264
18.0272
18.0234
18.0283
18.0245
20.5735
24.1494
24.1478
24.146
23.0633
19.3402
19.3401
21.5569
24.6992
24.83
24.6282
19.8423
12.8266
8.44751
8.44575
8.44399
8.44419
6.44395
5.34766
5.34712
9.81577
44.4354
44.4191
30.5625
18.0254
16.3193
16.3183
21.3282
21.0551
18.9734
18.1637
17.5344
17.5094
21.4914
22.0753
22.0749
21.2013
19.9291
19.6889
16.2272
11.6464
11.6445
18.5604
33.2451
33.2248
33.245
28.2726
19.4666
18.9706
18.84
17.4473
17.4472
22.306
23.5154
23.6155
24.4901
22.2524
22.0215
25.1961
27.9962
29.6843
27.8281
21.8793
19.7552
20.4048
20.9311
24.3252
26.609
26.5912
26.0562
19.3487
19.5441
22.7534
23.9943
23.9944
23.9946
21.2663
21.2624
25.3869
25.3848
21.8639
19.3208
19.3154
19.3181
26.8484
26.8549
24.4118
26.7766
26.721
22.2044
22.2043
22.8949
26.7824
26.7826
25.6701
24.5846
26.3301
24.6562
20.3447
20.3448
21.6553
22.0303
23.9698
25.6439
25.6439
23.9972
23.9966
24.1747
24.1755
24.176
19.0286
19.0274
19.0273
17.5342
15.8338
13.014
7.21981
7.0233
8.88949
8.88933
20.3506
22.4221
23.0362
22.9479
23.3699
23.3685
21.7203
22.3037
20.2124
21.1921
21.1908
21.0185
20.9738
19.3402
19.3386
19.3371
19.4685
20.0638
19.3312
20.7013
19.1582
19.1569
19.1556
19.7339
23.3647
23.3636
21.4489
22.5314
22.53
17.7052
17.7036
17.7028
17.701
17.7003
17.6982
23.7061
23.7049
22.1364
19.3179
19.3166
19.3153
19.314
19.3231
19.3225
19.9775
21.3595
21.3585
21.3574
20.9138
19.1073
19.1066
19.1055
19.1048
19.1033
19.6383
19.6373
18.7985
18.7601
17.595
17.5945
17.5938
18.3366
21.566
19.1184
19.1177
19.1171
18.7283
16.4915
19.6661
22.9156
22.9156
18.5678
18.4944
18.4934
19.1659
22.0074
22.0078
22.0063
22.0067
18.713
18.7149
18.7111
18.714
18.7087
18.7132
18.7079
18.7125
21.1466
21.4215
21.4199
20.684
20.6186
20.618
20.6098
18.423
19.4955
19.496
17.5996
17.5993
17.5988
17.5988
15.9155
15.9156
18.9761
21.0104
25.0114
26.0144
24.498
24.0965
24.096
21.0454
21.7455
22.1058
20.0585
19.3498
19.3485
19.3486
19.347
20.9393
22.0506
19.6104
19.4735
19.4721
18.737
18.7365
18.7369
20.9999
21.0019
20.4093
20.4096
20.2761
21.2622
20.866
19.2675
18.5782
21.6149
22.6762
22.6765
21.7574
23.7504
25.8502
23.9703
20.2999
20.2955
20.3
20.2955
20.3001
21.4696
20.8882
21.2689
21.2678
21.269
21.2679
19.413
19.3914
19.3902
19.3909
19.3896
19.3905
19.0378
20.7857
23.1707
23.1707
23.1736
22.2539
17.356
16.5863
16.5864
16.5866
29.0441
29.0468
27.6777
23.4479
23.4432
23.4473
23.4433
23.4444
22.6006
19.5252
19.5247
22.9825
22.9229
17.4106
14.4003
10.5952
7.44232
6.23154
6.22881
12.388
87.8199
87.8642
64.0803
30.4744
26.0821
25.4362
19.4499
13.3916
12.7367
15.3302
17.8153
17.6716
14.4118
14.412
14.4115
23.0191
26.3779
26.3794
23.1793
22.7389
22.7387
21.7376
20.4958
20.4955
21.7822
24.8305
24.8309
24.8315
24.8324
23.4909
20.0707
19.7905
19.7898
23.3561
27.4142
27.4146
27.4149
25.5703
23.0096
20.7633
19.0177
19.8527
23.5455
22.7212
17.3352
16.2305
20.9633
25.3176
28.2581
28.2588
28.2588
27.582
20.1756
11.7771
7.23941
6.55506
6.55258
6.55544
23.3398
51.7809
51.7323
27.8484
17.7699
17.7249
17.3682
16.7676
16.7677
16.7664
21.0676
23.819
23.8236
23.2405
17.5408
18.1966
22.414
22.4145
19.7027
13.7031
13.7024
16.0595
28.6481
28.6595
28.6489
28.6602
28.6496
19.2425
18.0275
18.0231
18.0281
18.0253
29.3099
29.308
25.3802
20.5452
18.5671
18.5672
19.3403
19.4274
21.2269
24.791
24.831
21.4954
11.8734
8.45026
8.44882
8.44741
8.4455
15.0118
30.6157
33.6126
33.6065
33.6078
19.0389
24.057
20.4145
20.4137
24.0432
26.4871
27.3372
24.8753
22.8653
22.4863
20.1465
18.6137
20.1678
22.0757
21.8378
21.7474
20.2229
14.6728
11.6495
11.649
13.1594
32.8594
33.2238
33.2344
24.7333
18.6411
17.4276
18.8275
19.5141
19.5146
19.0679
18.338
17.9315
17.9265
27.3478
31.1378
34.2858
34.2852
34.2854
34.2855
29.8899
23.5525
19.7576
19.7602
20.9759
24.1854
22.0622
20.5447
20.211
19.3467
19.7936
20.0558
21.2675
23.3843
23.6269
21.8012
20.0178
20.0157
23.1972
24.3406
24.3411
23.4138
18.2494
18.2882
19.6093
19.4054
21.566
27.1377
27.1359
27.0799
25.4658
25.6618
26.6417
27.357
27.3554
27.0714
22.4702
20.3447
20.3448
22.9598
22.0317
22.0323
23.8679
25.6431
25.6432
24.6074
24.6083
21.0713
21.0712
21.3317
20.8735
17.4046
17.4037
17.4043
13.9772
9.85478
8.89308
8.88942
8.88949
22.3128
24.2766
22.8159
22.068
21.4673
21.4314
19.96
19.9581
20.0697
19.9557
20.6053
19.9523
19.9518
20.1999
21.3268
19.3354
19.3329
19.3328
19.3302
20.8316
20.8295
20.0537
19.1554
19.1542
19.1531
17.9905
17.9894
17.9882
17.9868
21.8358
22.2845
22.2826
21.4599
22.2795
17.4392
17.439
17.4364
17.4378
21.249
25.06
20.1027
22.9631
22.962
20.199
19.5013
19.5004
19.4994
19.4984
20.1546
20.1919
19.7348
19.8109
19.8097
18.9283
18.9274
18.9265
18.9253
20.6473
20.6465
18.6547
17.5939
18.3167
23.5593
24.0691
24.068
24.0669
24.065
16.4915
16.4899
16.4917
16.4888
16.492
18.7843
19.335
19.1657
21.4103
19.8622
19.8617
21.4949
21.4943
21.4934
18.7144
19.3193
21.8748
21.8733
21.8743
21.8722
19.6739
18.9668
18.9662
18.9659
17.4053
17.4049
17.4047
17.4041
18.7375
20.2704
20.2717
20.2729
20.2738
22.0677
15.9155
15.915
15.9151
15.9132
22.6625
26.0141
25.495
22.1064
22.146
21.2945
21.166
21.1684
21.7419
21.7432
21.7416
19.3475
19.3475
19.5739
19.3465
19.429
19.4323
18.7375
18.7366
20.285
20.2841
19.0769
16.9439
16.9433
19.4551
22.4652
22.4701
22.4653
22.4671
16.2867
16.2867
16.2865
17.4438
20.4636
25.2925
25.85
25.8502
25.8497
23.0575
20.5692
20.5699
20.5067
19.3413
19.341
19.3406
19.2904
18.5003
19.7507
22.6107
22.6058
22.6108
22.606
21.0671
16.1093
16.1063
16.1095
16.1035
16.1098
21.3225
24.4638
17.356
20.2274
16.5864
16.5865
18.2693
28.3214
27.3522
25.3138
22.4731
22.4732
22.4733
22.4735
21.8584
20.2556
19.5238
19.5239
19.5233
19.5243
12.4198
6.14827
10.1053
41.4736
87.8714
87.8263
87.8706
71.0356
27.4064
18.4556
21.9146
25.4334
20.8712
15.5058
16.2474
20.8148
19.2074
19.3022
14.4118
14.412
14.4121
23.0091
26.3797
26.3782
24.3384
22.0178
21.1204
20.496
20.4953
22.2355
24.8291
24.8301
22.957
20.3542
20.3553
20.4674
24.1889
24.1894
24.1898
22.1345
22.8501
24.6564
22.5302
19.5595
18.6018
18.602
18.6024
19.1861
22.3948
20.6449
19.9565
16.0946
26.0808
26.0824
25.4082
19.9034
18.4668
18.465
18.0105
11.2037
6.55549
6.55249
8.65399
22.3105
51.724
51.7272
29.8956
17.337
16.6559
17.6213
17.5708
17.6186
19.5903
22.9055
23.8187
23.8204
23.8193
20.4689
17.3608
16.65
16.6498
19.4201
16.9695
16.0935
13.7024
13.7027
22.1604
28.6485
28.6582
27.4798
18.0296
18.0297
18.0244
23.6702
30.7518
30.7608
30.7527
23.9043
19.8478
19.8483
21.3228
19.772
19.1752
19.1751
21.0291
24.8277
24.8299
17.3576
10.018
8.45175
8.45036
8.44867
17.4008
54.2944
54.2944
54.2955
28.7885
19.1256
12.9767
12.977
25.7262
27.4063
27.3968
27.4021
27.3391
22.7704
20.9861
19.9204
18.6196
18.6152
30.5038
30.7587
30.7588
24.6631
18.5437
13.7232
11.652
13.5444
26.303
33.2214
33.2331
28.3517
18.3742
15.7229
15.7233
15.7218
18.6537
19.5145
19.5147
17.1147
17.9328
15.0975
18.0004
26.5424
31.4452
34.2852
33.905
26.1278
26.0942
26.0908
26.0963
26.0884
26.0923
22.6658
19.831
19.8312
19.774
19.3464
19.7949
24.2358
24.2388
24.2384
22.1681
20.7631
20.6295
20.0147
20.0133
21.5178
20.3023
16.4103
13.5592
14.3206
14.8569
19.4062
15.6116
23.769
27.4224
27.4207
29.1385
33.2587
33.2605
32.6584
22.6257
22.6244
22.624
21.7519
20.9239
22.9648
24.9789
25.3698
25.3698
25.3532
21.7969
21.779
22.6888
22.6894
21.0981
21.6456
22.3135
22.3137
22.3135
15.9594
14.6814
13.1248
12.1094
8.43522
8.43654
20.0887
23.0266
21.1533
20.7935
19.9626
19.9613
19.9593
19.9585
19.9564
19.9557
19.9534
19.953
19.9503
19.9505
21.3253
21.8645
21.8636
19.3325
19.3316
19.3294
19.5158
21.8388
21.8372
19.1543
19.4457
20.799
18.304
18.8544
17.1801
17.3044
22.2853
22.2834
22.2815
22.2805
17.4391
17.4373
17.438
17.4347
18.6784
25.0598
25.0585
24.3043
21.386
19.5025
19.5014
20.889
20.8883
19.8999
19.0428
20.1923
20.191
18.9303
18.9292
18.9285
18.9273
18.9268
21.3764
21.3753
19.8668
19.8664
19.8652
18.1402
20.672
24.0697
24.0682
24.067
24.0661
17.6225
16.4924
16.4897
21.6504
25.4118
25.4134
23.1314
19.1662
21.2384
21.2383
21.2374
20.2534
18.7151
18.7156
18.713
19.3212
19.1082
19.1076
19.1069
21.5676
21.8451
21.8446
21.8442
18.5455
17.4053
17.5097
20.1465
19.5689
19.5681
17.2583
16.8777
16.8777
22.0682
22.0698
15.9155
15.9156
15.9145
23.2838
27.5507
22.4447
21.3021
21.4645
22.1457
22.1453
22.1449
19.2258
19.2257
19.9543
21.7422
21.7409
19.3464
19.3467
19.3433
19.3452
19.3427
19.3442
20.3834
20.3835
19.4504
18.3078
17.4537
18.524
22.465
22.4702
22.4653
22.47
22.4651
16.2867
16.2867
16.2865
23.1126
27.1854
27.3845
25.5145
21.5947
21.1665
23.0568
23.057
20.5074
20.5072
20.8335
20.8335
20.8334
19.2529
18.4992
18.5003
18.4999
22.5669
22.6054
18.5815
16.4045
16.1079
16.1094
16.1035
16.1097
16.1136
22.9426
24.4681
24.4645
24.4675
16.5864
16.5866
23.3585
25.5971
22.4733
22.4734
22.4732
23.4376
25.2221
23.6942
22.0917
19.9922
19.9919
19.9922
14.55
6.75709
2.51086
4.02703
39.8244
87.873
87.8278
87.8722
66.8199
25.0202
17.9597
17.5136
18.319
25.4309
23.1176
17.714
17.6493
21.2861
19.2382
19.3231
14.4118
14.412
14.4802
25.1887
26.3779
26.3785
23.6975
21.4632
20.4957
20.4956
20.4963
24.6826
24.8287
24.8294
22.1354
20.3551
20.353
20.3556
20.3546
24.0593
22.3858
20.1072
20.106
20.1058
20.1057
19.6716
18.6018
19.4475
21.052
21.0534
21.0571
16.5769
16.5775
15.3257
21.6313
23.8644
17.5113
16.2072
19.7237
20.9929
14.7226
10.5437
10.5426
22.2012
27.3454
27.3477
27.351
24.9693
19.426
16.521
16.5211
16.5211
18.9209
22.5417
23.82
23.818
23.8207
22.974
17.7537
16.6488
16.6493
16.6493
18.0177
19.22
14.5875
14.5884
13.7024
17.992
28.6477
28.6536
27.6942
21.0885
18.0308
18.0266
20.9802
30.7509
30.7585
28.8152
22.561
20.9322
20.9292
23.7252
23.7212
23.7258
23.7218
23.7233
23.5601
23.2703
20.2271
13.485
8.45484
8.45331
8.77283
36.3289
42.0652
42.0738
29.1709
23.3269
14.9916
14.7514
12.9767
12.9768
24.4637
27.3965
27.405
27.3971
22.7111
18.6238
18.624
18.6221
18.6207
23.1231
30.7584
30.7585
30.7415
20.7105
16.4873
15.778
16.9273
19.2183
23.088
24.7589
21.675
17.7649
15.8125
15.8118
15.812
15.7218
17.4619
19.5146
19.5147
15.4277
15.4286
15.0975
15.0976
29.7268
34.2819
34.2849
28.1012
26.1282
29.2192
28.87
23.427
23.4274
26.0872
26.0899
21.7145
19.3417
19.3417
21.6444
22.6279
24.2398
24.2394
24.239
23.8448
21.6644
21.745
21.7208
19.1775
15.8086
14.782
14.4227
13.5129
13.5142
13.809
18.523
15.6116
15.6117
25.4586
34.1185
34.1191
31.7168
31.779
33.4215
33.4217
33.0725
29.3314
22.6877
20.0881
20.0875
23.3119
22.0299
21.3399
21.3405
21.7982
21.7776
21.7762
21.7592
21.7578
21.9194
21.9196
22.1072
18.9814
15.2455
15.2486
15.2422
15.1289
12.6652
12.6638
23.0045
20.0995
20.1895
20.0787
20.0325
22.3597
22.3584
21.4745
20.5171
21.916
19.9544
20.1204
21.3713
21.3694
20.8366
21.8648
19.7157
19.9502
19.3309
20.6841
21.9285
21.9274
19.1559
19.1545
20.4147
20.7991
18.7028
19.009
17.1801
18.343
22.2849
22.2834
21.8018
22.2789
17.4391
17.439
17.4362
21.8993
21.8966
21.2178
24.9251
24.9241
23.3458
20.6118
22.7309
22.6486
19.084
19.0829
18.9335
18.9323
18.9315
18.93
18.9296
19.1035
20.0699
20.0692
21.3761
21.3754
20.6718
19.6985
18.1409
18.1399
23.1141
24.069
24.0678
20.7588
24.0489
16.4929
16.4909
16.4931
16.49
16.4921
20.0188
24.4279
24.4275
23.4599
19.7295
21.1683
21.1674
21.1667
21.1654
21.0991
19.1086
19.108
19.1074
19.1064
20.8548
18.7828
18.2213
18.2208
18.2204
18.2174
20.1469
20.1465
20.1462
16.9414
16.9408
19.6416
20.6023
20.6022
22.072
15.9158
15.9153
15.9156
24.7217
28.2246
28.2249
21.302
20.865
20.8647
20.6296
19.2263
19.2259
21.3548
21.7408
21.741
19.3482
19.3475
22.0565
23.8103
23.8062
23.8072
20.8418
18.4362
18.4365
18.4355
18.4358
18.4351
18.0295
18.6759
21.5918
22.4671
19.9211
22.1987
16.2867
16.2867
16.2867
24.5283
29.1615
29.1621
23.1526
20.7325
20.7322
20.7327
21.2155
22.546
22.5439
22.3172
18.8888
18.5002
18.4995
18.5
18.4987
19.4578
22.6026
22.6041
17.8028
16.109
16.1093
17.1452
21.8739
21.8659
21.8684
20.5586
24.4639
24.4683
24.4651
16.5864
16.5866
17.5251
28.1609
28.162
22.4734
22.4736
26.3375
26.3629
26.3633
25.8766
24.1891
20.2972
13.4903
6.9845
2.76158
2.25052
2.32077
26.2457
87.8281
87.8737
71.1129
31.7518
21.2634
18.4051
17.5136
17.5138
17.6357
23.1156
22.6468
21.2876
21.2869
21.2863
21.2851
14.4118
14.412
14.7781
19.3605
21.8544
25.7625
25.763
22.9008
20.4953
21.5398
22.7642
22.5914
21.5826
23.3612
22.9909
20.3548
20.3553
20.3532
20.356
20.7334
22.7593
22.7597
21.184
20.1063
20.1062
22.6
22.6005
20.6729
19.5353
19.5362
21.0537
17.5393
17.538
12.9577
12.9565
12.9601
12.9549
12.9611
12.9577
21.2909
22.6333
20.2886
20.7388
25.4342
27.3437
27.3458
21.6077
17.9821
17.0836
16.9422
18.0101
18.6212
18.6391
18.64
19.1611
22.895
23.8183
23.8193
22.9999
23.001
23.0007
18.9355
15.2554
17.2968
16.8493
16.8469
13.7035
16.0924
24.5441
25.4542
25.6851
22.2343
18.5791
20.4114
28.0214
30.7528
29.8271
25.6883
25.0394
24.9641
22.3399
19.8868
19.6614
19.6606
20.7693
21.9961
22.4782
21.3961
17.1874
10.8682
8.45661
8.45502
13.4988
42.0515
42.0635
22.1592
14.7504
15.6909
15.247
15.2476
13.6859
18.9856
26.1198
27.3979
27.3968
26.9651
21.4554
18.6258
22.546
27.5758
27.57
25.3448
22.3691
20.3702
20.3521
20.3519
22.4741
22.4766
22.3458
21.3501
22.6593
24.6877
24.5903
20.5475
16.7182
15.7198
15.7215
15.7184
15.722
18.8421
19.5126
19.5128
19.5127
15.0975
15.0976
23.0335
34.2818
34.2821
26.1311
26.1297
29.6038
29.605
27.4152
23.4047
24.8885
26.0849
22.4141
19.3416
19.3418
19.6929
24.5007
24.5014
23.8367
21.2398
20.671
23.3198
23.5656
22.4758
19.2786
17.8558
17.411
16.4959
14.7681
16.4785
17.485
18.518
15.6116
16.4344
32.0024
32.365
31.7167
31.7163
31.7167
31.716
35.1276
24.7205
22.6827
22.6824
24.2373
24.237
22.4794
21.5229
21.5221
22.1511
21.7813
21.779
23.45
24.4296
24.4298
21.9194
22.1752
22.4219
22.4225
16.4506
13.8601
11.9501
11.95
11.9854
12.6588
20.0407
20.0992
19.8524
21.1297
21.1287
20.351
20.3495
20.3479
22.2267
22.2254
21.9352
19.7766
19.7752
19.7737
19.7724
19.7168
19.7158
22.1057
22.1047
20.7283
21.9285
20.669
20.6675
21.6464
21.333
20.3283
20.3253
20.3248
17.7368
20.7159
22.2855
19.9528
18.5654
18.5642
18.5304
23.4642
23.4637
21.4279
20.5873
21.21
20.4894
20.488
20.4867
20.6446
22.7308
22.7313
22.7289
22.7288
22.727
22.7262
20.9943
20.9935
20.9925
19.0363
19.1343
18.6359
18.635
18.634
18.4405
18.4396
18.4386
18.4927
21.0404
21.3308
18.2392
16.4961
16.4955
16.4929
19.9479
24.0148
27.3567
27.3559
27.3553
23.4428
19.7306
19.7298
19.7291
19.7285
19.384
19.3835
19.383
19.3824
20.6229
20.622
20.6199
19.8712
19.1805
19.4214
22.1895
19.4336
17.5584
17.5581
17.5577
17.8818
19.5132
21.0188
20.3662
19.4163
19.4158
21.8559
22.074
15.9158
20.6645
21.5669
21.5669
21.5669
21.567
21.6573
22.7659
22.7657
22.7653
21.6426
19.5816
19.2414
19.2414
19.2411
20.8353
22.1223
22.1219
20.5524
20.5529
20.551
20.5527
20.775
20.8709
20.8709
17.6345
17.6345
17.6343
18.5329
21.5531
16.3518
16.2886
16.2884
16.2867
25.0149
29.0083
29.0093
27.9869
22.3572
22.546
22.5447
22.5475
22.5446
22.5467
22.5445
21.0931
18.9187
18.9181
20.368
20.3688
18.4995
18.4997
18.4991
21.3744
22.4337
20.3308
19.9832
19.3757
20.2103
21.8657
21.7714
17.2435
17.2436
18.1042
24.3381
19.7945
16.5864
24.3799
28.1585
28.1594
23.5197
23.5186
29.2334
29.2341
23.6812
22.238
22.2388
19.7777
10.1469
4.40846
2.25017
2.25036
2.25022
3.09175
22.6213
87.8528
53.9911
25.0663
21.3999
21.4001
21.4002
18.6183
17.5138
17.514
17.7026
20.6927
17.9786
16.4464
16.4466
16.6665
16.3045
19.7296
19.7295
19.3621
19.3631
19.3642
24.3732
24.3732
24.3729
24.3728
22.7654
20.0046
20.0048
20.0051
21.0973
20.6611
21.6048
23.7942
23.7938
23.795
23.0267
21.1851
21.1842
22.6844
22.685
22.6832
19.6141
19.8417
19.8427
18.5383
16.3059
16.3061
16.3064
16.5927
16.5965
12.9598
13.0954
19.4287
27.0083
26.5507
23.9221
21.9047
19.3899
18.3052
18.3054
19.322
18.5773
17.9806
18.6071
19.4382
18.7038
18.6399
18.6397
18.6405
18.6414
18.833
21.7229
21.6881
23.0001
22.9996
22.8492
17.0949
13.7429
13.7431
13.7433
15.8241
14.4493
17.2997
19.5127
25.5949
25.6841
25.6851
22.5512
23.0668
26.6002
28.7625
25.9695
21.9441
21.1505
22.6329
22.548
21.5861
21.0539
19.4999
17.8735
17.8738
20.0175
21.396
19.5345
11.0508
8.45823
8.45775
13.6166
42.0498
41.3524
17.5025
12.1515
12.1514
12.1514
15.1423
22.0964
27.2826
27.2839
23.8414
21.8207
21.8194
21.8174
25.4218
27.5756
27.5697
27.5706
20.9834
18.48
18.4802
21.1137
24.1154
22.9988
21.1909
21.1928
21.1877
21.1933
21.187
24.2656
21.0269
17.6507
17.9322
19.321
19.324
19.3211
15.6486
15.6487
16.0477
17.3232
15.0975
19.7069
26.0592
34.2817
34.2819
29.2473
28.1354
29.6048
29.3466
22.8499
20.9403
20.9394
22.3835
20.0237
19.9955
22.2031
22.202
23.5433
24.1995
20.8363
20.5322
20.5245
23.5685
23.5639
23.5687
23.5642
19.1542
17.2991
17.2978
18.848
19.0469
18.1285
18.1278
19.1456
28.0931
35.3452
35.3466
31.7164
31.717
35.6008
35.6018
35.6024
28.5843
22.6824
24.3781
24.3779
22.1807
21.5242
21.5234
22.1125
22.1481
24.4191
25.1755
25.1753
24.4305
22.1501
22.1468
23.2161
22.4235
18.3602
18.3566
18.8085
13.5772
8.38623
8.38525
12.091
20.0829
19.8583
19.8521
21.1301
20.9871
21.2603
21.0886
20.3477
19.9819
19.4539
20.4842
20.9793
20.9915
20.9901
19.7182
19.7171
19.7152
20.5832
20.7108
21.7026
21.9286
20.6692
21.5946
21.6465
21.3098
21.3075
21.3072
19.6479
19.2882
22.6582
22.6582
22.656
22.6559
22.6536
18.3436
18.3435
18.341
18.3424
18.34
24.2641
24.2615
22.2973
20.4518
20.4509
20.6373
21.9072
22.5514
19.7688
19.7682
19.7666
19.7663
19.038
19.0371
19.0362
18.8869
18.6362
18.6628
18.9632
19.2817
19.8303
19.8458
20.9844
23.301
23.2953
23.2983
23.2939
23.2947
16.4949
16.4942
16.4939
16.4907
22.0406
24.7703
23.2372
23.2366
23.236
23.2353
21.0021
19.3839
19.3835
22.2521
22.2519
21.4827
19.6332
19.6326
19.1809
19.1801
20.7489
22.1896
22.1894
21.3705
17.7361
19.0556
19.8709
20.52
21.8227
22.0778
22.0778
22.0771
22.0766
22.0758
15.917
15.9167
15.9168
24.0937
24.6646
22.1224
22.7669
22.7667
19.9897
18.2686
18.2698
18.2677
19.4187
22.1234
22.1228
22.1244
22.1225
20.5528
20.553
21.3797
21.3805
21.352
20.3826
20.8709
20.8708
20.8708
20.0198
18.9851
23.2437
25.8435
25.8366
25.8431
25.8365
16.2884
16.2884
17.7643
25.9302
23.2955
22.1368
22.1371
22.2084
22.5446
22.5461
20.5694
19.2934
19.2946
20.0365
21.4278
19.7679
19.7676
19.7674
19.2866
18.4985
19.9196
22.4695
22.4696
22.4697
21.2231
17.2951
17.317
22.449
25.0963
25.0897
25.0956
25.09
25.0872
16.5885
16.5886
16.5889
24.4764
29.1362
29.2332
29.2339
25.7313
22.6801
22.6805
20.286
10.1046
3.5634
2.2501
2.2503
2.25027
3.23428
15.4054
50.1778
50.1857
24.4574
17.524
17.5237
19.6982
20.7626
19.8501
18.7944
19.0176
20.0374
21.0224
21.0227
21.0229
19.9219
19.9213
16.2437
16.2438
16.9525
19.4575
19.3639
19.365
19.366
22.1387
24.3725
24.3723
23.4122
23.4118
23.4115
23.4113
20.728
19.8045
19.8036
19.805
19.8192
23.7943
23.776
23.7764
23.7766
23.7769
21.6685
17.2475
16.9276
16.9267
18.3154
20.8341
20.8331
20.8326
20.8309
12.9628
12.9613
12.9613
12.9607
24.5492
31.7531
31.7535
31.7538
25.2154
19.4893
18.3051
18.3055
18.3057
21.6498
21.6496
21.4368
19.7731
18.6408
18.6405
18.7372
21.2416
22.5521
21.2524
18.0397
18.0401
18.0338
18.0407
18.0369
18.8275
20.0914
20.1706
17.9601
17.3769
14.4507
14.4515
24.6877
25.5934
22.8031
20.3297
20.7009
25.7713
29.4799
29.4785
24.3832
19.9418
20.584
22.6328
22.1323
18.8607
17.8719
17.8721
17.8724
21.725
21.7277
18.7281
12.5879
11.0743
12.9422
24.2212
31.5647
31.5726
20.4871
14.7739
14.9446
19.8248
20.4697
20.4701
19.0654
19.0655
26.9164
28.2695
27.7254
22.0245
21.8197
21.821
25.167
27.5758
27.57
23.5159
18.48
18.5143
23.3296
24.1154
24.1156
24.1158
21.9982
21.2655
22.113
23.5128
24.2622
23.891
20.5763
18.4693
17.5558
17.5549
17.7463
19.0657
19.0642
18.971
18.97
15.0995
15.0996
31.7458
34.2816
33.8705
27.3774
24.2254
23.7956
23.1079
20.9403
20.9382
25.6216
28.18
27.187
21.8621
20.8822
20.8824
20.8824
24.3088
24.3089
24.3091
19.7759
19.1583
19.1584
20.4801
23.1808
20.5336
17.514
19.2887
21.9618
21.9557
21.9607
21.9582
19.1515
19.1541
25.3776
36.9208
36.9207
36.9202
36.9201
34.3486
27.1217
27.6202
27.6167
24.4322
20.93
21.6988
23.6638
23.6639
23.6639
23.1029
21.945
22.2938
22.5027
22.504
22.6772
23.2161
23.2158
23.2161
21.0685
18.8103
18.8087
14.6649
10.0172
8.67506
10.124
25.6285
20.1909
19.852
19.8456
20.9868
22.0143
20.4553
20.7738
20.7725
19.4537
19.8302
19.788
19.7068
19.7056
20.0751
20.0735
19.7156
19.714
19.7129
19.7114
19.7105
21.6331
22.0301
21.3489
21.3477
21.3465
19.3624
19.3616
21.6543
22.062
19.8343
19.8333
19.8317
19.8307
18.3444
18.3426
18.8595
20.699
19.8564
24.2626
24.2623
22.2306
21.5039
21.6658
21.6649
19.7711
19.7692
19.769
19.7673
19.7701
19.7688
19.0381
19.0372
19.7733
18.8872
19.0605
20.1774
19.9907
18.6075
18.6072
18.6061
18.6058
18.2225
18.2222
19.852
23.2953
21.3305
16.5205
20.2723
20.2714
20.0816
23.4138
24.7867
24.7863
21.8898
21.0774
19.6983
19.3848
19.384
21.4405
22.2524
20.7011
20.7008
20.8938
21.1651
21.1649
18.9854
18.9842
21.7375
22.1895
22.189
22.1886
22.188
20.2963
17.222
16.7044
16.702
16.7034
16.7011
17.5896
18.0741
17.5357
26.3067
26.3062
25.8378
25.8372
25.8368
23.9553
20.2847
18.2701
18.27
18.2677
18.2693
18.2669
19.8344
20.6008