/*--------------------------------*- C++ -*----------------------------------*\
  =========                 |
  \\      /  F ield         | OpenFOAM: The Open Source CFD Toolbox
   \\    /   O peration     | Website:  https://openfoam.org
    \\  /    A nd           | Version:  7
     \\/     M anipulation  |
\*---------------------------------------------------------------------------*/
FoamFile
{
    version     2.0;
    format      ascii;
    class       volScalarField;
    location    "4500";
    object      rho1;
}
// * * * * * * * * * * * * * * * * * * * * * * * * * * * * * * * * * * * * * //

dimensions      [1 -3 0 0 0 0 0];

internalField   nonuniform List<scalar> 
160000
(
993.111
993.062
993.014
992.966
992.916
992.868
992.82
992.773
992.728
992.681
992.634
992.588
992.543
992.496
992.451
992.407
992.364
992.322
992.278
992.234
992.192
992.151
992.111
992.07
992.031
991.991
991.951
991.91
991.871
991.833
991.796
991.76
991.723
991.686
991.651
991.616
991.58
991.544
991.51
991.477
991.443
991.411
991.378
991.345
991.314
991.281
991.249
991.22
991.19
991.161
991.132
991.102
991.073
991.044
991.016
990.989
990.962
990.935
990.91
990.886
990.86
990.834
990.81
990.786
990.764
990.741
990.717
990.694
990.672
990.652
990.631
990.609
990.589
990.568
990.549
990.529
990.511
990.492
990.474
990.456
990.439
990.421
990.404
990.388
990.372
990.356
990.34
990.326
990.312
990.297
990.283
990.27
990.256
990.243
990.23
990.219
990.207
990.196
990.185
990.174
990.164
990.154
990.144
990.134
990.125
990.116
990.107
990.099
990.091
990.083
990.075
990.069
990.062
990.055
990.049
990.044
990.038
990.033
990.027
990.022
990.018
990.014
990.01
990.006
990.003
989.999
989.996
989.994
989.991
989.989
989.987
989.986
989.984
989.983
989.982
989.981
989.981
989.98
989.98
989.98
989.981
989.982
989.982
989.983
989.985
989.986
989.988
989.99
989.992
989.994
989.997
989.999
990.002
990.005
990.009
990.012
990.016
990.02
990.024
990.028
990.032
990.037
990.041
990.046
990.051
990.056
990.061
990.067
990.073
990.078
990.084
990.091
990.097
990.103
990.109
990.116
990.123
990.129
990.137
990.144
990.151
990.158
990.166
990.173
990.181
990.189
990.197
990.206
990.214
990.223
990.232
990.241
990.249
990.257
990.266
990.274
990.283
990.294
990.305
990.314
990.323
990.332
990.341
990.35
990.359
990.369
990.379
990.389
990.399
990.408
990.418
990.428
990.437
990.447
990.457
990.467
990.476
990.486
990.496
990.507
990.517
990.528
990.537
990.547
990.557
990.567
990.578
990.588
990.599
990.61
990.62
990.63
990.64
990.651
990.662
990.672
990.683
990.693
990.704
990.714
990.725
990.735
990.745
990.756
990.767
990.778
990.791
990.803
990.816
990.83
990.841
990.851
990.861
990.871
990.881
990.891
990.901
990.911
990.921
990.932
990.944
990.955
990.965
990.975
990.985
990.995
991.006
991.016
991.026
991.037
991.049
991.059
991.068
991.078
991.088
991.097
991.106
991.117
991.128
991.138
991.147
991.156
991.166
991.176
991.186
991.196
991.205
991.214
991.223
991.232
991.241
991.25
991.259
991.268
991.277
991.287
991.296
991.305
991.314
991.324
991.335
991.347
991.358
991.366
991.374
991.382
991.39
991.397
991.405
991.413
991.42
991.428
991.436
991.443
991.451
991.459
991.467
991.475
991.481
991.488
991.495
991.502
991.509
991.516
991.524
991.533
991.54
991.547
991.554
991.56
991.566
991.573
991.579
991.585
991.591
991.597
991.603
991.609
991.615
991.621
991.626
991.631
991.636
991.642
991.647
991.652
991.658
991.663
991.668
991.673
991.677
991.682
991.686
991.69
991.695
991.699
991.703
991.707
991.711
991.715
991.719
991.722
991.726
991.73
991.733
991.737
991.74
991.743
991.747
991.749
991.752
991.755
991.757
991.76
991.762
991.765
991.767
991.769
991.771
991.773
991.775
991.777
991.778
991.78
991.781
991.783
991.784
991.785
991.786
991.787
991.788
991.789
991.79
991.79
991.791
991.791
991.792
991.792
991.792
991.792
993.11
993.061
993.013
992.965
992.917
992.869
992.821
992.773
992.727
992.681
992.634
992.588
992.543
992.497
992.451
992.407
992.365
992.322
992.277
992.233
992.192
992.151
992.11
992.069
992.03
991.992
991.951
991.91
991.871
991.833
991.796
991.759
991.723
991.686
991.651
991.616
991.579
991.544
991.511
991.477
991.443
991.41
991.378
991.346
991.314
991.281
991.249
991.22
991.191
991.161
991.131
991.102
991.073
991.044
991.016
990.99
990.962
990.936
990.91
990.885
990.86
990.834
990.81
990.787
990.764
990.74
990.718
990.695
990.673
990.651
990.63
990.609
990.588
990.568
990.549
990.529
990.511
990.492
990.474
990.456
990.438
990.421
990.404
990.388
990.372
990.356
990.34
990.326
990.311
990.297
990.283
990.27
990.256
990.243
990.231
990.219
990.207
990.196
990.185
990.174
990.164
990.154
990.144
990.134
990.125
990.116
990.107
990.099
990.091
990.083
990.076
990.069
990.062
990.056
990.05
990.044
990.038
990.033
990.027
990.023
990.018
990.014
990.01
990.006
990.003
989.999
989.996
989.994
989.991
989.989
989.987
989.986
989.984
989.983
989.982
989.981
989.981
989.98
989.98
989.98
989.981
989.982
989.982
989.983
989.985
989.986
989.988
989.99
989.992
989.994
989.997
989.999
990.002
990.005
990.009
990.012
990.016
990.02
990.024
990.028
990.032
990.037
990.041
990.046
990.051
990.056
990.061
990.067
990.073
990.079
990.085
990.091
990.097
990.103
990.109
990.116
990.123
990.129
990.137
990.144
990.151
990.158
990.166
990.173
990.181
990.189
990.197
990.206
990.214
990.223
990.233
990.241
990.249
990.257
990.265
990.274
990.284
990.294
990.305
990.314
990.323
990.332
990.341
990.35
990.359
990.369
990.379
990.389
990.399
990.408
990.418
990.428
990.437
990.447
990.457
990.467
990.476
990.486
990.497
990.507
990.517
990.527
990.537
990.547
990.557
990.567
990.578
990.588
990.599
990.609
990.62
990.63
990.64
990.651
990.662
990.672
990.683
990.694
990.704
990.714
990.724
990.735
990.745
990.756
990.767
990.778
990.791
990.805
990.818
990.83
990.841
990.851
990.861
990.871
990.881
990.891
990.901
990.911
990.921
990.933
990.944
990.955
990.965
990.975
990.985
990.995
991.006
991.016
991.026
991.038
991.049
991.058
991.068
991.078
991.087
991.097
991.107
991.117
991.128
991.138
991.147
991.157
991.166
991.176
991.186
991.196
991.205
991.214
991.223
991.232
991.241
991.25
991.258
991.268
991.277
991.287
991.296
991.306
991.315
991.324
991.336
991.348
991.358
991.366
991.374
991.382
991.389
991.397
991.405
991.413
991.42
991.428
991.436
991.444
991.452
991.46
991.467
991.474
991.481
991.488
991.495
991.502
991.509
991.517
991.525
991.533
991.54
991.547
991.553
991.56
991.566
991.573
991.579
991.585
991.591
991.597
991.603
991.609
991.615
991.621
991.626
991.631
991.636
991.642
991.647
991.652
991.658
991.663
991.668
991.673
991.677
991.682
991.686
991.69
991.695
991.699
991.703
991.707
991.711
991.715
991.719
991.722
991.726
991.73
991.733
991.737
991.74
991.743
991.746
991.749
991.752
991.755
991.757
991.76
991.762
991.765
991.767
991.769
991.771
991.773
991.775
991.777
991.778
991.78
991.781
991.783
991.784
991.785
991.786
991.787
991.788
991.789
991.79
991.79
991.791
991.791
991.792
991.792
991.792
991.792
993.111
993.062
993.013
992.965
992.916
992.868
992.821
992.773
992.727
992.681
992.634
992.588
992.543
992.498
992.452
992.408
992.364
992.32
992.277
992.234
992.191
992.15
992.109
992.069
992.03
991.991
991.951
991.912
991.872
991.833
991.797
991.76
991.723
991.686
991.65
991.615
991.579
991.545
991.511
991.477
991.443
991.41
991.377
991.345
991.313
991.281
991.25
991.221
991.191
991.16
991.13
991.101
991.073
991.045
991.017
990.99
990.963
990.936
990.91
990.884
990.86
990.835
990.81
990.786
990.764
990.74
990.717
990.695
990.673
990.651
990.63
990.609
990.588
990.568
990.549
990.53
990.511
990.492
990.474
990.456
990.439
990.421
990.404
990.388
990.372
990.356
990.341
990.325
990.311
990.297
990.283
990.269
990.256
990.243
990.231
990.219
990.207
990.196
990.185
990.174
990.164
990.154
990.144
990.134
990.125
990.116
990.107
990.099
990.091
990.083
990.076
990.069
990.062
990.056
990.05
990.044
990.038
990.033
990.027
990.023
990.018
990.014
990.01
990.006
990.003
989.999
989.996
989.994
989.991
989.989
989.987
989.986
989.984
989.983
989.982
989.981
989.981
989.98
989.98
989.98
989.981
989.982
989.982
989.983
989.985
989.986
989.988
989.99
989.992
989.994
989.997
989.999
990.002
990.005
990.009
990.012
990.016
990.02
990.024
990.028
990.032
990.037
990.041
990.046
990.051
990.056
990.061
990.067
990.073
990.079
990.085
990.091
990.097
990.103
990.109
990.116
990.122
990.129
990.137
990.144
990.151
990.158
990.166
990.173
990.181
990.189
990.197
990.206
990.215
990.225
990.233
990.241
990.249
990.257
990.265
990.274
990.284
990.294
990.304
990.314
990.323
990.332
990.341
990.35
990.36
990.37
990.379
990.389
990.399
990.408
990.418
990.427
990.437
990.447
990.457
990.467
990.477
990.487
990.497
990.507
990.517
990.527
990.537
990.547
990.557
990.568
990.578
990.588
990.599
990.609
990.62
990.63
990.641
990.651
990.662
990.672
990.683
990.693
990.704
990.714
990.724
990.735
990.745
990.756
990.767
990.779
990.792
990.807
990.819
990.83
990.84
990.85
990.86
990.87
990.881
990.891
990.901
990.911
990.922
990.933
990.944
990.954
990.964
990.974
990.985
990.995
991.005
991.016
991.027
991.038
991.048
991.058
991.068
991.078
991.087
991.097
991.107
991.117
991.128
991.138
991.147
991.157
991.167
991.176
991.186
991.195
991.205
991.214
991.223
991.232
991.241
991.249
991.258
991.267
991.277
991.287
991.298
991.307
991.316
991.327
991.338
991.348
991.357
991.365
991.373
991.381
991.389
991.397
991.405
991.413
991.42
991.428
991.436
991.444
991.452
991.459
991.467
991.474
991.481
991.488
991.495
991.502
991.51
991.518
991.525
991.533
991.54
991.546
991.553
991.56
991.566
991.573
991.579
991.585
991.591
991.597
991.603
991.609
991.615
991.62
991.626
991.631
991.636
991.642
991.647
991.653
991.658
991.663
991.668
991.672
991.677
991.682
991.686
991.69
991.695
991.699
991.703
991.707
991.711
991.715
991.719
991.722
991.726
991.73
991.733
991.737
991.74
991.743
991.746
991.749
991.752
991.755
991.757
991.76
991.762
991.765
991.767
991.769
991.771
991.773
991.775
991.777
991.778
991.78
991.781
991.783
991.784
991.785
991.786
991.787
991.788
991.789
991.79
991.79
991.791
991.791
991.792
991.792
991.792
991.792
993.111
993.062
993.013
992.964
992.916
992.867
992.82
992.773
992.726
992.679
992.633
992.589
992.544
992.499
992.453
992.408
992.364
992.32
992.277
992.233
992.192
992.15
992.109
992.07
992.029
991.99
991.951
991.911
991.872
991.834
991.797
991.76
991.724
991.687
991.65
991.614
991.579
991.545
991.512
991.477
991.443
991.409
991.377
991.345
991.313
991.281
991.251
991.221
991.191
991.161
991.13
991.101
991.073
991.045
991.017
990.989
990.963
990.937
990.91
990.885
990.86
990.834
990.81
990.787
990.764
990.74
990.717
990.695
990.673
990.65
990.629
990.609
990.589
990.569
990.549
990.529
990.51
990.492
990.473
990.456
990.439
990.421
990.404
990.388
990.372
990.356
990.341
990.325
990.311
990.297
990.283
990.269
990.256
990.243
990.231
990.219
990.207
990.196
990.185
990.174
990.164
990.154
990.144
990.134
990.125
990.115
990.107
990.099
990.091
990.083
990.076
990.069
990.062
990.056
990.05
990.044
990.038
990.033
990.027
990.023
990.018
990.014
990.01
990.006
990.003
989.999
989.996
989.994
989.991
989.989
989.987
989.986
989.984
989.983
989.982
989.981
989.981
989.98
989.98
989.98
989.981
989.982
989.982
989.983
989.985
989.986
989.988
989.99
989.992
989.994
989.997
989.999
990.002
990.005
990.009
990.012
990.016
990.02
990.024
990.028
990.032
990.037
990.041
990.046
990.051
990.056
990.061
990.067
990.073
990.079
990.085
990.091
990.097
990.103
990.109
990.116
990.122
990.129
990.136
990.143
990.151
990.158
990.165
990.173
990.181
990.19
990.198
990.207
990.216
990.225
990.233
990.241
990.249
990.257
990.266
990.275
990.284
990.294
990.304
990.313
990.322
990.332
990.341
990.35
990.36
990.37
990.379
990.389
990.398
990.408
990.418
990.427
990.437
990.447
990.457
990.467
990.477
990.487
990.497
990.507
990.517
990.527
990.537
990.547
990.557
990.568
990.578
990.588
990.599
990.609
990.62
990.63
990.641
990.651
990.662
990.672
990.683
990.693
990.704
990.714
990.724
990.735
990.745
990.756
990.767
990.78
990.794
990.808
990.819
990.829
990.839
990.85
990.86
990.87
990.88
990.891
990.901
990.912
990.922
990.933
990.943
990.954
990.964
990.974
990.985
990.995
991.005
991.016
991.027
991.038
991.048
991.058
991.068
991.078
991.087
991.097
991.107
991.118
991.128
991.138
991.147
991.157
991.166
991.176
991.186
991.195
991.204
991.213
991.222
991.231
991.24
991.249
991.258
991.267
991.278
991.289
991.3
991.309
991.318
991.327
991.337
991.347
991.356
991.365
991.373
991.381
991.389
991.397
991.405
991.412
991.42
991.428
991.436
991.444
991.452
991.459
991.467
991.474
991.481
991.488
991.495
991.503
991.511
991.518
991.525
991.532
991.539
991.546
991.553
991.56
991.566
991.572
991.579
991.585
991.591
991.597
991.603
991.609
991.615
991.62
991.626
991.631
991.636
991.642
991.647
991.653
991.658
991.663
991.668
991.672
991.677
991.681
991.686
991.69
991.695
991.699
991.703
991.707
991.711
991.715
991.719
991.722
991.726
991.73
991.733
991.737
991.74
991.743
991.746
991.749
991.752
991.755
991.757
991.76
991.762
991.765
991.767
991.769
991.771
991.773
991.775
991.777
991.778
991.78
991.781
991.783
991.784
991.785
991.786
991.787
991.788
991.789
991.79
991.79
991.791
991.791
991.792
991.792
991.792
991.792
993.111
993.063
993.013
992.964
992.915
992.867
992.82
992.773
992.725
992.679
992.633
992.59
992.545
992.497
992.452
992.408
992.365
992.321
992.278
992.233
992.191
992.149
992.109
992.069
992.029
991.99
991.952
991.912
991.872
991.834
991.796
991.76
991.724
991.687
991.65
991.615
991.58
991.546
991.511
991.476
991.443
991.409
991.376
991.345
991.313
991.282
991.251
991.221
991.19
991.16
991.13
991.101
991.072
991.045
991.017
990.99
990.963
990.936
990.91
990.885
990.86
990.835
990.81
990.787
990.764
990.741
990.718
990.695
990.673
990.651
990.629
990.609
990.589
990.568
990.549
990.529
990.51
990.492
990.474
990.456
990.438
990.421
990.405
990.388
990.372
990.356
990.341
990.326
990.311
990.297
990.283
990.27
990.256
990.243
990.231
990.219
990.207
990.196
990.185
990.174
990.164
990.154
990.144
990.134
990.124
990.115
990.107
990.099
990.091
990.083
990.076
990.069
990.062
990.056
990.049
990.044
990.038
990.033
990.027
990.023
990.018
990.014
990.01
990.006
990.003
989.999
989.996
989.994
989.991
989.989
989.987
989.985
989.984
989.983
989.982
989.981
989.981
989.98
989.98
989.98
989.981
989.982
989.982
989.983
989.985
989.986
989.988
989.99
989.992
989.994
989.997
989.999
990.002
990.005
990.009
990.012
990.016
990.02
990.023
990.028
990.032
990.037
990.042
990.046
990.051
990.056
990.061
990.067
990.073
990.079
990.085
990.091
990.097
990.103
990.109
990.116
990.122
990.129
990.136
990.143
990.15
990.158
990.165
990.173
990.182
990.191
990.199
990.208
990.217
990.225
990.233
990.241
990.249
990.258
990.266
990.275
990.284
990.294
990.303
990.313
990.322
990.331
990.341
990.35
990.36
990.37
990.379
990.388
990.398
990.408
990.417
990.427
990.437
990.447
990.457
990.467
990.476
990.486
990.496
990.507
990.517
990.527
990.537
990.547
990.557
990.568
990.578
990.588
990.599
990.609
990.62
990.63
990.64
990.651
990.662
990.673
990.683
990.693
990.704
990.714
990.725
990.735
990.746
990.757
990.769
990.782
990.796
990.808
990.818
990.829
990.839
990.849
990.859
990.87
990.88
990.891
990.901
990.912
990.922
990.933
990.943
990.953
990.964
990.974
990.985
990.995
991.005
991.016
991.028
991.039
991.049
991.058
991.068
991.078
991.087
991.097
991.108
991.118
991.128
991.138
991.147
991.157
991.166
991.176
991.185
991.195
991.204
991.213
991.222
991.231
991.24
991.249
991.258
991.268
991.28
991.291
991.3
991.309
991.318
991.327
991.337
991.346
991.356
991.364
991.373
991.381
991.389
991.397
991.404
991.412
991.42
991.428
991.436
991.444
991.452
991.459
991.466
991.474
991.481
991.488
991.496
991.504
991.511
991.518
991.525
991.532
991.539
991.546
991.553
991.56
991.566
991.572
991.579
991.585
991.591
991.597
991.603
991.609
991.615
991.62
991.626
991.631
991.637
991.642
991.647
991.653
991.658
991.663
991.667
991.672
991.677
991.681
991.686
991.69
991.695
991.699
991.703
991.707
991.711
991.715
991.719
991.723
991.726
991.73
991.733
991.737
991.74
991.743
991.746
991.749
991.752
991.755
991.758
991.76
991.762
991.765
991.767
991.769
991.771
991.773
991.775
991.777
991.778
991.78
991.781
991.783
991.784
991.785
991.786
991.787
991.788
991.789
991.79
991.79
991.791
991.791
991.792
991.792
991.792
991.792
993.111
993.064
993.015
992.964
992.916
992.867
992.819
992.771
992.725
992.68
992.634
992.589
992.544
992.497
992.452
992.407
992.364
992.321
992.278
992.235
992.191
992.149
992.108
992.069
992.03
991.99
991.951
991.912
991.873
991.834
991.796
991.759
991.723
991.687
991.651
991.615
991.58
991.545
991.511
991.476
991.442
991.409
991.377
991.345
991.313
991.282
991.251
991.221
991.191
991.16
991.13
991.101
991.073
991.044
991.017
990.99
990.963
990.936
990.91
990.885
990.86
990.835
990.811
990.787
990.764
990.741
990.717
990.695
990.673
990.65
990.629
990.608
990.588
990.568
990.549
990.529
990.51
990.491
990.474
990.456
990.439
990.421
990.405
990.389
990.372
990.356
990.341
990.326
990.311
990.297
990.283
990.27
990.256
990.243
990.231
990.219
990.207
990.196
990.185
990.174
990.164
990.154
990.144
990.134
990.124
990.115
990.107
990.099
990.091
990.083
990.076
990.069
990.062
990.056
990.049
990.044
990.038
990.033
990.028
990.023
990.018
990.014
990.01
990.006
990.002
989.999
989.996
989.994
989.991
989.989
989.987
989.985
989.984
989.983
989.982
989.981
989.981
989.98
989.98
989.98
989.981
989.982
989.982
989.983
989.985
989.986
989.988
989.99
989.992
989.994
989.997
989.999
990.002
990.005
990.009
990.012
990.016
990.019
990.023
990.028
990.032
990.037
990.042
990.046
990.051
990.056
990.061
990.067
990.073
990.079
990.085
990.09
990.096
990.103
990.109
990.116
990.122
990.129
990.136
990.143
990.15
990.158
990.165
990.173
990.183
990.192
990.201
990.209
990.217
990.224
990.232
990.241
990.249
990.258
990.266
990.275
990.284
990.293
990.303
990.312
990.322
990.331
990.341
990.35
990.36
990.369
990.379
990.388
990.398
990.408
990.417
990.427
990.437
990.447
990.457
990.466
990.476
990.486
990.497
990.507
990.517
990.527
990.537
990.547
990.557
990.568
990.578
990.588
990.599
990.609
990.62
990.63
990.64
990.651
990.662
990.673
990.683
990.693
990.704
990.715
990.725
990.736
990.746
990.758
990.771
990.783
990.795
990.807
990.818
990.828
990.838
990.849
990.859
990.87
990.88
990.891
990.901
990.912
990.922
990.932
990.943
990.953
990.964
990.974
990.985
990.995
991.006
991.017
991.028
991.039
991.049
991.058
991.068
991.077
991.087
991.098
991.108
991.118
991.128
991.137
991.147
991.157
991.166
991.176
991.185
991.195
991.204
991.213
991.222
991.231
991.24
991.249
991.259
991.271
991.282
991.291
991.3
991.309
991.318
991.328
991.337
991.346
991.355
991.364
991.372
991.38
991.388
991.396
991.404
991.412
991.42
991.428
991.436
991.444
991.452
991.459
991.466
991.474
991.481
991.489
991.496
991.504
991.511
991.518
991.525
991.532
991.539
991.546
991.553
991.559
991.566
991.572
991.579
991.585
991.591
991.597
991.603
991.609
991.615
991.62
991.626
991.631
991.637
991.642
991.647
991.653
991.658
991.662
991.667
991.672
991.677
991.681
991.686
991.69
991.695
991.699
991.703
991.707
991.711
991.715
991.719
991.723
991.726
991.73
991.733
991.737
991.74
991.743
991.746
991.749
991.752
991.755
991.758
991.76
991.762
991.765
991.767
991.769
991.771
991.773
991.775
991.777
991.778
991.78
991.781
991.783
991.784
991.785
991.786
991.787
991.788
991.789
991.79
991.79
991.791
991.791
991.792
991.792
991.792
991.792
993.112
993.063
993.015
992.966
992.917
992.867
992.818
992.771
992.725
992.679
992.634
992.589
992.543
992.497
992.452
992.408
992.364
992.321
992.278
992.236
992.192
992.149
992.109
992.07
992.03
991.99
991.95
991.911
991.873
991.834
991.796
991.759
991.723
991.687
991.651
991.615
991.58
991.545
991.51
991.477
991.443
991.409
991.377
991.345
991.313
991.282
991.251
991.221
991.191
991.16
991.13
991.101
991.073
991.044
991.017
990.99
990.963
990.936
990.911
990.885
990.86
990.835
990.811
990.786
990.763
990.741
990.718
990.694
990.672
990.65
990.629
990.608
990.587
990.567
990.548
990.529
990.51
990.491
990.473
990.456
990.438
990.421
990.405
990.389
990.372
990.356
990.341
990.326
990.311
990.297
990.283
990.27
990.256
990.243
990.231
990.219
990.208
990.196
990.185
990.174
990.164
990.154
990.143
990.133
990.124
990.115
990.107
990.099
990.091
990.083
990.076
990.069
990.062
990.056
990.049
990.044
990.038
990.033
990.028
990.023
990.018
990.014
990.01
990.006
990.002
989.999
989.996
989.994
989.991
989.989
989.987
989.985
989.984
989.983
989.982
989.981
989.981
989.98
989.98
989.98
989.981
989.982
989.982
989.983
989.985
989.986
989.988
989.99
989.992
989.994
989.997
989.999
990.002
990.006
990.009
990.012
990.016
990.019
990.023
990.028
990.032
990.037
990.042
990.046
990.051
990.056
990.062
990.067
990.073
990.079
990.084
990.09
990.096
990.103
990.109
990.116
990.122
990.129
990.136
990.143
990.15
990.157
990.165
990.174
990.184
990.194
990.202
990.209
990.217
990.224
990.232
990.241
990.249
990.258
990.266
990.275
990.284
990.293
990.303
990.312
990.322
990.331
990.34
990.35
990.36
990.369
990.379
990.388
990.398
990.407
990.417
990.427
990.437
990.447
990.457
990.466
990.476
990.486
990.496
990.507
990.517
990.527
990.537
990.547
990.557
990.568
990.578
990.589
990.599
990.609
990.62
990.63
990.64
990.651
990.662
990.673
990.683
990.694
990.705
990.716
990.726
990.737
990.748
990.759
990.771
990.783
990.795
990.806
990.817
990.828
990.838
990.848
990.859
990.869
990.88
990.89
990.901
990.911
990.922
990.932
990.943
990.953
990.964
990.974
990.985
990.995
991.006
991.017
991.028
991.039
991.048
991.058
991.068
991.078
991.088
991.098
991.108
991.118
991.128
991.137
991.147
991.157
991.166
991.176
991.185
991.195
991.204
991.213
991.222
991.231
991.24
991.25
991.261
991.272
991.282
991.292
991.3
991.309
991.318
991.328
991.337
991.346
991.355
991.364
991.372
991.38
991.388
991.396
991.404
991.412
991.42
991.428
991.436
991.444
991.452
991.459
991.466
991.474
991.481
991.489
991.496
991.504
991.511
991.518
991.525
991.532
991.539
991.546
991.553
991.559
991.566
991.572
991.579
991.585
991.591
991.597
991.603
991.609
991.615
991.62
991.626
991.631
991.637
991.642
991.647
991.652
991.657
991.662
991.667
991.672
991.677
991.681
991.686
991.69
991.695
991.699
991.703
991.707
991.711
991.715
991.719
991.723
991.726
991.73
991.733
991.737
991.74
991.743
991.747
991.749
991.752
991.755
991.758
991.76
991.762
991.765
991.767
991.769
991.771
991.773
991.775
991.777
991.778
991.78
991.781
991.783
991.784
991.785
991.786
991.787
991.788
991.789
991.79
991.79
991.791
991.791
991.792
991.792
991.792
991.792
993.112
993.063
993.014
992.966
992.916
992.867
992.819
992.772
992.724
992.678
992.633
992.588
992.543
992.496
992.452
992.408
992.364
992.32
992.277
992.236
992.193
992.151
992.11
992.069
992.03
991.99
991.95
991.91
991.872
991.834
991.796
991.759
991.724
991.687
991.65
991.615
991.58
991.545
991.511
991.477
991.443
991.41
991.377
991.345
991.313
991.282
991.251
991.221
991.19
991.16
991.13
991.101
991.073
991.045
991.017
990.99
990.963
990.937
990.911
990.885
990.86
990.835
990.811
990.787
990.763
990.74
990.717
990.694
990.671
990.65
990.629
990.608
990.587
990.567
990.548
990.529
990.51
990.492
990.474
990.456
990.439
990.421
990.405
990.388
990.372
990.356
990.341
990.326
990.311
990.297
990.283
990.27
990.257
990.244
990.231
990.219
990.208
990.196
990.185
990.174
990.164
990.153
990.143
990.133
990.124
990.115
990.107
990.099
990.091
990.083
990.076
990.069
990.062
990.056
990.05
990.044
990.038
990.033
990.027
990.023
990.018
990.014
990.01
990.006
990.002
989.999
989.996
989.994
989.991
989.989
989.987
989.985
989.984
989.983
989.982
989.981
989.981
989.98
989.98
989.98
989.981
989.982
989.982
989.983
989.985
989.986
989.988
989.99
989.992
989.994
989.997
989.999
990.002
990.006
990.009
990.012
990.016
990.019
990.023
990.028
990.032
990.037
990.042
990.046
990.051
990.056
990.061
990.067
990.073
990.079
990.084
990.09
990.096
990.103
990.109
990.115
990.122
990.129
990.135
990.142
990.15
990.157
990.165
990.175
990.186
990.195
990.202
990.209
990.217
990.224
990.232
990.241
990.249
990.258
990.266
990.275
990.284
990.293
990.303
990.312
990.321
990.331
990.34
990.35
990.359
990.369
990.378
990.388
990.398
990.408
990.417
990.427
990.437
990.446
990.456
990.466
990.476
990.486
990.496
990.507
990.517
990.527
990.537
990.547
990.557
990.568
990.578
990.588
990.599
990.609
990.62
990.63
990.64
990.651
990.662
990.673
990.683
990.694
990.705
990.716
990.727
990.737
990.748
990.76
990.771
990.783
990.795
990.806
990.817
990.827
990.838
990.848
990.859
990.869
990.88
990.89
990.901
990.911
990.922
990.932
990.943
990.953
990.964
990.974
990.985
990.996
991.007
991.017
991.028
991.038
991.048
991.058
991.068
991.078
991.088
991.098
991.108
991.118
991.127
991.137
991.147
991.156
991.166
991.176
991.185
991.194
991.204
991.213
991.222
991.231
991.241
991.251
991.262
991.273
991.283
991.292
991.3
991.309
991.318
991.328
991.337
991.346
991.355
991.363
991.372
991.38
991.388
991.396
991.404
991.412
991.42
991.428
991.436
991.444
991.451
991.459
991.467
991.474
991.481
991.489
991.496
991.504
991.511
991.518
991.525
991.532
991.539
991.546
991.553
991.559
991.566
991.572
991.579
991.585
991.591
991.597
991.603
991.609
991.615
991.62
991.626
991.631
991.637
991.642
991.647
991.652
991.657
991.662
991.667
991.672
991.677
991.681
991.686
991.69
991.695
991.699
991.703
991.707
991.711
991.715
991.719
991.723
991.726
991.73
991.734
991.737
991.74
991.743
991.747
991.749
991.752
991.755
991.758
991.76
991.762
991.765
991.767
991.769
991.771
991.773
991.775
991.777
991.778
991.78
991.781
991.783
991.784
991.785
991.786
991.787
991.788
991.789
991.79
991.79
991.791
991.791
991.792
991.792
991.792
991.792
993.111
993.063
993.014
992.965
992.917
992.867
992.819
992.772
992.725
992.679
992.633
992.587
992.542
992.496
992.451
992.408
992.364
992.32
992.278
992.236
992.193
992.151
992.11
992.069
992.029
991.99
991.95
991.911
991.872
991.834
991.796
991.76
991.724
991.687
991.65
991.615
991.58
991.546
991.511
991.476
991.442
991.41
991.377
991.345
991.313
991.282
991.251
991.22
991.19
991.159
991.13
991.102
991.073
991.044
991.017
990.99
990.964
990.937
990.911
990.885
990.86
990.835
990.811
990.787
990.763
990.74
990.717
990.694
990.671
990.65
990.629
990.608
990.587
990.567
990.548
990.529
990.51
990.492
990.474
990.456
990.438
990.421
990.405
990.388
990.372
990.357
990.341
990.326
990.311
990.297
990.283
990.27
990.257
990.244
990.231
990.219
990.208
990.196
990.185
990.174
990.164
990.153
990.143
990.133
990.124
990.115
990.107
990.099
990.091
990.083
990.076
990.069
990.062
990.056
990.049
990.044
990.038
990.033
990.027
990.023
990.018
990.014
990.01
990.006
990.002
989.999
989.996
989.994
989.991
989.989
989.987
989.985
989.984
989.983
989.982
989.981
989.981
989.98
989.98
989.98
989.981
989.982
989.982
989.983
989.985
989.986
989.988
989.99
989.992
989.994
989.997
989.999
990.002
990.005
990.009
990.012
990.016
990.02
990.024
990.028
990.032
990.037
990.042
990.046
990.051
990.056
990.061
990.067
990.073
990.078
990.084
990.09
990.096
990.103
990.109
990.115
990.122
990.129
990.135
990.142
990.15
990.158
990.167
990.177
990.187
990.194
990.202
990.209
990.216
990.224
990.232
990.241
990.249
990.258
990.266
990.275
990.284
990.293
990.303
990.312
990.321
990.331
990.34
990.35
990.359
990.369
990.378
990.388
990.398
990.407
990.417
990.427
990.437
990.446
990.456
990.466
990.476
990.486
990.496
990.507
990.517
990.527
990.537
990.547
990.557
990.568
990.578
990.588
990.599
990.609
990.62
990.63
990.641
990.652
990.662
990.673
990.684
990.695
990.706
990.717
990.727
990.738
990.749
990.76
990.771
990.783
990.794
990.805
990.816
990.827
990.837
990.848
990.858
990.869
990.879
990.89
990.9
990.911
990.922
990.932
990.943
990.954
990.964
990.975
990.985
990.996
991.006
991.017
991.028
991.038
991.048
991.058
991.068
991.078
991.088
991.098
991.108
991.118
991.127
991.137
991.147
991.156
991.166
991.175
991.185
991.195
991.204
991.213
991.223
991.232
991.242
991.252
991.263
991.273
991.282
991.291
991.3
991.31
991.319
991.328
991.337
991.346
991.355
991.363
991.372
991.38
991.388
991.396
991.404
991.412
991.42
991.428
991.436
991.444
991.451
991.459
991.467
991.474
991.481
991.489
991.496
991.504
991.511
991.518
991.525
991.532
991.539
991.546
991.553
991.559
991.566
991.572
991.578
991.585
991.591
991.597
991.604
991.609
991.615
991.62
991.626
991.631
991.637
991.642
991.647
991.652
991.657
991.662
991.667
991.672
991.677
991.681
991.686
991.69
991.695
991.699
991.703
991.707
991.711
991.715
991.719
991.723
991.726
991.73
991.734
991.737
991.74
991.743
991.747
991.749
991.752
991.755
991.758
991.76
991.762
991.765
991.767
991.769
991.771
991.773
991.775
991.777
991.778
991.78
991.781
991.783
991.784
991.785
991.786
991.787
991.788
991.789
991.79
991.79
991.791
991.791
991.792
991.792
991.792
991.792
993.11
993.061
993.014
992.966
992.916
992.867
992.82
992.772
992.725
992.679
992.633
992.587
992.541
992.496
992.451
992.408
992.364
992.32
992.278
992.236
992.194
992.151
992.109
992.069
992.029
991.989
991.95
991.911
991.872
991.834
991.797
991.76
991.723
991.687
991.651
991.615
991.58
991.545
991.511
991.477
991.443
991.41
991.377
991.345
991.313
991.282
991.251
991.22
991.189
991.159
991.13
991.102
991.073
991.045
991.017
990.99
990.964
990.938
990.912
990.886
990.86
990.835
990.811
990.787
990.763
990.739
990.716
990.694
990.671
990.65
990.629
990.608
990.587
990.567
990.548
990.528
990.51
990.492
990.474
990.456
990.438
990.422
990.405
990.388
990.372
990.357
990.341
990.326
990.311
990.297
990.283
990.27
990.257
990.244
990.232
990.22
990.208
990.196
990.185
990.174
990.163
990.153
990.143
990.133
990.124
990.115
990.107
990.099
990.091
990.084
990.076
990.069
990.062