/*--------------------------------*- C++ -*----------------------------------*\
  =========                 |
  \\      /  F ield         | OpenFOAM: The Open Source CFD Toolbox
   \\    /   O peration     | Website:  https://openfoam.org
    \\  /    A nd           | Version:  7
     \\/     M anipulation  |
\*---------------------------------------------------------------------------*/
FoamFile
{
    version     2.0;
    format      ascii;
    class       volScalarField;
    location    "4500";
    object      T;
}
// * * * * * * * * * * * * * * * * * * * * * * * * * * * * * * * * * * * * * //

dimensions      [0 0 0 1 0 0 0];

internalField   nonuniform List<scalar> 
160000
(
310.073
310.218
310.36
310.501
310.646
310.787
310.926
311.061
311.192
311.327
311.464
311.595
311.725
311.859
311.988
312.111
312.233
312.353
312.476
312.599
312.717
312.831
312.945
313.059
313.168
313.277
313.39
313.501
313.609
313.715
313.815
313.914
314.016
314.117
314.212
314.308
314.406
314.502
314.595
314.685
314.775
314.862
314.951
315.037
315.123
315.21
315.295
315.373
315.451
315.529
315.606
315.685
315.763
315.838
315.912
315.985
316.056
316.125
316.19
316.255
316.324
316.391
316.454
316.515
316.574
316.634
316.695
316.754
316.812
316.864
316.92
316.975
317.028
317.081
317.131
317.181
317.23
317.277
317.323
317.369
317.414
317.46
317.503
317.545
317.586
317.627
317.666
317.703
317.74
317.776
317.812
317.846
317.881
317.915
317.947
317.976
318.006
318.035
318.063
318.089
318.116
318.141
318.166
318.191
318.214
318.237
318.259
318.28
318.3
318.32
318.339
318.357
318.373
318.39
318.405
318.419
318.434
318.447
318.46
318.473
318.485
318.495
318.505
318.514
318.523
318.532
318.539
318.546
318.552
318.557
318.562
318.566
318.57
318.573
318.576
318.578
318.579
318.58
318.58
318.579
318.578
318.577
318.575
318.572
318.569
318.565
318.561
318.556
318.551
318.545
318.539
318.532
318.525
318.517
318.509
318.501
318.492
318.482
318.472
318.461
318.45
318.439
318.427
318.415
318.403
318.39
318.377
318.363
318.349
318.334
318.319
318.303
318.288
318.272
318.256
318.24
318.223
318.206
318.188
318.169
318.151
318.132
318.113
318.094
318.075
318.055
318.034
318.013
317.992
317.969
317.946
317.924
317.903
317.882
317.86
317.839
317.816
317.789
317.762
317.738
317.714
317.691
317.669
317.647
317.623
317.598
317.571
317.546
317.521
317.497
317.472
317.448
317.423
317.398
317.373
317.348
317.323
317.298
317.272
317.245
317.218
317.191
317.166
317.141
317.116
317.09
317.062
317.035
317.008
316.98
316.954
316.928
316.901
316.873
316.846
316.818
316.79
316.763
316.736
316.709
316.683
316.656
316.629
316.601
316.573
316.543
316.511
316.478
316.444
316.408
316.378
316.352
316.327
316.302
316.276
316.249
316.222
316.196
316.17
316.142
316.11
316.08
316.054
316.029
316.003
315.976
315.948
315.921
315.894
315.865
315.835
315.808
315.783
315.757
315.732
315.708
315.682
315.654
315.626
315.599
315.574
315.549
315.524
315.498
315.471
315.446
315.421
315.397
315.373
315.349
315.325
315.302
315.278
315.254
315.228
315.203
315.178
315.153
315.129
315.103
315.075
315.042
315.013
314.991
314.969
314.948
314.927
314.907
314.886
314.866
314.845
314.824
314.804
314.783
314.762
314.74
314.719
314.699
314.681
314.662
314.644
314.626
314.607
314.587
314.565
314.543
314.522
314.504
314.486
314.468
314.451
314.434
314.417
314.401
314.384
314.368
314.352
314.337
314.321
314.304
314.289
314.275
314.261
314.247
314.233
314.218
314.204
314.19
314.176
314.163
314.15
314.138
314.126
314.114
314.102
314.091
314.079
314.068
314.057
314.047
314.037
314.027
314.017
314.008
313.998
313.988
313.979
313.97
313.961
313.953
313.946
313.939
313.931
313.924
313.918
313.911
313.905
313.9
313.894
313.889
313.884
313.879
313.874
313.87
313.866
313.862
313.859
313.855
313.852
313.85
313.847
313.845
313.843
313.841
313.84
313.839
313.838
313.837
313.836
313.836
310.076
310.22
310.361
310.503
310.644
310.784
310.924
311.062
311.195
311.329
311.464
311.596
311.724
311.854
311.986
312.111
312.231
312.353
312.479
312.601
312.718
312.833
312.947
313.061
313.169
313.275
313.387
313.501
313.609
313.714
313.816
313.916
314.017
314.117
314.212
314.308
314.408
314.501
314.591
314.684
314.776
314.863
314.951
315.037
315.122
315.21
315.294
315.373
315.45
315.53
315.609
315.686
315.762
315.838
315.912
315.983
316.055
316.124
316.191
316.257
316.324
316.39
316.454
316.515
316.574
316.635
316.694
316.752
316.81
316.866
316.922
316.976
317.029
317.08
317.131
317.181
317.23
317.277
317.323
317.369
317.415
317.46
317.503
317.544
317.585
317.627
317.666
317.704
317.74
317.776
317.812
317.847
317.881
317.915
317.946
317.976
318.005
318.034
318.063
318.089
318.116
318.141
318.166
318.19
318.215
318.237
318.259
318.28
318.301
318.32
318.339
318.357
318.373
318.389
318.405
318.419
318.434
318.447
318.46
318.473
318.485
318.495
318.505
318.515
318.523
318.532
318.539
318.546
318.552
318.557
318.562
318.566
318.57
318.573
318.576
318.578
318.579
318.58
318.58
318.579
318.578
318.577
318.575
318.572
318.569
318.565
318.561
318.556
318.551
318.545
318.539
318.532
318.525
318.518
318.509
318.501
318.491
318.482
318.472
318.461
318.45
318.439
318.427
318.415
318.403
318.39
318.377
318.363
318.349
318.334
318.318
318.303
318.288
318.272
318.256
318.24
318.223
318.205
318.188
318.169
318.151
318.132
318.114
318.095
318.075
318.055
318.034
318.013
317.992
317.968
317.944
317.922
317.903
317.883
317.862
317.839
317.815
317.787
317.761
317.738
317.715
317.692
317.67
317.646
317.622
317.597
317.571
317.546
317.522
317.497
317.473
317.448
317.423
317.398
317.373
317.348
317.323
317.297
317.271
317.244
317.218
317.193
317.167
317.142
317.116
317.089
317.062
317.035
317.008
316.981
316.954
316.928
316.901
316.873
316.845
316.818
316.791
316.763
316.736
316.71
316.683
316.657
316.629
316.601
316.573
316.543
316.51
316.474
316.44
316.409
316.38
316.354
316.328
316.302
316.276
316.249
316.223
316.196
316.169
316.14
316.11
316.082
316.055
316.03
316.003
315.975
315.948
315.922
315.894
315.863
315.835
315.809
315.783
315.757
315.732
315.708
315.682
315.654
315.626
315.6
315.575
315.549
315.523
315.497
315.471
315.446
315.421
315.397
315.373
315.349
315.326
315.302
315.278
315.254
315.229
315.203
315.177
315.153
315.129
315.102
315.07
315.038
315.013
314.991
314.97
314.949
314.928
314.907
314.886
314.866
314.845
314.824
314.804
314.783
314.761
314.74
314.719
314.7
314.681
314.663
314.644
314.625
314.606
314.585
314.563
314.542
314.523
314.505
314.486
314.469
314.452
314.434
314.417
314.401
314.384
314.368
314.352
314.336
314.32
314.304
314.29
314.275
314.261
314.247
314.232
314.218
314.203
314.189
314.176
314.163
314.15
314.138
314.126
314.114
314.102
314.091
314.079
314.068
314.057
314.047
314.037
314.027
314.017
314.007
313.998
313.988
313.979
313.97
313.961
313.953
313.946
313.938
313.931
313.924
313.918
313.911
313.905
313.9
313.894
313.889
313.884
313.879
313.874
313.87
313.866
313.862
313.859
313.855
313.852
313.85
313.847
313.845
313.843
313.841
313.84
313.839
313.838
313.837
313.836
313.836
310.074
310.217
310.361
310.503
310.645
310.786
310.923
311.062
311.196
311.329
311.465
311.596
311.723
311.851
311.983
312.11
312.233
312.358
312.479
312.6
312.72
312.836
312.95
313.06
313.17
313.278
313.387
313.498
313.608
313.713
313.814
313.915
314.016
314.117
314.214
314.31
314.407
314.5
314.591
314.683
314.775
314.864
314.952
315.037
315.124
315.211
315.292
315.371
315.45
315.531
315.611
315.688
315.763
315.837
315.91
315.982
316.054
316.123
316.192
316.259
316.324
316.389
316.454
316.515
316.574
316.635
316.695
316.753
316.81
316.867
316.922
316.975
317.029
317.08
317.131
317.181
317.23
317.277
317.324
317.37
317.415
317.459
317.503
317.544
317.585
317.626
317.665
317.704
317.741
317.777
317.812
317.848
317.881
317.914
317.946
317.975
318.005
318.034
318.062
318.089
318.115
318.141
318.166
318.191
318.215
318.238
318.26
318.28
318.3
318.32
318.339
318.356
318.373
318.389
318.405
318.419
318.434
318.447
318.461
318.473
318.484
318.495
318.505
318.515
318.523
318.531
318.539
318.546
318.552
318.557
318.562
318.566
318.57
318.573
318.576
318.578
318.579
318.58
318.58
318.579
318.578
318.577
318.575
318.572
318.569
318.565
318.561
318.556
318.551
318.545
318.539
318.532
318.525
318.517
318.509
318.5
318.491
318.482
318.472
318.461
318.45
318.439
318.427
318.415
318.403
318.39
318.377
318.363
318.349
318.333
318.318
318.303
318.288
318.272
318.256
318.24
318.223
318.205
318.188
318.17
318.151
318.133
318.114
318.095
318.075
318.055
318.034
318.013
317.99
317.965
317.942
317.923
317.903
317.883
317.861
317.839
317.814
317.788
317.763
317.739
317.716
317.693
317.669
317.646
317.621
317.596
317.571
317.547
317.522
317.498
317.473
317.448
317.423
317.398
317.373
317.348
317.323
317.297
317.271
317.245
317.219
317.193
317.168
317.141
317.115
317.089
317.062
317.035
317.008
316.981
316.954
316.928
316.9
316.873
316.846
316.818
316.79
316.763
316.737
316.71
316.683
316.656
316.629
316.602
316.573
316.542
316.507
316.469
316.437
316.409
316.382
316.356
316.329
316.303
316.276
316.249
316.223
316.196
316.168
316.139
316.11
316.083
316.057
316.03
316.003
315.976
315.948
315.921
315.892
315.863
315.836
315.809
315.783
315.757
315.733
315.707
315.681
315.653
315.626
315.6
315.574
315.549
315.523
315.497
315.471
315.446
315.422
315.398
315.374
315.35
315.326
315.303
315.279
315.255
315.229
315.202
315.174
315.149
315.125
315.097
315.066
315.039
315.015
314.993
314.971
314.95
314.929
314.908
314.887
314.866
314.845
314.824
314.803
314.782
314.761
314.74
314.72
314.701
314.682
314.663
314.644
314.624
314.604
314.583
314.562
314.542
314.524
314.505
314.487
314.469
314.452
314.435
314.417
314.401
314.384
314.368
314.352
314.336
314.32
314.305
314.29
314.276
314.261
314.247
314.232
314.217
314.203
314.189
314.176
314.163
314.151
314.139
314.126
314.114
314.102
314.091
314.08
314.068
314.057
314.047
314.037
314.027
314.017
314.007
313.997
313.988
313.979
313.97
313.961
313.954
313.946
313.938
313.931
313.924
313.918
313.911
313.905
313.9
313.894
313.889
313.884
313.879
313.874
313.87
313.866
313.862
313.859
313.855
313.852
313.85
313.847
313.845
313.843
313.841
313.84
313.839
313.838
313.837
313.836
313.836
310.073
310.218
310.361
310.505
310.647
310.788
310.925
311.063
311.199
311.333
311.466
311.594
311.722
311.851
311.981
312.109
312.233
312.357
312.48
312.601
312.719
312.836
312.95
313.06
313.172
313.281
313.388
313.498
313.608
313.712
313.813
313.913
314.014
314.114
314.215
314.312
314.407
314.499
314.589
314.682
314.776
314.866
314.953
315.038
315.124
315.209
315.291
315.371
315.451
315.53
315.61
315.69
315.764
315.837
315.911
315.983
316.053
316.122
316.191
316.258
316.324
316.39
316.454
316.515
316.574
316.635
316.694
316.753
316.811
316.868
316.923
316.975
317.028
317.08
317.131
317.183
317.231
317.278
317.325
317.37
317.414
317.459
317.502
317.543
317.584
317.625
317.665
317.704
317.741
317.778
317.813
317.847
317.881
317.914
317.945
317.976
318.005
318.033
318.061
318.089
318.116
318.141
318.167
318.191
318.215
318.238
318.26
318.28
318.3
318.32
318.338
318.356
318.373
318.389
318.405
318.419
318.434
318.447
318.461
318.473
318.484
318.495
318.505
318.514
318.523
318.531
318.539
318.546
318.552
318.557
318.562
318.566
318.57
318.573
318.576
318.578
318.579
318.58
318.58
318.579
318.578
318.577
318.575
318.572
318.569
318.565
318.561
318.556
318.551
318.545
318.539
318.532
318.525
318.517
318.509
318.501
318.491
318.482
318.472
318.461
318.45
318.439
318.427
318.415
318.403
318.39
318.377
318.363
318.348
318.333
318.318
318.303
318.288
318.273
318.256
318.24
318.223
318.206
318.188
318.17
318.152
318.133
318.115
318.095
318.075
318.054
318.032
318.01
317.986
317.964
317.943
317.924
317.903
317.882
317.86
317.838
317.814
317.789
317.764
317.74
317.717
317.693
317.669
317.645
317.621
317.596
317.572
317.547
317.523
317.498
317.474
317.449
317.424
317.398
317.373
317.348
317.322
317.297
317.271
317.246
317.22
317.194
317.167
317.141
317.115
317.088
317.062
317.035
317.008
316.981
316.954
316.927
316.9
316.873
316.846
316.818
316.79
316.763
316.737
316.71
316.683
316.656
316.629
316.601
316.571
316.539
316.501
316.466
316.437
316.41
316.384
316.357
316.33
316.303
316.277
316.25
316.222
316.195
316.167
316.139
316.111
316.084
316.057
316.03
316.003
315.976
315.948
315.92
315.891
315.862
315.835
315.809
315.783
315.758
315.733
315.707
315.68
315.653
315.625
315.599
315.574
315.549
315.523
315.497
315.472
315.447
315.422
315.398
315.374
315.35
315.327
315.303
315.28
315.255
315.227
315.197
315.169
315.145
315.121
315.094
315.067
315.041
315.017
314.995
314.972
314.951
314.929
314.908
314.887
314.867
314.846
314.824
314.803
314.782
314.761
314.74
314.721
314.702
314.683
314.663
314.643
314.622
314.602
314.582
314.562
314.543
314.525
314.506
314.488
314.47
314.452
314.435
314.418
314.401
314.384
314.368
314.351
314.336
314.32
314.305
314.29
314.275
314.261
314.247
314.232
314.217
314.203
314.19
314.176
314.164
314.151
314.139
314.126
314.114
314.102
314.091
314.08
314.069
314.058
314.047
314.037
314.027
314.017
314.007
313.997
313.988
313.979
313.97
313.961
313.954
313.946
313.938
313.931
313.924
313.918
313.912
313.905
313.9
313.894
313.889
313.884
313.879
313.874
313.87
313.866
313.862
313.859
313.855
313.852
313.85
313.847
313.845
313.843
313.841
313.84
313.839
313.838
313.837
313.836
313.836
310.072
310.216
310.361
310.507
310.649
310.79
310.927
311.064
311.201
311.334
311.465
311.591
311.718
311.854
311.985
312.108
312.231
312.355
312.477
312.602
312.722
312.838
312.95
313.06
313.172
313.28
313.387
313.498
313.606
313.711
313.815
313.915
314.013
314.114
314.215
314.311
314.404
314.498
314.592
314.686
314.776
314.866
314.954
315.039
315.123
315.207
315.289
315.369
315.451
315.532
315.611
315.689
315.764
315.837
315.91
315.983
316.053
316.122
316.191
316.258
316.323
316.389
316.453
316.514
316.574
316.634
316.694
316.753
316.811
316.868
316.923
316.976
317.029
317.081
317.132
317.183
317.231
317.279
317.325
317.37
317.415
317.459
317.502
317.543
317.584
317.625
317.665
317.704
317.741
317.778
317.813
317.847
317.881
317.914
317.945
317.975
318.005
318.034
318.061
318.089
318.115
318.141
318.167
318.191
318.215
318.238
318.26
318.28
318.3
318.32
318.338
318.356
318.373
318.389
318.405
318.42
318.433
318.447
318.46
318.473
318.484
318.495
318.505
318.514
318.523
318.532
318.539
318.546
318.552
318.557
318.562
318.566
318.57
318.573
318.576
318.578
318.579
318.58
318.58
318.579
318.578
318.577
318.575
318.572
318.569
318.565
318.561
318.556
318.551
318.545
318.539
318.532
318.525
318.517
318.509
318.5
318.491
318.482
318.472
318.462
318.45
318.439
318.427
318.414
318.403
318.39
318.377
318.363
318.348
318.333
318.318
318.304
318.288
318.273
318.257
318.24
318.223
318.206
318.189
318.171
318.152
318.134
318.115
318.095
318.073
318.051
318.029
318.007
317.985
317.964
317.944
317.924
317.903
317.881
317.859
317.837
317.814
317.79
317.766
317.741
317.718
317.694
317.67
317.645
317.621
317.596
317.572
317.548
317.524
317.499
317.474
317.449
317.423
317.398
317.373
317.348
317.323
317.297
317.271
317.245
317.219
317.194
317.167
317.141
317.115
317.088
317.062
317.035
317.008
316.981
316.954
316.927
316.9
316.874
316.846
316.817
316.79
316.764
316.737
316.71
316.682
316.655
316.628
316.599
316.567
316.532
316.497
316.467
316.439
316.412
316.385
316.358
316.331
316.304
316.277
316.25
316.222
316.195
316.167
316.139
316.112
316.085
316.058
316.03
316.003
315.976
315.949
315.92
315.89
315.861
315.834
315.809
315.783
315.758
315.733
315.706
315.679
315.652
315.625
315.6
315.574
315.549
315.523
315.498
315.473
315.448
315.423
315.398
315.374
315.351
315.327
315.304
315.279
315.252
315.221
315.192
315.166
315.143
315.119
315.094
315.069
315.043
315.019
314.995
314.973
314.951
314.93
314.909
314.888
314.867
314.846
314.824
314.803
314.781
314.761
314.741
314.721
314.702
314.682
314.662
314.642
314.621
314.601
314.582
314.563
314.544
314.525
314.507
314.488
314.47
314.452
314.435
314.418
314.401
314.384
314.367
314.351
314.335
314.32
314.305
314.29
314.275
314.261
314.246
314.232
314.217
314.204
314.19
314.177
314.164
314.151
314.139
314.126
314.114
314.102
314.091
314.08
314.069
314.058
314.047
314.037
314.027
314.017
314.007
313.997
313.988
313.978
313.97
313.961
313.953
313.946
313.938
313.931
313.924
313.918
313.912
313.906
313.9
313.894
313.889
313.884
313.879
313.874
313.87
313.866
313.862
313.859
313.855
313.852
313.85
313.847
313.845
313.843
313.841
313.84
313.838
313.837
313.837
313.836
313.836
310.072
310.213
310.358
310.505
310.648
310.79
310.93
311.067
311.2
311.331
311.464
311.592
311.721
311.855
311.984
312.111
312.234
312.354
312.475
312.598
312.72
312.838
312.952
313.061
313.171
313.282
313.389
313.496
313.603
313.71
313.816
313.916
314.015
314.113
314.213
314.311
314.405
314.498
314.593
314.686
314.777
314.866
314.953
315.038
315.123
315.207
315.289
315.369
315.45
315.532
315.612
315.689
315.763
315.838
315.911
315.982
316.053
316.123
316.19
316.257
316.323
316.388
316.452
316.514
316.574
316.634
316.695
316.753
316.811
316.868
316.924
316.977
317.031
317.082
317.132
317.183
317.232
317.279
317.325
317.37
317.415
317.459
317.501
317.543
317.584
317.625
317.665
317.704
317.742
317.778
317.812
317.846
317.881
317.914
317.945
317.975
318.005
318.034
318.062
318.089
318.115
318.141
318.167
318.192
318.216
318.238
318.26
318.28
318.3
318.32
318.339
318.356
318.373
318.389
318.405
318.42
318.433
318.447
318.46
318.473
318.484
318.495
318.505
318.515
318.523
318.532
318.539
318.546
318.552
318.557
318.562
318.566
318.57
318.573
318.576
318.578
318.579
318.58
318.58
318.579
318.578
318.577
318.575
318.572
318.569
318.565
318.561
318.556
318.551
318.545
318.539
318.532
318.525
318.517
318.509
318.5
318.492
318.482
318.472
318.462
318.45
318.438
318.426
318.414
318.402
318.39
318.377
318.363
318.348
318.333
318.319
318.304
318.289
318.273
318.257
318.24
318.224
318.207
318.19
318.172
318.153
318.135
318.115
318.095
318.071
318.047
318.025
318.005
317.985
317.965
317.945
317.924
317.903
317.881
317.859
317.837
317.814
317.79
317.766
317.742
317.718
317.694
317.67
317.645
317.621
317.597
317.573
317.548
317.524
317.499
317.474
317.449
317.424
317.398
317.373
317.348
317.323
317.297
317.271
317.245
317.219
317.194
317.168
317.141
317.115
317.088
317.062
317.035
317.008
316.981
316.954
316.927
316.901
316.874
316.845
316.817
316.79
316.763
316.736
316.708
316.681
316.654
316.626
316.595
316.563
316.53
316.499
316.469
316.44
316.413
316.386
316.359
316.332
316.305
316.277
316.25
316.222
316.195
316.167
316.14
316.113
316.086
316.058
316.031
316.003
315.976
315.948
315.918
315.888
315.861
315.835
315.809
315.784
315.759
315.732
315.705
315.678
315.652
315.626
315.6
315.575
315.549
315.523
315.498
315.473
315.448
315.423
315.399
315.375
315.351
315.328
315.303
315.277
315.246
315.216
315.191
315.166
315.143
315.119
315.094
315.069
315.044
315.02
314.996
314.974
314.952
314.931
314.91
314.889
314.867
314.846
314.824
314.802
314.781
314.761
314.741
314.721
314.702
314.682
314.662
314.641
314.621
314.601
314.582
314.563
314.544
314.526
314.507
314.488
314.47
314.452
314.435
314.418
314.401
314.384
314.367
314.351
314.335
314.32
314.305
314.29
314.275
314.261
314.246
314.232
314.217
314.204
314.19
314.177
314.164
314.151
314.139
314.126
314.114
314.102
314.091
314.08
314.069
314.058
314.047
314.037
314.027
314.017
314.007
313.997
313.987
313.978
313.97
313.961
313.953
313.946
313.938
313.931
313.924
313.918
313.912
313.906
313.9
313.894
313.889
313.884
313.879
313.874
313.87
313.866
313.862
313.859
313.855
313.852
313.849
313.847
313.845
313.843
313.841
313.84
313.838
313.837
313.837
313.836
313.836
310.072
310.214
310.357
310.501
310.645
310.789
310.931
311.068
311.202
311.334
311.464
311.593
311.724
311.857
311.985
312.11
312.233
312.355
312.475
312.595
312.718
312.837
312.95
313.059
313.17
313.282
313.391
313.498
313.604
313.711
313.816
313.917
314.015
314.113
314.211
314.309
314.406
314.501
314.593
314.685
314.776
314.866
314.953
315.038
315.124
315.208
315.289
315.37
315.451
315.531
315.612
315.688
315.763
315.838
315.911
315.982
316.053
316.122
316.19
316.257
316.322
316.387
316.452
316.515
316.575
316.634
316.694
316.754
316.813
316.869
316.923
316.978
317.032
317.083
317.133
317.183
317.231
317.279
317.325
317.37
317.415
317.459
317.501
317.543
317.585
317.625
317.665
317.703
317.741
317.778
317.812
317.846
317.88
317.913
317.945
317.975
318.004
318.034
318.062
318.089
318.115
318.141
318.167
318.193
318.216
318.238
318.26
318.28
318.3
318.32
318.338
318.356
318.372
318.389
318.405
318.42
318.433
318.447
318.46
318.473
318.484
318.495
318.505
318.514
318.523
318.532
318.539
318.546
318.552
318.558
318.562
318.566
318.57
318.573
318.576
318.578
318.579
318.58
318.58
318.579
318.578
318.577
318.575
318.572
318.569
318.565
318.561
318.556
318.551
318.545
318.539
318.532
318.525
318.517
318.509
318.5
318.492
318.482
318.472
318.461
318.45
318.438
318.426
318.415
318.402
318.39
318.377
318.363
318.348
318.334
318.319
318.304
318.289
318.273
318.257
318.241
318.224
318.207
318.19
318.172
318.154
318.135
318.116
318.094
318.067
318.042
318.023
318.004
317.985
317.966
317.945
317.924
317.903
317.881
317.859
317.836
317.814
317.79
317.767
317.743
317.719
317.695
317.67
317.646
317.622
317.597
317.573
317.549
317.524
317.499
317.474
317.449
317.424
317.399
317.374
317.349
317.323
317.297
317.271
317.245
317.219
317.194
317.168
317.141
317.115
317.088
317.061
317.035
317.008
316.981
316.954
316.928
316.901
316.873
316.845
316.817
316.79
316.763
316.735
316.706
316.678
316.651
316.622
316.592
316.561
316.53
316.5
316.47
316.442
316.414
316.387
316.36
316.333
316.306
316.278
316.251
316.223
316.195
316.168
316.14
316.113
316.085
316.058
316.031
316.003
315.975
315.947
315.917
315.888
315.861
315.835
315.81
315.784
315.758
315.732
315.705
315.678
315.652
315.626
315.6
315.575
315.549
315.524
315.498
315.473
315.448
315.423
315.399
315.375
315.351
315.327
315.302
315.273
315.242
315.214
315.19
315.167
315.143
315.118
315.094
315.069
315.044
315.02
314.997
314.975
314.953
314.932
314.91
314.889
314.867
314.845
314.824
314.803
314.782
314.761
314.741
314.721
314.701
314.681
314.661
314.641
314.621
314.601
314.582
314.563
314.545
314.526
314.507
314.488
314.47
314.452
314.435
314.418
314.401
314.384
314.367
314.351
314.335
314.32
314.305
314.29
314.275
314.26
314.246
314.232
314.218
314.204
314.191
314.178
314.165
314.151
314.139
314.126
314.114
314.103
314.091
314.08
314.068
314.058
314.047
314.037
314.027
314.017
314.007
313.997
313.987
313.978
313.97
313.961
313.953
313.946
313.938
313.931
313.924
313.918
313.912
313.906
313.9
313.894
313.889
313.884
313.879
313.874
313.87
313.866
313.862
313.859
313.855
313.852
313.849
313.847
313.845
313.843
313.841
313.84
313.838
313.837
313.837
313.836
313.836
310.072
310.216
310.358
310.5
310.645
310.788
310.928
311.067
311.204
311.336
311.467
311.595
311.725
311.857
311.985
312.108
312.232
312.358
312.478
312.596
312.715
312.833
312.948
313.06
313.17
313.28
313.392
313.501
313.606
313.712
313.816
313.916
314.014
314.114
314.214
314.311
314.406
314.499
314.592
314.685
314.775
314.865
314.952
315.038
315.124
315.208
315.29
315.371
315.452
315.533
315.611
315.688
315.763
315.838
315.91
315.981
316.051
316.121
316.189
316.256
316.323
316.388
316.452
316.515
316.575
316.635
316.695
316.755
316.814
316.869
316.924
316.979
317.032
317.083
317.133
317.182
317.231
317.279
317.324
317.37
317.415
317.459
317.501
317.544
317.585
317.625
317.664
317.704
317.742
317.777
317.812
317.846
317.88
317.913
317.944
317.975
318.004
318.033
318.062
318.09
318.116
318.142
318.168
318.192
318.216
318.238
318.259
318.28
318.3
318.32
318.338
318.356
318.373
318.389
318.405
318.419
318.434
318.447
318.46
318.473
318.484
318.495
318.505
318.515
318.524
318.532
318.539
318.546
318.552
318.558
318.562
318.566
318.57
318.573
318.576
318.578
318.579
318.58
318.58
318.579
318.578
318.577
318.575
318.572
318.569
318.565
318.561
318.556
318.551
318.545
318.539
318.532
318.525
318.517
318.509
318.5
318.491
318.482
318.472
318.461
318.45
318.438
318.427
318.415
318.402
318.389
318.377
318.363
318.348
318.334
318.319
318.304
318.289
318.273
318.257
318.241
318.225
318.208
318.19
318.173
318.155
318.136
318.115
318.09
318.062
318.04
318.022
318.004
317.985
317.966
317.945
317.924
317.903
317.881
317.859
317.836
317.813
317.79
317.767
317.743
317.719
317.695
317.671
317.647
317.623
317.598
317.573
317.549
317.524
317.499
317.475
317.45
317.425
317.4
317.374
317.349
317.324
317.298
317.271
317.245
317.22
317.194
317.168
317.141
317.115
317.088
317.061
317.035
317.008
316.981
316.954
316.928
316.9
316.873
316.844
316.817
316.789
316.761
316.732
316.704
316.677
316.649
316.62
316.591
316.561
316.53
316.501
316.471
316.443
316.415
316.388
316.361
316.334
316.306
316.279
316.251
316.223
316.196
316.168
316.14
316.113
316.085
316.058
316.031
316.003
315.974
315.946
315.917
315.889
315.862
315.835
315.81
315.784
315.758
315.732
315.705
315.678
315.652
315.626
315.6
315.575
315.549
315.524
315.499
315.474
315.449
315.424
315.399
315.374
315.35
315.326
315.299
315.27
315.24
315.214
315.19
315.167
315.142
315.118
315.094
315.069
315.045
315.021
314.998
314.976
314.954
314.932
314.91
314.889
314.867
314.845
314.824
314.803
314.782
314.762
314.741
314.721
314.701
314.681
314.661
314.641
314.621
314.601
314.582
314.563
314.545
314.526
314.507
314.489
314.47
314.453
314.436
314.418
314.401
314.384
314.367
314.351
314.335
314.32
314.305
314.29
314.275
314.26
314.246
314.232
314.218
314.204
314.191
314.178
314.165
314.152
314.139
314.126
314.114
314.103
314.091
314.079
314.068
314.058
314.047
314.037
314.027
314.016
314.006
313.997
313.987
313.978
313.97
313.961
313.953
313.946
313.938
313.931
313.924
313.918
313.912
313.906
313.9
313.894
313.889
313.884
313.879
313.874
313.87
313.866
313.862
313.859
313.855
313.852
313.849
313.847
313.845
313.843
313.841
313.84
313.838
313.837
313.837
313.836
313.836
310.073
310.216
310.358
310.502
310.644
310.788
310.929
311.066
311.202
311.334
311.467
311.598
311.728
311.859
311.985
312.108
312.234
312.358
312.477
312.595
312.714
312.832
312.947
313.061
313.172
313.281
313.393
313.501
313.606
313.712
313.815
313.915
314.014
314.114
314.214
314.31
314.405
314.498
314.591
314.686
314.777
314.865
314.951
315.038
315.124
315.208
315.29
315.371
315.452
315.533
315.611
315.686
315.762
315.838
315.91
315.98
316.051
316.12
316.188
316.256
316.323
316.388
316.452
316.515
316.576
316.637
316.696
316.755
316.814
316.87
316.925
316.979
317.032
317.083
317.133
317.183
317.232
317.278
317.324
317.37
317.415
317.459
317.502
317.544
317.585
317.625
317.664
317.703
317.742
317.778
317.812
317.846
317.88
317.912
317.944
317.975
318.004
318.033
318.062
318.09
318.116
318.142
318.168
318.192
318.216
318.238
318.259
318.28
318.3
318.319
318.337
318.355
318.373
318.389
318.405
318.42
318.434
318.447
318.46
318.473
318.484
318.495
318.505
318.515
318.524
318.532
318.539
318.546
318.552
318.557
318.562
318.566
318.57
318.573
318.576
318.578
318.579
318.58
318.58
318.579
318.578
318.577
318.575
318.572
318.569
318.565
318.561
318.556
318.551
318.545
318.539
318.532
318.525
318.517
318.509
318.5
318.491
318.482
318.472
318.461
318.45
318.438
318.427
318.414
318.402
318.389
318.377
318.363
318.349
318.334
318.319
318.304
318.289
318.273
318.257
318.241
318.225
318.208
318.191
318.173
318.154
318.133
318.11
318.085
318.061
318.042
318.023
318.005
317.986
317.966
317.945
317.924
317.903
317.881
317.859
317.836
317.813
317.79
317.767
317.743
317.719
317.695
317.671
317.647
317.623
317.599
317.574
317.549
317.524
317.5
317.475
317.45
317.425
317.4
317.375
317.349
317.324
317.298
317.272
317.246
317.22
317.194
317.168
317.141
317.115
317.088
317.062
317.035
317.008
316.981
316.954
316.927
316.899
316.872
316.844
316.816
316.788
316.759
316.73
316.703
316.675
316.648
316.619
316.59
316.561
316.531
316.501
316.472
316.444
316.416
316.389
316.362
316.334
316.307
316.279
316.251
316.224
316.196
316.168
316.14
316.112
316.085
316.057
316.03
316.002
315.974
315.946
315.918
315.889
315.862
315.836
315.81
315.784
315.758
315.731
315.705
315.678
315.652
315.627
315.601
315.575
315.55
315.524
315.499
315.474
315.448
315.423
315.399
315.374
315.349
315.323
315.296
315.267
315.24
315.215
315.191
315.167
315.142
315.118
315.093
315.069
315.045
315.022
314.998
314.976
314.954
314.932
314.911
314.889
314.867
314.845
314.824
314.803
314.783
314.762
314.741
314.721
314.701
314.681
314.661
314.641
314.621
314.601
314.582
314.563
314.544
314.526
314.507
314.489
314.471
314.453
314.436
314.418
314.401
314.384
314.367
314.351
314.335
314.32
314.305
314.29
314.275
314.261
314.246
314.232
314.218
314.204
314.191
314.178
314.165
314.152
314.139
314.126
314.114
314.102
314.091
314.079
314.068
314.057
314.047
314.037
314.026
314.016
314.006
313.997
313.987
313.978
313.97
313.961
313.953
313.946
313.938
313.931
313.924
313.918
313.912
313.906
313.9
313.894
313.889
313.884
313.879
313.874
313.87
313.866
313.862
313.858
313.855
313.852
313.849
313.847
313.845
313.843
313.841
313.839
313.838
313.837
313.837
313.836
313.836
310.075
310.22
310.36
310.5
310.645
310.789
310.927
311.065
311.2
311.333
311.466
311.597
311.729
311.858
311.986
312.11
312.233
312.357
312.476
312.593
312.712
312.833
312.95
313.061
313.173
313.284
313.392
313.5
313.607
313.712
313.813
313.915
314.016
314.114
314.212
314.309
314.406
314.499
314.591
314.685
314.776
314.864
314.951
315.038
315.124
315.207
315.29
315.372
315.454
315.534
315.611
315.686
315.762
315.837
315.909
315.981
316.051
316.119
316.187
316.256
316.322
316.388
316.452
316.515
316.577
316.638
316.697
316.756
316.814
316.87
316.924
316.979
317.032
317.083
317.134
317.184
317.232
317.278
317.324
317.37
317.415
317.458
317.501
317.544
317.585
317.625
317.664
317.703
317.742
317.778
317.812
317.846
317.88
317.912
317.943
317.974
318.004
318.033
318.062
318.09
318.116
318.143
318.168
318.192
318.216
318.238
318.26
318.28
318.3
318.319
318.337
318.355
318.372
318.389
318.405
318.42
318.434