/*--------------------------------*- C++ -*----------------------------------*\
  =========                 |
  \\      /  F ield         | OpenFOAM: The Open Source CFD Toolbox
   \\    /   O peration     | Website:  https://openfoam.org
    \\  /    A nd           | Version:  7
     \\/     M anipulation  |
\*---------------------------------------------------------------------------*/
FoamFile
{
    version     2.0;
    format      ascii;
    class       volScalarField;
    location    "35";
    object      alpha.wetting;
}
// * * * * * * * * * * * * * * * * * * * * * * * * * * * * * * * * * * * * * //

dimensions      [0 0 0 0 0 0 0];

internalField   nonuniform List<scalar> 
49920
(
-6.60374e-317
9.34129e-317
1.74201e-316
1.5252e-316
1.56757e-316
1.31344e-316
1.47497e-316
2.00701e-316
1.77139e-316
1.45883e-316
1.54124e-316
1.76534e-316
1.55568e-316
9.26003e-317
1.28687e-316
-7.10329e-317
-6.22459e-317
-6.35858e-317
-6.51768e-317
-9.97794e-317
-1.01012e-316
-1.01589e-316
1.01841e-316
-1.01967e-316
3.06118e-316
3.06252e-316
3.06341e-316
3.06402e-316
3.06447e-316
3.0648e-316
3.06506e-316
3.06525e-316
3.06541e-316
3.06553e-316
3.06564e-316
3.06567e-316
3.06563e-316
3.06559e-316
3.06555e-316
3.06551e-316
3.06548e-316
3.06546e-316
3.06544e-316
-3.06542e-316
-3.06541e-316
-3.0654e-316
-3.06539e-316
-3.06538e-316
-3.06538e-316
-3.06537e-316
-3.06537e-316
-3.06537e-316
-3.06537e-316
-3.06538e-316
-3.06538e-316
-3.06538e-316
-3.06539e-316
-3.06539e-316
-3.0654e-316
-3.0654e-316
-3.06541e-316
-3.06541e-316
-3.06541e-316
-3.0654e-316
-3.0654e-316
-3.06539e-316
-3.06539e-316
-3.06537e-316
-3.06536e-316
-3.06534e-316
-3.06533e-316
-3.06531e-316
-3.0653e-316
-3.06529e-316
-3.06528e-316
-3.0653e-316
-3.06529e-316
-3.06535e-316
-3.06534e-316
-3.06541e-316
-4.35843e-316
1.03307e-316
1.20034e-316
1.33394e-316
1.35337e-316
1.02627e-316
1.55245e-316
1.12207e-316
1.45615e-316
1.34858e-316
1.2719e-316
1.40741e-316
1.59535e-316
1.10532e-316
1.11148e-316
1.02148e-316
6.14797e-317
5.91495e-317
5.97539e-317
6.13922e-317
6.29115e-317
9.58246e-317
9.66131e-317
9.70339e-317
-2.91817e-316
-2.92252e-316
-2.92534e-316
-2.92727e-316
2.92865e-316
2.92967e-316
3.25604e-316
3.25671e-316
3.25723e-316
3.25765e-316
3.25798e-316
3.25816e-316
3.25811e-316
3.25797e-316
3.25785e-316
3.25775e-316
3.25766e-316
3.25759e-316
3.25752e-316
3.25747e-316
3.25743e-316
3.25739e-316
3.25737e-316
3.25734e-316
3.25733e-316
3.25732e-316
3.25731e-316
3.25731e-316
3.25732e-316
3.25732e-316
3.25733e-316
3.25735e-316
3.25736e-316
3.25739e-316
3.25741e-316
3.25743e-316
3.25745e-316
3.25748e-316
3.2575e-316
3.25753e-316
3.25754e-316
3.25757e-316
3.25758e-316
3.2576e-316
3.2576e-316
3.25761e-316
3.25762e-316
3.25761e-316
3.25762e-316
3.25761e-316
3.25764e-316
3.25762e-316
3.25767e-316
3.25767e-316
3.25773e-316
3.25774e-316
-3.53477e-316
9.63733e-317
9.67793e-317
1.06308e-316
1.06721e-316
1.01848e-316
1.46877e-316
1.041e-316
1.06567e-316
1.53935e-316
1.55906e-316
1.52467e-316
1.25148e-316
1.04655e-316
9.59731e-317
1.27362e-316
9.20355e-317
5.80402e-317
5.69298e-317
5.76323e-317
5.90062e-317
9.03293e-317
9.15342e-317
-9.22441e-317
-2.77975e-316
-2.78731e-316
-2.79218e-316
-2.79548e-316
3.10869e-316
3.1106e-316
3.11204e-316
3.11315e-316
3.11402e-316
3.11471e-316
3.11527e-316
3.11559e-316
3.11554e-316
3.11534e-316
3.11517e-316
3.11502e-316
3.1149e-316
3.11479e-316
3.11471e-316
3.11463e-316
3.11457e-316
3.11452e-316
3.11448e-316
3.11445e-316
3.11442e-316
3.11441e-316
3.1144e-316
3.1144e-316
3.1144e-316
3.11441e-316
3.11443e-316
3.11445e-316
3.11448e-316
3.11451e-316
3.11454e-316
3.11458e-316
3.11462e-316
3.11466e-316
3.1147e-316
3.11474e-316
3.11478e-316
3.11482e-316
3.11486e-316
3.1149e-316
3.11493e-316
3.11496e-316
3.11499e-316
3.11501e-316
3.11504e-316
3.11506e-316
3.11509e-316
3.11512e-316
3.11516e-316
3.1152e-316
3.11526e-316
3.11531e-316
-8.93712e-316
1.21995e-316
8.89943e-317
1.24624e-316
9.29944e-317
9.18047e-317
1.25447e-316
9.21307e-317
9.0112e-317
1.30158e-316
1.33201e-316
1.33685e-316
1.29325e-316
1.25544e-316
9.05998e-317
1.52711e-316
9.01033e-317
5.72179e-317
5.52477e-317
5.4962e-317
5.57854e-317
5.69034e-317
8.67397e-317
1.75327e-316
-2.35286e-316
-2.65752e-316
-2.66431e-316
-2.96543e-316
-2.96902e-316
2.97164e-316
2.97362e-316
2.97514e-316
2.97633e-316
2.97728e-316
3.27585e-316
3.27629e-316
2.97838e-316
2.97814e-316
2.97795e-316
2.97778e-316
2.97763e-316
2.97751e-316
2.9774e-316
2.97731e-316
2.97724e-316
2.97718e-316
2.97713e-316
2.9771e-316
2.97707e-316
2.97706e-316
2.97705e-316
2.97705e-316
2.97706e-316
2.97708e-316
2.9771e-316
2.97713e-316
2.97716e-316
2.97721e-316
2.97725e-316
2.9773e-316
2.97736e-316
2.97741e-316
2.97747e-316
2.97752e-316
2.97759e-316
2.97764e-316
2.9777e-316
2.97775e-316
2.97781e-316
2.97786e-316
2.9779e-316
2.97795e-316
2.97799e-316
3.27584e-316
3.27588e-316
3.27595e-316
3.27598e-316
3.27607e-316
3.27613e-316
3.27622e-316
-1.20729e-315
2.91324e-316
8.51899e-317
1.16479e-316
8.62711e-317
8.57853e-317
1.16152e-316
-3.14774e-316
-1.955e-316
-8.28422e-316
-1.18748e-316
-1.48399e-316
-9.50614e-316
-7.34503e-316
-5.52346e-316
-8.19638e-316
-4.9236e-316
-1.9567e-316
-1.34608e-316
-1.05829e-316
-1.06282e-316
-1.34921e-316
-1.64576e-316
-1.94414e-316
-2.2402e-316
-2.53336e-316
-2.54184e-316
2.8306e-316
-2.83505e-316
2.83829e-316
3.12479e-316
3.12685e-316
3.12847e-316
3.12976e-316
3.13081e-316
3.13126e-316
3.13111e-316
3.13085e-316
3.13063e-316
3.13043e-316
3.13026e-316
3.13012e-316
3.13e-316
3.1299e-316
3.12981e-316
3.12975e-316
3.12969e-316
3.12965e-316
3.12963e-316
3.12961e-316
3.12961e-316
3.12961e-316
3.12963e-316
3.12966e-316
3.12969e-316
3.12973e-316
3.12978e-316
3.12984e-316
3.1299e-316
3.12997e-316
3.13005e-316
3.13013e-316
3.13021e-316
3.13029e-316
3.13037e-316
3.13046e-316
3.13054e-316
3.13062e-316
3.1307e-316
3.13077e-316
3.13084e-316
3.13091e-316
3.13098e-316
3.13104e-316
3.13111e-316
3.13117e-316
3.13125e-316
3.13133e-316
3.13141e-316
3.1315e-316
-1.43479e-315
6.12332e-316
1.09567e-316
1.10731e-316
8.20068e-317
8.15406e-317
1.09702e-316
-2.71044e-316
-1.86026e-316
6.68238e-316
4.14849e-316
4.70633e-316
9.25417e-316
1.2361e-315
1.20737e-315
1.20736e-315
6.39718e-316
2.7091e-316
1.57099e-316
1.27879e-316
1.01816e-316
1.28464e-316
1.56403e-316
1.84873e-316
2.13301e-316
2.41478e-316
2.42471e-316
2.70153e-316
2.7067e-316
2.98149e-316
-2.98458e-316
2.98695e-316
2.98882e-316
2.99031e-316
2.99152e-316
2.99192e-316
2.99165e-316
2.9914e-316
2.99119e-316
2.991e-316
2.99083e-316
2.99069e-316
2.99058e-316
2.99048e-316
2.9904e-316
2.99033e-316
2.99028e-316
2.99024e-316
2.99022e-316
2.99021e-316
2.99022e-316
2.99023e-316
2.99026e-316
2.99029e-316
2.99034e-316
2.99039e-316
2.99045e-316
2.99052e-316
2.9906e-316
2.99068e-316
2.99077e-316
2.99087e-316
2.99096e-316
2.99107e-316
2.99116e-316
2.99127e-316
2.99136e-316
2.99147e-316
2.99156e-316
2.99166e-316
2.99174e-316
2.99183e-316
2.99192e-316
2.99199e-316
2.99209e-316
3.26417e-316
3.26428e-316
3.26436e-316
3.26448e-316
3.26457e-316
1.15358e-315
6.916e-316
5.0179e-316
6.09944e-316
3.93471e-316
3.12542e-316
3.39606e-316
-2.84669e-316
-2.03547e-316
3.93282e-316
3.93439e-316
5.01306e-316
-1.12426e-315
-2.179e-315
-2.2061e-315
-1.80021e-315
-8.25974e-316
-3.6552e-316
-1.77542e-316
-1.23681e-316
-1.22328e-316
-1.2273e-316
-1.48939e-316
-1.75946e-316
-2.03136e-316
-2.30171e-316
-2.31279e-316
-2.57807e-316
-2.84221e-316
-2.84678e-316
-2.85018e-316
-2.8528e-316
-3.11439e-316
-3.11618e-316
-3.11741e-316
3.1177e-316
3.11744e-316
3.11721e-316
3.117e-316
3.11682e-316
3.11665e-316
3.11652e-316
3.1164e-316
3.1163e-316
3.11622e-316
3.11616e-316
3.11611e-316
3.11608e-316
3.11606e-316
3.11606e-316
3.11608e-316
3.1161e-316
3.11614e-316
3.11619e-316
3.11625e-316
3.11632e-316
3.1164e-316
3.11649e-316
3.11659e-316
3.1167e-316
3.11681e-316
3.11693e-316
3.11706e-316
3.11718e-316
3.11731e-316
3.11743e-316
3.11757e-316
3.11769e-316
3.11782e-316
3.11793e-316
3.11805e-316
3.11817e-316
3.11827e-316
3.11839e-316
3.11847e-316
3.1186e-316
3.11868e-316
3.11881e-316
3.11892e-316
3.11903e-316
1.04715e-315
7.88196e-316
6.07241e-316
5.8131e-316
4.52006e-316
3.74867e-316
3.49294e-316
-2.97183e-316
-2.20522e-316
3.23222e-316
3.4903e-316
4.26258e-316
-7.10401e-316
-1.38105e-315
-2.20679e-315
-2.05198e-315
-9.6802e-316
-4.2616e-316
-2.20244e-316
-1.43342e-316
-1.17733e-316
-1.1753e-316
-1.42104e-316
-1.43675e-316
-1.69335e-316
-2.19407e-316
-2.20591e-316
-2.46001e-316
-2.71288e-316
-2.7178e-316
-2.96884e-316
2.97189e-316
-2.97427e-316
-2.97619e-316
-2.97722e-316
-2.97729e-316
-2.97708e-316
-2.97689e-316
-2.97672e-316
-2.97657e-316
-2.97643e-316
-2.97631e-316
-2.97621e-316
-2.97612e-316
-2.97606e-316
-2.976e-316
-2.97597e-316
-2.97595e-316
2.97595e-316
2.97596e-316
2.97598e-316
2.97602e-316
2.97607e-316
2.97613e-316
2.97621e-316
2.97629e-316
2.97639e-316
2.97649e-316
2.9766e-316
2.97673e-316
2.97685e-316
2.97699e-316
2.97712e-316
2.97727e-316
2.97741e-316
2.97756e-316
2.9777e-316
2.97785e-316
2.97798e-316
2.97813e-316
2.97825e-316
3.22658e-316
3.22672e-316
3.22684e-316
3.22698e-316
3.22709e-316
3.22723e-316
3.22735e-316
3.22749e-316
3.22763e-316
9.97781e-316
8.74207e-316
7.01718e-316
6.03269e-316
4.80505e-316
4.06796e-316
3.57596e-316
3.07999e-316
2.58943e-316
3.07944e-316
3.32992e-316
4.06761e-316
-6.27789e-316
-1.07068e-315
-1.78419e-315
-1.9072e-315
-1.0215e-315
-4.80207e-316
-2.58893e-316
-1.6118e-316
-1.35969e-316
-1.12699e-316
-1.35789e-316
-1.37016e-316
-1.61399e-316
-2.09172e-316
-2.33768e-316
-2.34716e-316
-2.58915e-316
-2.83018e-316
-2.83435e-316
2.83752e-316
-3.07667e-316
-3.07872e-316
-3.07952e-316
-3.07938e-316
-3.07923e-316
-3.07909e-316
-3.07894e-316
-3.07881e-316
-3.07869e-316
-3.07859e-316
-3.0785e-316
-3.07843e-316
-3.07837e-316
-3.07834e-316
-3.07832e-316
-3.07831e-316
-3.07832e-316
-3.07835e-316
-3.07839e-316
-3.07844e-316
-3.07851e-316
-3.07859e-316
-3.07868e-316
-3.07879e-316
-3.0789e-316
-3.07903e-316
-3.07917e-316
-3.07932e-316
3.07947e-316
3.07963e-316
3.0798e-316
3.07997e-316
3.08015e-316
3.08031e-316
3.08049e-316
3.08066e-316
3.08083e-316
3.08099e-316
3.08115e-316
3.0813e-316
3.08145e-316
3.0816e-316
3.08173e-316
3.08187e-316
3.082e-316
3.08215e-316
3.08231e-316
3.08245e-316
9.7409e-316
9.0373e-316
7.39516e-316
6.22076e-316
5.05e-316
4.57541e-316
3.87369e-316
3.17274e-316
2.7073e-316
2.9405e-316
3.4062e-316
4.11086e-316
5.75204e-316
-9.03463e-316
-1.41944e-315
-1.63042e-315
-1.0207e-315
-5.28044e-316
-2.93548e-316
-1.77167e-316
-1.5255e-316
-1.29747e-316
-1.29889e-316
-1.52579e-316
-1.53911e-316
-1.99449e-316
-2.2296e-316
-2.46325e-316
-2.47079e-316
-2.70127e-316
2.70557e-316
-2.93456e-316
2.9373e-316
2.93895e-316
2.93936e-316
2.93931e-316
2.93924e-316
2.93914e-316
2.93905e-316
2.93896e-316
2.93888e-316
2.9388e-316
2.93874e-316
2.93869e-316
2.93865e-316
2.93863e-316
2.93863e-316
2.93864e-316
2.93866e-316
2.9387e-316
2.93876e-316
2.93882e-316
2.9389e-316
2.939e-316
2.93911e-316
2.93923e-316
2.93936e-316
2.9395e-316
2.93965e-316
2.93981e-316
2.93998e-316
2.94016e-316
2.94034e-316
2.94052e-316
2.94071e-316
2.9409e-316
3.16732e-316
3.16753e-316
3.16772e-316
3.16791e-316
3.1681e-316
3.16828e-316
3.16845e-316
3.16861e-316
3.16877e-316
3.16893e-316
3.1691e-316
3.16928e-316
3.16946e-316
3.16961e-316
9.06193e-316
9.06111e-316
7.71927e-316
6.37786e-316
5.2612e-316
4.59096e-316
4.13882e-316
3.4684e-316
3.02402e-316
3.0265e-316
3.46954e-316
4.14061e-316
5.48213e-316
-7.94123e-316
-1.17404e-315
1.35291e-315
9.72914e-316
5.48163e-316
3.24373e-316
2.12598e-316
1.46543e-316
1.2447e-316
1.24317e-316
1.45737e-316
1.67815e-316
1.90216e-316
2.12656e-316
2.34993e-316
2.57193e-316
2.57792e-316
2.79748e-316
2.80105e-316
3.01936e-316
3.02063e-316
3.02073e-316
3.02077e-316
3.02076e-316
3.02073e-316
3.02068e-316
3.02062e-316
3.02057e-316
3.02052e-316
3.02048e-316
3.02045e-316
3.02044e-316
3.02043e-316
3.02045e-316
3.02047e-316
3.02052e-316
3.02058e-316
3.02065e-316
3.02074e-316
3.02084e-316
3.02096e-316
3.02109e-316
3.02123e-316
3.02139e-316
3.02155e-316
3.02173e-316
3.02192e-316
3.02211e-316
3.02232e-316
3.02253e-316
3.02274e-316
3.02296e-316
3.02318e-316
3.02339e-316
3.02361e-316
3.02382e-316
3.02403e-316
3.02423e-316
3.02442e-316
3.0246e-316
3.02478e-316
3.02495e-316
3.02512e-316
3.02531e-316
3.2416e-316
3.24181e-316
3.24197e-316
8.63527e-316
8.84954e-316
7.7844e-316
6.716e-316
5.65075e-316
5.0103e-316
4.37072e-316
3.73154e-316
3.3069e-316
3.30668e-316
3.52113e-316
4.15932e-316
5.43499e-316
-7.35345e-316
1.01227e-315
1.16141e-315
9.26993e-316
5.64938e-316
3.30907e-316
2.2415e-316
1.60695e-316
1.39252e-316
1.38847e-316
1.39265e-316
1.60166e-316
1.81447e-316
2.02836e-316
2.24169e-316
2.45385e-316
2.66488e-316
2.66965e-316
2.87886e-316
2.8811e-316
2.88181e-316
2.88202e-316
2.88214e-316
2.8822e-316
2.88222e-316
2.88222e-316
2.88221e-316
2.88219e-316
2.88218e-316
2.88216e-316
2.88216e-316
2.88216e-316
2.88218e-316
2.88222e-316
2.88226e-316
2.88232e-316
2.8824e-316
2.88248e-316
2.88259e-316
2.8827e-316
2.88284e-316
2.88298e-316
2.88314e-316
2.88331e-316
2.88349e-316
2.88368e-316
2.88388e-316
2.88409e-316
2.8843e-316
3.09057e-316
3.09081e-316
3.09106e-316
3.0913e-316
3.09156e-316
3.09179e-316
3.09204e-316
3.09227e-316
3.0925e-316
3.09272e-316
3.09293e-316
3.09314e-316
3.09333e-316
3.09354e-316
3.09373e-316
3.09396e-316
3.09415e-316
3.09434e-316
8.22792e-316
8.83665e-316
8.02511e-316
6.80763e-316
5.79264e-316
5.18192e-316
4.77155e-316
3.96358e-316
3.55782e-316
3.55606e-316
3.75927e-316
4.16814e-316
5.18205e-316
-6.80514e-316
8.83527e-316
1.00525e-315
8.62969e-316
5.58744e-316
3.55676e-316
2.34078e-316
1.73268e-316
1.5252e-316
1.32915e-316
1.33116e-316
1.5291e-316
1.73113e-316
1.93479e-316
2.13833e-316
2.34096e-316
-2.54255e-316
2.74325e-316
2.74676e-316
2.94469e-316
2.94518e-316
2.94551e-316
2.94571e-316
2.94584e-316
2.94592e-316
2.94597e-316
2.946e-316
2.94602e-316
2.94603e-316
2.94604e-316
2.94606e-316
2.94609e-316
2.94613e-316
2.94619e-316
2.94625e-316
2.94634e-316
2.94643e-316
2.94654e-316
2.94667e-316
2.94681e-316
2.94697e-316
2.94714e-316
2.94732e-316
2.94751e-316
2.94772e-316
2.94794e-316
2.94817e-316
2.9484e-316
1.23843e-315
1.09306e-314
9.862e-314
9.14948e-313
8.76732e-312
8.69728e-311
8.95674e-310
9.589e-309
1.07043e-307
1.2473e-306
1.52243e-305
1.94893e-304
2.62761e-303
3.73803e-302
5.63746e-301
9.03811e-300
1.54876e-298
2.84764e-297
5.65196e-296
8.60376e-316
9.37791e-316
-8.03318e-316
6.87464e-316
6.09866e-316
5.32633e-316
4.93642e-316
4.3556e-316
3.96757e-316
3.77596e-316
3.96858e-316
4.35693e-316
5.32153e-316
6.48403e-316
8.03139e-316
8.99723e-316
8.02834e-316
5.51692e-316
3.58432e-316
2.42501e-316
1.84333e-316
1.46073e-316
1.45379e-316
1.45427e-316
1.4601e-316
1.65184e-316
1.84561e-316
2.22508e-316
2.41914e-316
2.61211e-316
2.61717e-316
2.80711e-316
2.80817e-316
9.15658e-315
1.98571e-313
3.41985e-312
4.98955e-311
6.42027e-310
7.40845e-309
7.97084e-308
8.03082e-307
7.6618e-306
6.98296e-305
6.12414e-304
5.19952e-303
4.29581e-302
3.46918e-301
2.74934e-300
2.14576e-299
1.65456e-298
1.26419e-297
9.59808e-297
7.26006e-296
5.48541e-295
4.15028e-294
3.15265e-293
2.41057e-292
1.86042e-291
1.4533e-290
1.15256e-289
9.30824e-289
7.67994e-288
6.49458e-287
5.64682e-286
5.06422e-285
4.69701e-284
4.51869e-283
4.51746e-282
4.70603e-281
5.11471e-280
5.81638e-279
6.92816e-278
8.67416e-277
1.14325e-275
1.59291e-274
2.35183e-273
3.69744e-272
6.21226e-271
1.12168e-269
2.18755e-268
-6.66613e-309
9.11766e-316
7.83889e-316
7.10115e-316
6.18084e-316
5.62682e-316
5.25632e-316
4.88387e-316
4.33221e-316
4.14832e-316
4.33108e-316
4.7002e-316
5.25582e-316
6.36048e-316
7.64927e-316
8.20273e-316
7.46417e-316
5.43928e-316
3.78007e-316
2.67363e-316
1.93976e-316
1.57281e-316
1.39089e-316
1.39009e-316
1.56862e-316
1.75148e-316
1.93665e-316
2.12231e-316
2.30742e-316
-2.49159e-316
2.65835e-298
2.97487e-296
1.10452e-294
2.62005e-293
4.74588e-292
7.1354e-291
9.34233e-290
1.08924e-288
1.17456e-287
1.18e-286
1.1178e-285
1.00783e-284
8.71538e-284
7.27448e-283
5.8921e-282
4.65249e-281
3.59589e-280
2.73012e-279
2.04275e-278
1.5107e-277
1.10728e-276
8.06419e-276
5.85006e-275
4.23725e-274
3.07169e-273
2.23398e-272
1.63415e-271
1.20543e-270
8.99244e-270
6.8044e-269
5.23963e-268
4.12007e-267
3.32017e-266
2.75228e-265
2.35519e-264
2.08801e-263
1.92331e-262
1.84636e-261
1.85064e-260
1.94175e-259
2.13494e-258
2.46623e-257
2.9964e-256
3.84132e-255
5.20548e-254
7.48708e-253
1.14649e-251
1.87847e-250
3.30904e-249
6.30415e-248
-1.01797e-292
-8.85984e-316
7.81741e-316
7.11645e-316
6.41419e-316
5.88694e-316
5.70812e-316
5.18105e-316
4.65438e-316
4.47816e-316
4.47927e-316
4.82976e-316
5.53023e-316
6.40774e-316
7.28599e-316
7.63768e-316
6.9353e-316
5.35569e-316
3.77697e-316
2.72324e-316
2.02285e-316
1.67151e-316
1.49645e-316
1.49463e-316
1.49797e-316
1.67149e-316
1.84745e-316
2.0242e-316
2.36993e-316
7.29778e-283
1.02552e-279
4.96055e-278
1.31529e-276
2.51951e-275
3.89981e-274
5.1774e-273
6.07175e-272
6.5339e-271
6.51948e-270
6.11036e-269
5.43366e-268
4.62156e-267
3.78455e-266
3.00035e-265
2.31369e-264
1.74257e-263
1.28642e-262
9.33856e-262
6.68548e-261
4.7325e-260
3.32059e-259
2.31477e-258
1.60665e-257
1.11274e-256
7.7064e-256
5.34869e-255
3.72878e-254
2.61743e-253
1.85488e-252
1.33096e-251
9.70138e-251
7.20923e-250
5.4836e-249
4.28757e-248
3.46175e-247
2.89882e-246
2.52856e-245
2.30558e-244
2.2047e-243
2.21537e-242
2.34377e-241
2.61304e-240
3.0748e-239
3.82279e-238
5.03297e-237
7.03323e-236
1.04699e-234
1.66754e-233
2.85615e-232
5.29554e-231
-4.48827e-274
-3.29602e-280
-8.77238e-316
-7.27875e-316
6.77623e-316
6.27457e-316
-5.94057e-316
-5.76874e-316
-5.10123e-316
-4.93246e-316
-4.93257e-316
-5.10118e-316
-5.60257e-316
-6.27148e-316
-7.10558e-316
7.27352e-316
6.60486e-316
5.2671e-316
3.76481e-316
2.7615e-316
2.09354e-316
1.7576e-316
1.58949e-316
1.42816e-316
1.58935e-316
1.59514e-316
1.76234e-316
-2.0914e-316
2.26007e-316
-2.65327e-274
-2.04313e-272
-6.34903e-271
-1.30866e-269
-2.09782e-268
-2.827e-267
-3.33147e-266
-3.57341e-265
-3.53848e-264
-3.28132e-263
-2.8808e-262
-2.41485e-261
-1.9461e-260
-1.51624e-259
-1.14754e-258
-8.47043e-258
-6.11942e-257
-4.34021e-256
-3.03043e-255
-2.08813e-254
-1.42316e-253
-9.61374e-253
-6.4495e-252
-4.30486e-251
-2.86409e-250
-1.90277e-249
-1.26464e-248
-8.42493e-248
-5.63763e-247
-3.79799e-246
-2.58277e-245
-1.77829e-244
-1.24409e-243
-8.88087e-243
-6.50038e-242
-4.90625e-241
-3.84191e-240
-3.14142e-239
-2.69799e-238
-2.44624e-237
-2.34899e-236
-2.39324e-235
-2.5868e-234
-2.96521e-233
-3.60095e-232
-4.63407e-231
-6.32392e-230
-9.17633e-229
-1.42092e-227
-2.3616e-226
-4.24197e-225
-3.52863e-250
-7.31805e-274
-3.46347e-303
7.25109e-316
6.93141e-316
6.61187e-316
6.29423e-316
6.28888e-316
5.65268e-316
5.33425e-316
5.33352e-316
5.49314e-316
5.81261e-316
6.44818e-316
6.92598e-316
6.92688e-316
6.29002e-316
5.01749e-316
3.74458e-316
2.78941e-316
2.15272e-316
1.83188e-316
1.51885e-316
1.51589e-316
1.51749e-316
1.67443e-316
1.83391e-316
1.9945e-316
-2.27705e-272
-4.60604e-270
-1.74532e-268
-3.83316e-267
-6.17386e-266
-8.09876e-265
-9.16879e-264
-9.22829e-263
-8.55635e-262
-7.38731e-261
-6.0137e-260
-4.66022e-259
-3.46442e-258
-2.48604e-257
-1.73108e-256
-1.17474e-255
-7.79872e-255
-5.08115e-254
-3.25843e-253
-2.06183e-252
-1.29032e-251
-8.00279e-251
-4.92863e-250
-3.01941e-249
-1.84321e-248
-1.12298e-247
-6.83936e-247
-4.17027e-246
-2.54987e-245
-1.56594e-244
-9.67625e-244
-6.02747e-243
-3.79323e-242
-2.41774e-241
-1.56539e-240
-1.03322e-239
-6.98151e-239
-4.85449e-238
-3.49371e-237
-2.62032e-236
-2.06175e-235
-1.71371e-234
-1.51224e-233
-1.42252e-232
-1.42786e-231
-1.53011e-230
-1.74794e-229
-2.12797e-228
-2.7597e-227
-3.81922e-226
-5.6565e-225
-9.00913e-224
-1.02813e-193
-1.12038e-257
-1.72271e-278
-8.5602e-316
-7.05565e-316
-6.90238e-316
-6.75038e-316
-6.89639e-316
-6.29033e-316
-5.83652e-316
-5.68546e-316
-5.83658e-316
-6.1397e-316
-6.59384e-316
-6.8972e-316
-6.74664e-316
-6.13976e-316
-4.92854e-316
-3.71717e-316
-2.8079e-316
-2.20127e-316
-1.89514e-316
-1.59584e-316
-1.59249e-316
-1.59353e-316
-1.59775e-316
1.89502e-316
2.04825e-316
-4.6984e-268
-2.4037e-266
-5.91567e-265
-9.88389e-264
-1.28999e-262
-1.41749e-261
-1.36311e-260
-1.19531e-259
-9.68796e-259
-7.36126e-258
-5.29985e-257
-3.64632e-256
-2.41381e-255
-1.54646e-254
-9.63595e-254
-5.8645e-253
-3.49902e-252
-2.05332e-251
-1.18848e-250
-6.8022e-250
-3.85835e-249
-2.17337e-248
-1.21798e-247
-6.80249e-247
-3.79226e-246
-2.11345e-245
-1.17913e-244
-6.59509e-244
-3.70302e-243
-2.09013e-242
-1.18762e-241
-6.80328e-241
-3.93541e-240
-2.30291e-239
-1.36608e-238
-8.23443e-238
-5.05876e-237
-3.17854e-236
-2.05184e-235
-1.36787e-234
-9.47921e-234
-6.87592e-233
-5.2619e-232
-4.27715e-231
-3.71581e-230
-3.46132e-229
-3.4633e-228
-3.71924e-227
-4.28297e-226
-5.28409e-225
-6.98544e-224
-9.91745e-223
-2.69898e-189
-5.51397e-249
-6.9773e-270
-8.72629e-316
-7.29442e-316
-7.14948e-316
-7.14835e-316
-7.28869e-316
-6.8546e-316
-6.42164e-316
-6.27697e-316
-6.27741e-316
-6.42234e-316
-6.71071e-316
-6.85518e-316
-6.56764e-316
-5.84664e-316
-4.83624e-316
-3.82501e-316
-2.81783e-316
-2.24003e-316
-1.94815e-316
-1.66225e-316
-1.52045e-316
-1.52098e-316
1.66299e-316
1.8074e-316
-3.10611e-266
-2.28586e-264
-6.5476e-263
-1.16926e-261
-1.5401e-260
-1.66472e-259
-1.54275e-258
-1.28759e-257
-9.85155e-257
-7.02667e-256
-4.72871e-255
-3.02999e-254
-1.86192e-253
-1.10377e-252
-6.34438e-252
-3.55157e-251
-1.94399e-250
-1.04417e-249
-5.52151e-249
-2.88298e-248
-1.49032e-247
-7.64586e-247
-3.90142e-246
-1.98393e-245
-1.00718e-244
-5.11291e-244
-2.59932e-243
-1.32522e-242
-6.7846e-242
-3.49233e-241
-1.80965e-240
-9.4513e-240
-4.9813e-239
-2.6528e-238
-1.42945e-237
-7.80531e-237
-4.32625e-236
-2.43889e-235
-1.40181e-234
-8.23882e-234
-4.96987e-233
-3.09093e-232
-1.99349e-231
-1.34226e-230
-9.51069e-230
-7.14918e-229
-5.74618e-228
-4.96761e-227
-4.63596e-226
-4.6749e-225
-5.08875e-224
-5.97254e-223
-7.55001e-222
-2.7912e-164
-1.65315e-231
-2.01527e-251
-3.57357e-276
8.71965e-316
-8.58246e-316
-8.30961e-316
-8.30803e-316
-7.62258e-316
-7.0736e-316
-6.79914e-316
-6.79869e-316
-6.79965e-316
-6.93696e-316
-6.93704e-316
-6.52596e-316
-5.83876e-316
-4.87656e-316
-3.77876e-316
-2.95426e-316
-2.26977e-316
1.99166e-316
1.71878e-316
1.58319e-316
1.5834e-316
1.71865e-316
-2.01824e-264
-1.71769e-262
-5.68799e-261
-1.11724e-259
-1.55329e-258
-1.69441e-257
-1.53983e-256
-1.23588e-255
-8.97309e-255
-6.02053e-254
-3.78995e-253
-2.26316e-252
-1.29267e-251
-7.10797e-251
-3.78231e-250
-1.95618e-249
-9.87095e-249
-4.87613e-248
-2.36551e-247
-1.13026e-246
-5.33392e-246
-2.49273e-245
-1.15654e-244
-5.33972e-244
-2.45876e-243
-1.13143e-242
-5.21284e-242
-2.40872e-241
-1.11799e-240
-5.21967e-240
-2.45453e-239
-1.16395e-238
-5.57249e-238
-2.69643e-237
-1.3202e-236
-6.5476e-236
-3.29329e-235
-1.68202e-234
-8.73576e-234
-4.62121e-233
-2.49481e-232
-1.37786e-231
-7.80824e-231
-4.55796e-230
-2.75392e-229
-1.73299e-228
-1.14421e-227
-7.99549e-227
-5.96567e-226
-4.79252e-225
-4.17005e-224
-3.94339e-223
-4.05287e-222
-4.52264e-221
-3.01428e-151
-3.82532e-218
-4.38838e-243
-3.23066e-268
8.03248e-306
9.08336e-316
9.08375e-316
9.0832e-316
8.43077e-316
7.90748e-316
7.51583e-316
7.38503e-316
7.38487e-316
7.38481e-316
7.25392e-316
6.73169e-316
5.94712e-316
4.90154e-316
3.85626e-316
-1.77294e-276
-1.1798e-273
-1.49002e-271
-2.21692e-269
-5.25228e-267
-1.36866e-264
-1.84633e-262
-1.16688e-260
-4.00233e-259
-8.58769e-258
-1.28925e-256
-1.47631e-255
-1.36774e-254
-1.09117e-253
-7.71872e-253
-4.93576e-252
-2.94699e-251
-1.65475e-250
-8.83039e-250
-4.51489e-249
-2.22614e-248
-1.0641e-247
-4.95279e-247
-2.25301e-246
-1.00491e-245
-4.40737e-245
-1.90568e-244
-8.14315e-244
-3.44688e-243
-1.44855e-242
-6.05744e-242
-2.52607e-241
-1.05278e-240
-4.3941e-240
-1.84035e-239
-7.74879e-239
-3.28563e-238
-1.40519e-237
-6.07019e-237
-2.65204e-236
-1.17323e-235
-5.2612e-235
-2.39407e-234
-1.10657e-233
-5.20066e-233
-2.48797e-232
-1.21296e-231
-6.03468e-231
-3.06863e-230
-1.59803e-229
-8.54296e-229
-4.70338e-228
-2.67743e-227
-1.58441e-226
-9.81134e-226
-6.41086e-225
-4.46153e-224
-3.33958e-223
-2.71151e-222
-2.4026e-221
-2.32864e-220
-7.86302e-150
-1.19963e-204
-3.63734e-215
-1.8959e-245
3.26433e-275
-3.15603e-296
-7.62758e-297
-4.34802e-298
-2.2607e-298
-1.71945e-298
-1.5416e-298
-1.56473e-298
-1.70958e-298
-1.82225e-298
-1.60437e-298
-9.43611e-299
-3.01174e-299
-4.25559e-300
-4.76222e-271
-2.12428e-268
-8.71926e-267
-3.00779e-265
-1.11473e-263
-4.64517e-262
-2.01009e-260
-7.72356e-259
-2.29837e-257
-5.00105e-256
-8.01586e-255
-9.83386e-254
-9.61444e-253
-7.9232e-252
-5.67492e-251
-3.63574e-250
-2.1294e-249
-1.1512e-248
-5.89309e-248
-2.86488e-247
-1.33269e-246
-5.96952e-246
-2.5885e-245
-1.09164e-244
-4.49569e-244
-1.8146e-243
-7.2015e-243
-2.81826e-242
-1.09037e-241
-4.1805e-241
-1.59183e-240
-6.03235e-240
-2.27968e-239
-8.60862e-239
-3.25484e-238
-1.23462e-237
-4.70771e-237
-1.80803e-236
-7.00703e-236
-2.74519e-235
-1.089e-234
-4.38089e-234
-1.78957e-233
-7.43226e-233
-3.14156e-232
-1.35288e-231
-5.94122e-231
-2.66321e-230
-1.21978e-229
-5.71447e-229
-2.74192e-228
-1.34952e-227
-6.82661e-227
-3.55805e-226
-1.91712e-225
-1.07252e-224
-6.26619e-224
-3.85184e-223
-2.51411e-222
-1.76073e-221
-1.33689e-220
-1.11031e-219
-1.05623e-148
-2.83116e-151
-2.20648e-201
-1.63378e-213
-1.88689e-253
-6.25845e-265
-2.73524e-265
-8.16179e-266
-4.32431e-266
-3.29461e-266
-2.82576e-266
-2.59227e-266
-2.38898e-266
-1.99633e-266
-1.30179e-266
-5.51606e-267
-1.24108e-267
-1.12299e-268
-2.52718e-265
-8.92976e-264
-1.96527e-262
-4.06378e-261
-8.87252e-260
-2.08677e-258
-5.05638e-257
-1.15806e-255
-2.29231e-254
-3.69927e-253
-4.77987e-252
-5.00207e-251
-4.32811e-250
-3.22669e-249
-2.1198e-248
-1.25605e-247
-6.83634e-247
-3.46572e-246
-1.65398e-245
-7.44436e-245
-3.22187e-244
-1.33972e-243
-5.37827e-243
-2.09338e-242
-7.93148e-242
-2.93592e-241
-1.06544e-240
-3.80275e-240
-1.33902e-239
-4.66465e-239
-1.61195e-238
-5.53916e-238
-1.89715e-237
-6.4901e-237
-2.22228e-236
-7.63131e-236
-2.63342e-235
-9.14965e-235
-3.20711e-234
-1.13629e-233
-4.07732e-233
-1.48445e-232
-5.49325e-232
-2.06947e-231
-7.94855e-231
-3.11652e-230
-1.2488e-229
-5.1191e-229
-2.14862e-228
-9.24247e-228
-4.07811e-227
-1.84772e-226
-8.60636e-226
-4.12755e-225
-2.04212e-224
-1.04506e-223
-5.55129e-223
-3.07567e-222
-1.78885e-221
-1.10142e-220
-7.25399e-220
-5.16921e-219
-9.96401e-148
-2.53096e-149
-3.29615e-192
-3.72955e-199
-1.62636e-205
-1.3537e-212
-8.37065e-213
-3.69226e-214
-2.09862e-214
-1.60071e-214
-1.30035e-214
-1.06478e-214
-8.20655e-215
-5.37742e-215
-2.60728e-215
-7.86663e-216
-1.17352e-216
-5.14318e-218
-2.57062e-261
-4.96724e-260
-7.70772e-259
-1.16655e-257
-1.84675e-256
-3.09139e-255
-5.30597e-254
-8.80673e-253
-1.32446e-251
-1.71725e-250
-1.87453e-249
-1.71446e-248
-1.34612e-247
-9.22549e-247
-5.63928e-246
-3.13358e-245
-1.60744e-244
-7.70394e-244
-3.48165e-243
-1.49442e-242
-6.09032e-242
-2.39636e-241
-9.08673e-241
-3.33287e-240
-1.18643e-239
-4.1123e-239
-1.39209e-238
-4.61651e-238
-1.50413e-237
-4.82903e-237
-1.53201e-236
-4.81636e-236
-1.50454e-235
-4.68249e-235
-1.45554e-234
-4.53019e-234
-1.41498e-233
-4.44537e-233
-1.40773e-232
-4.50308e-232
-1.45807e-231
-4.78877e-231
-1.59853e-230
-5.43419e-230
-1.88484e-229
-6.68199e-229
-2.42501e-228
-9.02185e-228
-3.44492e-227
-1.35146e-226
-5.45203e-226
-2.26362e-225
-9.68049e-225
-4.26818e-224
-1.94239e-223
-9.13711e-223
-4.45179e-222
-2.25271e-221
-1.18854e-220
-6.57362e-220
-3.83957e-219
-2.3914e-218
-7.48252e-147
-3.74594e-148
-2.19492e-150
-1.47992e-190
-3.52581e-190
-3.40046e-190
-2.27418e-190
-1.27902e-190
-8.5985e-191
-6.64667e-191
-5.10353e-191
-3.70277e-191
-2.36888e-191
-1.20927e-191
-4.2998e-192
-8.83392e-193
-7.51439e-194
-1.75362e-196
-6.31487e-258
-8.78832e-257
-1.07849e-255
-1.31218e-254
-1.65855e-253
-2.19187e-252
-2.95871e-251
-3.90456e-250
-4.79017e-249
-5.23891e-248
-4.96738e-247
-4.093e-246
-2.94384e-245
-1.87636e-244
-1.07798e-243
-5.67027e-243
-2.76687e-242
-1.26558e-241
-5.47043e-241
-2.24872e-240
-8.83539e-240
-3.31338e-239
-1.20339e-238
-4.22309e-238
-1.43615e-237
-4.74545e-237
-1.52755e-236
-4.80207e-236
-1.47799e-235
-4.46466e-235
-1.32702e-234
-3.89074e-234
-1.1282e-233
-3.24391e-233
-9.27377e-233
-2.64308e-232
-7.53047e-232
-2.15057e-231
-6.17265e-231
-1.78527e-230
-5.21632e-230
-1.54356e-229
-4.637e-229
-1.41751e-228
-4.41964e-228
-1.40858e-227
-4.59859e-227
-1.54089e-226
-5.30876e-226
-1.88353e-225
-6.8912e-225
-2.60283e-224
-1.01019e-223
-4.07133e-223
-1.69761e-222
-7.32957e-222
-3.28015e-221
-1.52377e-220
-7.36268e-220
-3.71155e-219
-1.96053e-218
-1.0919e-217
-4.72882e-146
-3.50446e-147
-1.10877e-148
-1.10129e-157
1.99631e-163
1.58171e-173
7.06927e-183
-4.51734e-187
-5.61114e-187
-2.97986e-186
-4.22657e-186
-3.99213e-186
-2.71984e-186
-1.27158e-186
-3.60907e-187
-4.92538e-188
-1.39758e-189
-3.464e-196
-6.18998e-255
-6.93043e-254
-7.16525e-253
-7.40146e-252
-7.89838e-251
-8.74199e-250
-9.84942e-249
-1.09124e-247
-1.14155e-246
-1.08482e-245
-9.21189e-245
-6.91563e-244
-4.60854e-243
-2.75613e-242
-1.49924e-241
-7.51497e-241
-3.51024e-240
-1.54186e-239
-6.4145e-239
-2.54178e-238
-9.63672e-238
-3.50879e-237
-1.22457e-236
-4.14927e-236
-1.36166e-235
-4.33807e-235
-1.34466e-234
-4.06392e-234
-1.20002e-233
-3.4693e-233
-9.83984e-233
-2.74369e-232
-7.53704e-232
-2.04427e-231
-5.48697e-231
-1.46088e-230
-3.86778e-230
-1.02095e-229
-2.69409e-229
-7.12709e-229
-1.89563e-228
-5.08415e-228
-1.3791e-227
-3.79464e-227
-1.06222e-226
-3.03367e-226
-8.86407e-226
-2.65679e-225
-8.14075e-225
-2.58405e-224
-8.46986e-224
-2.87166e-223
-1.00843e-222
-3.67763e-222
-1.39241e-221
-5.47714e-221
-2.23968e-220
-9.52721e-220
-4.2199e-219
-1.94898e-218
-9.4071e-218
-4.76097e-217
-6.97785e-141
-6.62273e-142
-4.31631e-143
-1.20878e-144
-2.64681e-154
-7.71933e-160
-3.64194e-159
-3.6776e-161
3.44679e-162
4.36407e-162
3.53443e-162
2.01226e-162
8.01162e-163
2.1023e-163
3.07304e-164
1.47882e-165
-2.52991e-189
-5.63322e-196
-3.03105e-252
-2.90002e-251
-2.62859e-250
-2.38889e-249
-2.23209e-248
-2.14949e-247
-2.10058e-246
-2.02499e-245
-1.8619e-244
-1.58003e-243
-1.21794e-242
-8.43442e-242
-5.2554e-241