/*--------------------------------*- C++ -*----------------------------------*\
  =========                 |
  \\      /  F ield         | OpenFOAM: The Open Source CFD Toolbox
   \\    /   O peration     | Website:  https://openfoam.org
    \\  /    A nd           | Version:  7
     \\/     M anipulation  |
\*---------------------------------------------------------------------------*/
FoamFile
{
    version     2.0;
    format      ascii;
    class       surfaceScalarField;
    location    "35";
    object      alphaPhi;
}
// * * * * * * * * * * * * * * * * * * * * * * * * * * * * * * * * * * * * * //

dimensions      [0 3 -1 0 0 0 0];

internalField   nonuniform List<scalar> 
99520
(
0
0
0
0
0
0
0
0
0
0
0
0
0
0
0
0
0
0
0
0
0
0
0
0
0
0
0
0
0
0
0
0
0
0
0
0
0
0
0
0
0
0
0
0
0
0
0
0
0
0
0
0
0
0
0
0
0
0
0
0
0
0
0
0
0
0
0
0
0
0
0
0
0
0
0
0
0
0
0
0
0
0
0
0
0
0
0
0
0
0
0
0
0
0
0
0
0
0
0
0
0
0
0
0
0
0
0
0
0
0
0
0
0
0
0
0
0
0
0
0
0
0
0
0
0
0
0
0
0
0
0
0
0
0
0
0
0
0
0
0
0
0
0
0
0
0
0
0
0
0
0
0
0
0
0
0
0
0
0
0
0
0
0
0
0
0
0
0
0
0
0
0
0
0
0
0
0
0
0
0
0
0
0
0
0
0
0
0
0
0
0
0
0
0
0
0
0
0
0
0
0
0
0
0
0
0
0
0
0
0
0
0
0
0
0
0
0
0
0
0
0
0
0
0
0
0
0
0
0
0
0
0
0
0
0
0
0
0
0
0
0
0
0
0
0
0
0
0
0
0
0
0
0
0
0
0
0
0
0
0
0
0
0
0
0
0
0
0
0
0
0
0
0
0
0
0
0
0
0
0
0
0
0
0
0
0
0
0
0
0
0
0
0
0
0
0
0
0
0
0
0
0
0
0
0
0
0
0
0
0
0
0
0
0
0
0
0
0
0
0
0
0
0
0
0
0
0
0
0
0
0
0
0
0
0
0
0
0
0
0
0
0
0
0
0
0
0
0
0
0
0
0
0
0
0
0
0
0
0
0
0
0
0
0
0
0
0
0
0
0
0
0
0
0
0
0
0
0
0
0
0
0
0
0
0
0
0
0
0
0
0
0
0
0
0
0
0
0
0
0
0
0
0
0
0
0
0
0
0
0
0
0
0
0
0
0
0
0
0
0
0
0
0
0
0
0
0
0
0
0
0
0
0
0
0
0
0
0
0
0
0
0
0
0
0
0
0
0
0
0
0
0
0
0
0
0
0
0
0
0
0
0
0
0
0
0
0
0
0
0
0
0
0
0
0
0
0
0
0
0
0
0
0
0
0
0
0
0
0
0
0
0
0
0
0
0
0
0
0
0
0
0
0
0
0
0
0
0
0
0
0
0
0
0
0
0
0
0
0
0
0
0
0
0
0
0
0
0
0
0
0
0
0
0
0
0
0
0
0
0
0
0
0
0
0
0
0
0
0
0
0
0
0
0
0
0
0
0
0
0
0
0
0
0
0
0
0
0
0
0
0
0
0
0
0
0
0
0
0
0
0
0
0
0
0
0
0
0
0
0
0
0
0
0
0
0
0
0
0
0
0
0
0
0
0
0
0
0
0
0
0
0
0
0
0
0
0
0
0
0
0
0
0
0
0
0
0
0
0
0
0
0
0
0
0
0
0
0
0
0
0
0
0
0
0
0
0
0
0
0
0
0
0
0
0
0
0
0
0
0
0
0
0
0
0
0
0
0
0
0
0
0
0
0
0
0
0
0
0
0
0
0
0
0
0
0
0
0
0
0
0
0
0
0
0
0
0
0
0
0
0
0
0
0
0
0
0
0
0
0
0
0
0
0
0
0
0
0
0
0
0
0
0
0
0
0
0
0
0
0
0
0
0
0
0
0
0
0
0
0
0
0
0
0
0
0
0
0
0
0
0
0
0
0
0
0
0
0
0
0
0
0
0
0
0
0
0
0
0
0
0
0
0
0
0
0
0
0
0
0
0
0
0
0
0
0
0
0
0
0
0
0
0
0
0
0
0
0
0
0
0
0
0
0
0
0
0
0
0
0
0
0
0
0
0
0
0
0
0
0
0
0
0
0
0
0
0
0
0
0
0
0
0
0
0
0
0
0
0
0
0
0
0
0
0
0
0
0
0
0
0
0
0
0
0
0
0
0
0
0
0
0
0
0
0
0
0
0
0
0
0
0
0
0
0
0
0
0
0
0
0
0
0
0
0
0
0
0
0
0
0
0
0
0
0
0
0
0
0
0
0
0
0
0
0
0
0
0
0
0
0
0
0
0
0
0
0
0
0
0
0
0
0
0
0
0
0
0
0
0
0
0
0
0
0
0
0
0
0
0
0
0
0
0
0
0
0
0
0
0
0
0
0
0
0
0
0
0
0
0
0
0
0
0
0
0
0
0
0
0
0
0
0
0
0
0
0
0
0
0
0
0
0
0
0
0
0
0
0
0
0
0
0
0
0
0
0
0
0
0
0
0
0
0
0
0
0
0
0
0
0
0
0
0
0
0
0
0
0
0
0
0
0
0
0
0
0
0
0
0
0
0
0
0
0
0
0
0
0
0
0
0
0
0
0
0
0
0
0
0
0
0
0
0
0
0
0
0
0
0
0
0
0
0
0
0
0
0
0
0
0
0
0
0
0
0
0
0
0
0
0
0
0
0
0
0
0
0
0
0
0
0
0
0
0
0
0
0
0
0
0
0
0
0
0
0
0
0
0
0
0
0
0
0
0
0
0
0
0
0
0
0
0
0
0
0
0
0
0
0
0
0
0
0
0
0
0
0
0
0
0
0
0
0
0
0
0
0
0
0
0
0
0
0
0
0
0
0
0
0
0
0
0
0
0
0
0
0
0
0
0
0
0
0
0
0
0
0
0
0
0
0
0
0
0
0
0
0
0
0
0
0
0
0
0
0
0
0
0
0
0
0
0
0
0
0
0
0
0
0
0
0
0
0
0
0
0
0
0
0
0
0
0
0
0
0
0
0
0
0
0
0
0
0
0
0
0
0
0
0
0
0
0
0
0
0
0
0
0
0
0
0
0
0
0
0
0
0
0
0
0
0
0
0
0
0
0
0
0
0
0
0
0
0
0
0
0
0
0
0
0
0
0
0
0
0
0
0
0
0
0
0
0
0
0
0
0
0
0
0
0
0
0
0
0
0
0
0
0
0
0
0
0
0
0
0
0
0
0
0
0
0
0
0
0
0
0
0
0
0
0
0
0
0
0
0
0
0
0
0
0
0
0
0
0
0
0
0
0
0
0
0
0
0
0
0
0
0
0
0
0
0
0
0
0
0
0
0
0
0
0
0
0
0
0
0
0
0
0
0
0
0
0
0
0
0
0
0
0
0
0
0
0
0
0
0
0
0
0
0
0
0
0
0
0
0
0
0
0
0
0
0
0
0
0
0
0
0
0
0
0
0
0
0
0
0
0
0
0
0
0
0
0
0
0
0
0
0
0
0
0
0
0
0
0
0
0
0
0
0
0
0
0
0
0
0
0
0
0
0
0
0
0
0
0
0
0
0
0
0
0
0
0
0
0
0
0
0
0
0
0
0
0
0
0
0
0
0
0
0
0
0
0
0
0
0
0
0
0
0
0
0
0
0
0
0
0
0
0
0
0
0
0
0
0
0
0
0
0
0
0
0
0
0
0
0
0
0
0
0
0
0
0
0
0
0
0
0
0
0
0
0
0
0
0
0
0
0
0
0
0
0
0
0
0
0
0
0
0
0
0
0
0
0
0
0
0
0
0
0
0
0
0
0
0
0
0
0
0
0
0
0
0
0
0
0
0
0
0
0
0
0
0
0
0
0
0
0
0
0
0
0
0
0
0
0
0
0
0
0
0
0
0
0
0
0
0
0
0
0
0
0
0
0
0
0
0
0
0
0
0
0
0
0
0
0
0
0
0
0
0
0
0
0
0
0
0
0
0
0
0
0
0
0
0
0
0
0
0
0
0
0
0
0
0
0
0
0
0
0
0
0
0
0
0
0
0
0
0
0
0
0
0
0
0
0
0
0
0
0
0
0
0
0
0
0
0
0
0
0
0
0
0
0
0
0
0
0
0
0
0
0
0
0
0
0
0
0
0
0
0
0
0
0
0
0
0
0
0
0
0
0
0
0
0
0
0
0
0
0
0
0
0
0
0
0
0
0
0
0
0
0
0
0
0
0
0
0
0
0
0
0
0
0
0
0
0
0
0
0
0
0
0
0
0
0
0
0
0
0
0
0
0
0
0
0
0
0
0
0
0
0
0
0
0
0
0
0
0
0
0
0
0
0
0
0
0
0
0
0
0
0
0
0
0
0
0
0
0
0
0
0
0
0
0
0
0
0
0
0
0
0
0
0
0
0
0
0
0
0
0
0
0
0
0
0
0
0
0
0
0
0
0
0
0
0
0
0
0
0
0
0
0
0
0
0
0
0
0
0
0
0
0
0
0
0
0
0
0
0
0
0
0
0
0
0
0
0
0
0
0
0
0
0
0
0
0
0
0
0
0
0
0
0
0
0
0
0
0
0
0
0
0
0
0
0
0
0
0
0
0
0
0
0
0
0
0
0
0
0
0
0
0
0
0
0
0
0
0
0
0
0
0
0
0
0
0
0
0
0
0
0
0
0
0
0
0
0
0
0
0
0
0
0
0
0
0
0
0
0
0
0
0
0
0
0
0
0
0
0
0
0
0
0
0
0
0
0
0
0
0
0
0
0
0
0
0
0
0
0
0
0
0
0
0
0
0
0
0
0
0
0
0
0
0
0
0
0
0
0
0
0
0
0
0
0
0
0
0
0
0
0
0
0
0
0
0
0
0
0
0
0
0
0
0
0
0
0
0
0
0
0
0
0
0
-4.94066e-324
9.88131e-324
-5.43472e-323
7.90505e-323
-4.84184e-322
7.16395e-322
-4.47623e-321
6.64518e-321
-4.28849e-320
6.36208e-320
-4.24941e-319
6.30754e-319
-4.37381e-318
6.49221e-318
-4.67832e-317
6.94784e-317
-5.21788e-316
7.75332e-316
-6.07772e-315
9.03254e-315
-7.40866e-314
1.10238e-313
-9.4868e-313
1.41118e-312
-1.27534e-311
1.90289e-311
-1.81163e-310
2.70753e-310
-2.71062e-309
4.08486e-309
-4.3188e-308
6.55094e-308
-7.31952e-307
1.12314e-306
-1.33957e-305
2.06599e-305
4.1033e-304
-2.61576e-304
0
0
0
0
0
0
0
0
0
0
0
0
0
0
0
0
0
0
0
0
0
0
0
0
0
0
0
0
0
0
0
0
0
0
0
0
0
0
0
0
0
0
0
0
0
0
0
0
0
0
0
0
0
0
0
0
0
0
0
0
0
0
0
0
0
0
0
-5.43472e-323
7.41098e-323
-1.14623e-321
1.58595e-321
-1.95897e-320
2.70155e-320
-2.84621e-319
3.90401e-319
-3.61784e-318
4.98296e-318
-4.20646e-317
5.71064e-317
-4.51929e-316
6.10778e-316
-4.54657e-315
6.12207e-315
-4.33224e-314
5.81416e-314
-3.9424e-313
5.27758e-313
-3.45222e-312
4.61158e-312
-2.92547e-311
3.90236e-311
-2.41204e-310
3.2143e-310
-1.94317e-309
2.58851e-309
-1.53582e-308
2.04605e-308
-1.19498e-307
1.59297e-307
-9.18316e-307
1.22549e-306
-6.99049e-306
9.34329e-306
-5.28606e-305
7.07917e-305
-3.98132e-304
5.34433e-304
-2.99458e-303
4.03051e-303
-2.25528e-302
3.04415e-302
-1.70517e-301
2.30856e-301
-1.29792e-300
1.76238e-300
-9.97343e-300
1.35813e-299
-7.76112e-299
1.05943e-298
-6.13363e-298
8.39087e-298
-4.94083e-297
6.76811e-297
-4.06751e-296
5.57778e-296
-3.43598e-295
4.71175e-295
-2.98453e-294
4.09277e-294
-2.67674e-293
3.66714e-293
-2.48184e-292
3.39863e-292
-2.3883e-291
3.2672e-291
-2.38669e-290
3.26446e-290
-2.48535e-289
3.39894e-289
-2.69903e-288
3.69277e-288
-3.06464e-287
4.19819e-287
-3.64661e-286
4.99993e-286
-4.55163e-285
6.25994e-285
-5.9889e-284
8.25123e-284
-8.29173e-283
1.14998e-282
-1.2188e-281
1.69831e-281
-1.89443e-280
2.67134e-280
-3.15923e-279
4.49007e-279
-5.648e-278
8.11255e-278
1.58323e-276
-1.08564e-276
0
-1.78931e-317
-2.13397e-318
0
0
0
0
0
0
0
0
0
0
0
0
0
0
0
0
0
0
0
0
0
0
0
0
0
0
0
0
0
0
0
0
0
0
0
0
0
0
0
0
0
0
0
0
0
0
0
0
0
0
0
0
0
0
0
0
0
0
-1.82887e-306
2.35586e-306
-1.93193e-304
2.54865e-304
-7.02176e-303
9.22336e-303
-1.64323e-301
2.14502e-301
-2.9502e-300
3.82509e-300
-4.40753e-299
5.67875e-299
-5.70137e-298
7.35773e-298
-6.67983e-297
8.50362e-297
-7.18775e-296
9.10111e-296
-7.20711e-295
9.08423e-295
-6.81664e-294
8.55649e-294
-6.13559e-293
7.67597e-293
-5.29716e-292
6.60803e-292
-4.41271e-291
5.49309e-291
-3.56656e-290
4.43267e-290
-2.80909e-289
3.48812e-289
-2.16499e-288
2.68738e-288
-1.63836e-287
2.03429e-287
-1.22138e-286
1.51787e-286
-8.99556e-286
1.11958e-285
-6.56355e-285
8.18561e-285
-4.75656e-284
5.94739e-284
-3.43222e-283
4.30476e-283
-2.47202e-282
3.1113e-282
-1.78152e-281
2.25087e-281
-1.28798e-280
1.63384e-280
-9.36562e-280
1.19295e-279
-6.86989e-279
8.78454e-279
-5.09787e-278
6.54244e-278
-3.84044e-277
4.94284e-277
-2.94615e-276
3.80068e-276
-2.31112e-275
2.98451e-275
-1.85938e-274
2.4021e-274
-1.54127e-273
1.98891e-273
-1.3194e-272
1.70021e-272
-1.17159e-271
1.5059e-271
-1.08059e-270
1.38599e-270
-1.03909e-269
1.32958e-269
-1.04235e-268
1.3319e-268
-1.09386e-267
1.39681e-267
-1.20203e-266
1.53528e-266
-1.38547e-265
1.7732e-265
-1.67964e-264
2.15422e-264
-2.14192e-263
2.76202e-263
-2.89004e-262
3.74354e-262
-4.11782e-261
5.38655e-261
-6.25725e-260
8.2515e-260
-1.01247e-258
1.35281e-258
-1.76691e-257
2.38461e-257
4.54693e-256
-3.30452e-256
0
-2.92092e-301
-2.7902e-302
0
0
0
0
0
0
0
0
0
0
0
0
0
0
0
0
0
0
0
0
0
0
0
0
0
0
0
0
0
0
0
0
0
0
0
0
0
0
0
0
0
0
0
0
0
0
0
0
0
0
0
0
0
0
0
0
-7.46094e-291
6.89436e-291
-7.35181e-288
9.23261e-288
-3.43973e-286
4.3061e-286
-8.9353e-285
1.1106e-284
-1.68873e-283
2.08246e-283
-2.58976e-282
3.16947e-282
-3.39476e-281
4.15085e-281
-3.99051e-280
4.81349e-280
-4.28181e-279
5.13102e-279
-4.26278e-278
5.07837e-278
-3.98843e-277
4.72629e-277
-3.54098e-276
4.17692e-276
-3.0071e-275
3.5331e-275
-2.45815e-274
2.87889e-274
-1.94497e-273
2.27207e-273
-1.49631e-272
1.74484e-272
-1.12388e-271
1.3091e-271
-8.27007e-271
9.62974e-271
-5.98117e-270
6.96714e-270
-4.26356e-269
4.97204e-269
-3.00344e-268
3.50907e-268
-2.09591e-267
2.45516e-267
-1.45226e-266
1.70686e-266
-1.00137e-265
1.18165e-265
-6.88629e-265
8.16382e-265
-4.73347e-264
5.64068e-264
-3.25972e-263
3.90622e-263
-2.25455e-262
2.71739e-262
-1.57019e-261
1.90364e-261
-1.1045e-260
1.34648e-260
-7.87139e-260
9.64427e-260
-5.70515e-259
7.01789e-259
-4.221e-258
5.20693e-258
-3.20275e-257
3.95483e-257
-2.50224e-256
3.08812e-256
-2.02315e-255
2.49031e-255
-1.69887e-254
2.08308e-254
-1.48814e-253
1.81527e-253
-1.36288e-252
1.65382e-252
-1.30876e-251
1.58039e-251
-1.31905e-250
1.58715e-250
-1.39734e-249
1.6785e-249
-1.55711e-248
1.87085e-248
-1.82662e-247
2.20131e-247
-2.26049e-246
2.73693e-246
-2.95339e-245
3.60423e-245
-4.09203e-244
5.03837e-244
-6.02027e-243
7.50416e-243
-9.46433e-242
1.19595e-241
-1.60026e-240
2.04998e-240
3.80445e-239
-2.91145e-239
1.35519e-289
-1.36987e-282
-1.02424e-283
0
-8.05832e-289
0
0
0
0
0
0
0
0
0
0
0
0
0
0
0
0
0
0
0
0
0
0
0
0
0
0
0
0
0
0
0
0
0
0
0
0
0
0
0
0
0
0
0
0
0
0
0
0
0
0
0
0
0
0
2.13975e-282
-2.5525e-282
1.54962e-280
-1.86788e-280
4.66883e-279
-5.58298e-279
9.4316e-278
-1.11715e-277
1.49193e-276
-1.75033e-276
1.98242e-275
-2.31659e-275
2.33657e-274
-2.69055e-274
2.49776e-273
-2.85149e-273
2.46845e-272
-2.79514e-272
2.28625e-271
-2.5696e-271
2.00565e-270
-2.23892e-270
1.68006e-269
-1.86427e-269
1.35289e-268
-1.49341e-268
1.05289e-267
-1.15726e-267
7.95656e-267
-8.71513e-267
5.86085e-266
-6.40363e-266
4.22276e-265
-4.60662e-265
2.98486e-264
-3.25427e-264
2.07547e-263
-2.26368e-263
1.42308e-262
-1.55426e-262
9.64311e-262
-1.05573e-261
6.47126e-261
-7.10872e-261
4.309e-260
-4.75433e-260
2.85242e-259
-3.16406e-259
1.88056e-258
-2.09919e-258
1.23718e-257
-1.39086e-257
8.13732e-257
-9.2205e-257
5.3625e-256
-6.12764e-256
3.54865e-255
-4.0909e-255
2.36454e-254
-2.74994e-254
1.59103e-253
-1.86622e-253
1.08509e-252
-1.28243e-252
7.53082e-252
-8.95582e-252
5.34603e-251
-6.38231e-251
3.90254e-250
-4.66446e-250
2.94851e-249
-3.51559e-249
2.31951e-248
-2.74955e-248
1.91197e-247
-2.2457e-247
1.65891e-246
-1.92691e-246
1.5205e-245
-1.74568e-245
1.47409e-244
-1.67525e-244
1.51162e-243
-1.70598e-243
1.63836e-242
-1.84342e-242
1.87387e-241
-2.11281e-241
2.26251e-240
-2.56589e-240
2.881e-239
-3.30282e-239
3.88352e-238
-4.5088e-238
5.54039e-237
-6.54636e-237
8.4371e-236
-1.01434e-235
1.37637e-234
-1.6874e-234
-3.03407e-233
2.42053e-233
2.64885e-283
-1.14081e-258
-6.3808e-260
1.73236e-312
-1.89021e-282
0
-8.01245e-312
0
0
0
0
0
0
0
0
0
0
0
0
0
0
0
0
0
0
0
0
0
0
0
0
0
0
0
0
0
0
0
0
0
0
0
0
0
0
0
0
0
0
0
0
0
0
0
0
0
0
2.06166e-280
-2.38389e-280
3.70769e-278
-4.50829e-278
1.33812e-276
-1.61947e-276
2.84299e-275
-3.41338e-275
4.47572e-274
-5.32726e-274
5.78015e-273
-6.82029e-273
6.43831e-272
-7.57484e-272
6.47224e-271
-7.50724e-271
5.97449e-270
-6.87239e-270
5.14378e-269
-5.87e-269
4.18132e-268
-4.73447e-268
3.23775e-267
-3.63935e-267
2.40643e-266
-2.68611e-266
1.72656e-265
-1.91513e-265
1.20203e-264
-1.32571e-264
8.15275e-264
-8.948e-264
5.40723e-263
-5.91056e-263
3.51746e-262
-3.83294e-262
2.25061e-261
-2.44714e-261
1.41981e-260
-1.54201e-260
8.85113e-260
-9.61186e-260
5.46368e-259
-5.93886e-259
3.34581e-258
-3.64429e-258
2.03622e-257
-2.22484e-257
1.23356e-256
-1.35364e-256
7.4513e-256
-8.22087e-256
4.49465e-255
-4.99154e-255
2.71196e-254
-3.0347e-254
1.63928e-253
-1.85039e-253
9.94563e-253
-1.13337e-252
6.06677e-252
-6.98585e-252
3.72978e-251
-4.3413e-251
2.31596e-250
-2.72607e-250
1.4574e-249
-1.73395e-249
9.32186e-249
-1.12054e-248
6.09038e-248
-7.38291e-248
4.08179e-247
-4.98083e-247
2.82537e-246
-3.45831e-246
2.03124e-245
-2.48582e-245
1.52868e-244
-1.86231e-244
1.21104e-243
-1.46401e-243
1.01599e-242
-1.21596e-242
9.05293e-242
-1.07243e-241
8.57842e-241
-1.00844e-240
8.64602e-240
-1.01204e-239
9.24336e-239
-1.08456e-238
1.04908e-237
-1.23918e-237
1.25915e-236
-1.50927e-236
1.60495e-235
-1.95836e-235
2.16767e-234
-2.71249e-234
3.1298e-233
-4.02114e-233
-6.41216e-232
4.81853e-232
3.47938e-267
-2.56883e-202
-1.3412e-203
7.74378e-288
-3.04939e-266
0
-4.11635e-287
0
0
0
0
0
0
0
0
0
0
0
0
0
0
0
0
0
0
0
0
0
0
0
0
0
0
0
0
0
0
0
0
0
0
0
0
0
0
0
0
0
0
0
0
0
0
0
0
0
0
4.07655e-276
-5.00719e-276
1.95357e-274
-2.39129e-274
4.5778e-273
-5.56774e-273
7.38706e-272
-8.90958e-272
9.40738e-271
-1.12485e-270
1.0102e-269
-1.20466e-269
9.65708e-269
-1.13525e-268
8.39816e-268
-9.79409e-268
6.76659e-267
-7.83214e-267
5.12135e-266
-5.8839e-266
3.67735e-265
-4.19494e-265
2.52612e-264
-2.8614e-264
1.67073e-263
-1.87975e-263
1.07002e-262
-1.19598e-262
6.66599e-262
-7.40498e-262
4.05652e-261
-4.48034e-261
2.41946e-260
-2.65859e-260
1.41884e-259
-1.55213e-259
8.20213e-259
-8.9402e-259
4.68555e-258
-5.09325e-258
2.6506e-257
-2.87625e-257
1.48774e-256
-1.61332e-256
8.29992e-256
-9.00452e-256
4.60992e-255
-5.00948e-255
2.5531e-254
-2.78223e-254
1.41192e-253
-1.54497e-253
7.80836e-253
-8.58994e-253
4.32392e-252
-4.78868e-252
2.40109e-251
-2.68028e-251
1.33874e-250
-1.50833e-250
7.50695e-250
-8.546e-250
4.23926e-249
-4.88252e-249
2.41596e-248
-2.81721e-248
1.39175e-247
-1.64472e-247
8.12784e-247
-9.73515e-247
4.82298e-246
-5.85654e-246
2.92038e-245
-3.59135e-245
1.8108e-244
-2.2529e-244
1.1569e-243
-1.4522e-243
7.65644e-243
-9.66928e-243
5.2908e-242
-6.69364e-242
3.8429e-241
-4.8513e-241
2.95588e-240
-3.71016e-240
2.42052e-239
-3.01451e-239
2.11655e-238
-2.61836e-238
1.97974e-237
-2.43898e-237
1.97581e-236
-2.44096e-236
2.10454e-235
-2.62236e-235
2.38111e-234
-3.02188e-234
2.86603e-233
-3.73136e-233
3.67288e-232
-4.93809e-232
-7.01981e-231
5.00385e-231
1.41129e-258
-5.92998e-198
-2.07206e-199
2.7606e-279
-1.57771e-257
0
-1.72336e-278
0
0
0
0
0
0
0
0
0
0
0
0
0
0
0
0
0
0
0
0
0
0
0
0
0
0
0
0
0
0
0
0
0
0
0
0
0
0
0
0
0
0
0
0
0
0
0
0
2.9919e-274
-3.6453e-274
2.00127e-272
-2.47602e-272
5.35555e-271
-6.61349e-271
9.02952e-270
-1.11546e-269
1.15371e-268
-1.40474e-268
1.20777e-267
-1.46652e-267
1.10658e-266
-1.32292e-266
9.12347e-266
-1.08092e-265
6.92103e-265
-8.13018e-265
4.90695e-264
-5.71765e-264
3.28782e-263
-3.80215e-263
2.10012e-262
-2.41128e-262
1.28749e-261
-1.46832e-261
7.61952e-261
-8.63378e-261
4.37405e-260
-4.926e-260
2.44634e-259
-2.73885e-259
1.33802e-258
-1.48967e-258
7.18206e-258
-7.954e-258
3.79493e-257
-4.18247e-257
1.97952e-256
-2.17218e-256
1.02188e-255
-1.11716e-255
5.23258e-255
-5.70343e-255
2.66307e-254
-2.89659e-254
1.34958e-253
-1.46629e-253
6.82156e-253
-7.41141e-253
3.44428e-252
-3.74658e-252
1.73965e-251
-1.897e-251
8.80113e-251
-9.63403e-251
4.46572e-250
-4.91387e-250
2.27526e-249
-2.52039e-249
1.16549e-248
-1.30159e-248
6.0092e-248
-6.77603e-248
3.12282e-247
-3.56048e-247
1.63763e-246
-1.89075e-246
8.68051e-246
-1.01613e-245
4.65751e-245
-5.53479e-245
2.5352e-244
-3.06086e-244
1.40281e-243
-1.722e-243
7.91638e-243
-9.87944e-243
4.57076e-242
-5.79697e-242
2.7134e-241
-3.49197e-241
1.66475e-240
-2.1692e-240
1.063e-239
-1.39769e-239
7.11638e-239
-9.40402e-239
5.0352e-238
-6.66008e-238
3.7934e-237
-5.00504e-237
3.05905e-236
-4.02279e-236
2.64947e-235
-3.47846e-235
2.46363e-234
-3.24774e-234
2.45416e-233
-3.27732e-233
2.61432e-232
-3.57078e-232
2.9727e-231
-4.19593e-231
-5.3116e-230
3.59464e-230
3.26333e-241
-1.05211e-172
-5.26188e-175
6.81364e-261
-4.96247e-240
1.51167e-285
-5.14841e-260
0
-8.4332e-285
0
0
0
0
0
0
0
0
0
0
0
0
0
0
0
0
0
0
0
0
0
0
0
0
0
0
0
0
0
0
0
0
0
0
0
0
0
0
0
0
0
0
0
0
2.15629e-272
-2.60468e-272
1.66271e-270
-2.04448e-270
5.05732e-269
-6.25235e-269
9.25356e-268
-1.14445e-267
1.21689e-266
-1.50087e-266
1.26567e-265
-1.56302e-265
1.1245e-264
-1.37005e-264
8.84425e-264
-1.06914e-263
6.33391e-263
-7.59238e-263
4.21081e-262
-5.00408e-262
2.6346e-261
-3.10401e-261
1.56682e-260
-1.83058e-260
8.92452e-260
-1.03434e-259
4.89732e-259
-5.63333e-259
2.60185e-258
-2.97189e-258
1.34377e-257
-1.52499e-257
6.77176e-257
-7.63925e-257
3.34066e-256
-3.74807e-256
1.61837e-255
-1.8066e-255
7.7211e-255
-8.57945e-255
3.63782e-254
-4.02521e-254
1.69697e-253
-1.8706e-253
7.85671e-253
-8.63208e-253
3.61836e-252
-3.96467e-252
1.66108e-251
-1.81641e-251
7.61556e-251
-8.31782e-251
3.49291e-250
-3.81427e-250
1.60521e-249
-1.75449e-249
7.40183e-249
-8.10789e-249
3.42916e-248
-3.76957e-248
1.59801e-247
-1.76554e-247
7.49951e-247
-8.34035e-247
3.54804e-246
-3.97857e-246
1.69416e-245
-1.91859e-245
8.17247e-245
-9.36354e-245
3.98782e-244
-4.63e-244
1.97042e-243
-2.32236e-243
9.87413e-243
-1.1831e-242
5.02508e-242
-6.1305e-242
2.60266e-241
-3.23628e-241
1.37472e-240
-1.74397e-240
7.42861e-240
-9.61649e-240
4.12091e-239
-5.44239e-239
2.35834e-238
-3.17348e-238
1.40036e-237
-1.91585e-237
8.68993e-237
-1.20493e-236
5.68243e-236
-7.95323e-236
3.94768e-235
-5.55739e-235
2.9373e-234
-4.14746e-234
2.35075e-233
-3.33359e-233
2.02959e-232
-2.90278e-232
1.8868e-231
-2.74787e-231
1.88849e-230
-2.82772e-230
-3.1604e-229
2.01671e-229
5.13993e-228
-1.19e-159
1.11354e-159
1.21332e-252
-1.20259e-226
1.18159e-277
-1.1602e-251
-3.1549e-315
-7.71074e-277
0
1.85133e-314
0
0
0
0
0
0
0
0
0
0
0
0
0
0
0
0
0
0
0
0
0
0
0
0
0
0
0
0
1.34577e-284
-1.43143e-284
1.00621e-281
-1.19751e-281
1.54913e-279
-1.80629e-279
2.63338e-277
-3.02378e-277
6.62207e-275
-7.58688e-275
1.70103e-272
-1.98319e-272
2.17287e-270
-2.57248e-270
1.26989e-268
-1.52122e-268
3.98977e-267
-4.82266e-267
7.8659e-266
-9.56457e-266
1.09672e-264
-1.33777e-264
1.17505e-263
-1.44363e-263
1.04634e-262
-1.27535e-262
8.06526e-262
-9.80229e-262
5.52712e-261
-6.73503e-261
3.49487e-260
-4.20893e-260
2.06052e-259
-2.46689e-259
1.14684e-258
-1.36413e-258
6.08369e-258
-7.18553e-258
3.09816e-257
-3.63262e-257
1.52369e-256
-1.77323e-256
7.27055e-256
-8.39947e-256
3.37978e-255
-3.87698e-255
1.53568e-254
-1.74997e-254
6.84131e-254
-7.74851e-254
2.99606e-253
-3.37483e-253
1.29315e-252
-1.44957e-252
5.51395e-252
-6.15476e-252
2.32817e-251
-2.58923e-251
9.75629e-251
-1.08166e-250
4.06677e-250
-4.49719e-250
1.68986e-249
-1.86495e-249
7.01453e-249
-7.73049e-249
2.91448e-248
-3.20965e-248
1.21434e-247
-1.33748e-247
5.08269e-247
-5.60399e-247
2.14034e-246
-2.36507e-246
9.08115e-246
-1.00695e-245
3.88681e-245
-4.33125e-245
1.68027e-244
-1.88462e-244
7.3436e-244
-8.3054e-244
3.24847e-243
-3.71105e-243
1.45558e-242
-1.68303e-242
6.61441e-242
-7.75503e-242
3.05057e-241
-3.63434e-241
1.42989e-240
-1.73415e-240
6.81825e-240
-8.43491e-240
3.31339e-239
-4.18795e-239
1.64346e-238
-2.1258e-238
8.34145e-238
-1.1054e-237
4.34407e-237
-5.90224e-237
2.33043e-236
-3.24655e-236
1.29421e-235
-1.84695e-235
7.4864e-235
-1.0926e-234
4.54696e-234
-6.76551e-234
2.92371e-233
-4.42183e-233
2.0089e-232
-3.07896e-232
1.48471e-231
-2.30663e-231
1.1871e-230
-1.87491e-230
1.02801e-229
-1.66364e-229
-1.61514e-228
9.58369e-229
7.96928e-215
-3.24529e-158
2.98684e-158
7.65822e-225
-3.94403e-213
5.77209e-255
-9.95731e-224
-1.10967e-284
-4.59198e-254
9.93827e-306
7.44135e-284
1.77655e-306
-7.10471e-305
4.47633e-308
-1.74311e-305
-2.65601e-308
-1.01765e-306
-5.45426e-308
-5.39613e-307
-7.17694e-308
-4.14112e-307
-8.77652e-308
-3.70586e-307
-1.0628e-307
-3.73749e-307
-1.25444e-307
-4.09299e-307
-1.32208e-307
-4.49896e-307
-1.04912e-307
-4.29503e-307
-4.96244e-308
-2.92175e-307
-1.07318e-308
-1.14767e-307
-7.13279e-310
-2.08256e-308
2.68717e-279
-3.03784e-279
1.36169e-276
-1.74555e-276
7.36897e-275
-8.9275e-275
3.12199e-273
-3.65672e-273
1.32041e-271
-1.52089e-271
5.8589e-270
-6.7132e-270
2.54248e-268
-2.92017e-268
9.35929e-267
-1.08213e-266
2.59228e-265
-3.02179e-265
5.18468e-264
-6.09024e-264
7.64299e-263
-9.0321e-263
8.64601e-262
-1.03239e-261
7.99093e-261
-9.50649e-261
6.26613e-260
-7.46378e-260
4.31908e-259
-5.14547e-259
2.68695e-258
-3.19925e-258
1.5287e-257
-1.82986e-257
8.17687e-257
-9.70522e-257
4.13069e-256
-4.89007e-256
1.98766e-255
-2.34545e-255
9.17396e-255
-1.07831e-254
4.08475e-254
-4.77963e-254
1.76322e-253
-2.05285e-253
7.41022e-253
-8.58125e-253
3.04346e-252
-3.5049e-252
1.22563e-251
-1.40364e-251
4.8538e-251
-5.52903e-251
1.89535e-250
-2.14823e-250
7.31513e-250
-8.25382e-250
2.79673e-249
-3.14329e-249
1.06143e-248
-1.18908e-248
4.00714e-248
-4.47749e-248
1.50785e-247
-1.68164e-247
5.66667e-247
-6.31219e-247
2.13122e-246
-2.37268e-246
8.0372e-246
-8.94934e-246
3.04526e-245
-3.39387e-245
1.16139e-244
-1.29662e-244
4.46634e-244
-4.99984e-244
1.7347e-243
-1.94945e-243
6.81503e-243
-7.69822e-243
2.71152e-242
-3.0836e-242
1.09398e-241
-1.25456e-241
4.47979e-241
-5.19078e-241
1.86391e-240
-2.18646e-240
7.88546e-240
-9.38593e-240
3.39557e-239
-4.10991e-239
1.48931e-238
-1.83757e-238
6.66142e-238
-8.39697e-238
3.04127e-237
-3.92617e-237
1.41949e-236
-1.88073e-236
6.78403e-236
-9.24425e-236
3.32754e-235
-4.67148e-235
1.68e-234
-2.43309e-234
8.76455e-234
-1.31049e-233
4.75052e-233
-7.33105e-233
2.6923e-232
-4.28439e-232
1.60929e-231
-2.63518e-231
1.02324e-230
-1.7216e-230
6.99081e-230
-1.20717e-229
5.16967e-229
-9.17993e-229
-7.63827e-228
4.13031e-228
-7.22234e-160
-4.55061e-157
4.08735e-157
3.09087e-211
-9.72347e-160
3.90692e-223
-6.25849e-210
5.34377e-263
-4.02883e-222
1.69513e-274
-4.27773e-262
5.62921e-275
-1.36805e-273
7.87659e-276
-5.95136e-274
-3.62137e-276
-1.79513e-274
-8.68248e-276
-9.64469e-275
-1.16873e-275
-7.42691e-275
-1.37926e-275
-6.41549e-275
-1.51517e-275
-5.94153e-275
-1.50743e-275
-5.60809e-275
-1.23671e-275
-4.95139e-275
-7.13042e-276
-3.5782e-275
-2.3178e-276
-1.77824e-275
-3.08634e-277
-4.94204e-276
-5.89404e-279
-5.71576e-277
1.2759e-273
-1.66144e-273
6.0982e-272
-7.48709e-272
1.74203e-270
-2.03545e-270
4.37723e-269
-4.96676e-269
1.08471e-267
-1.21287e-267
2.7131e-266
-3.01926e-266
6.60571e-265
-7.36269e-265
1.45483e-263
-1.62994e-263
2.6911e-262
-3.03506e-262
4.00521e-261
-4.54571e-261
4.76818e-260
-5.44097e-260
4.60698e-259
-5.30681e-259
3.76315e-258
-4.32356e-258
2.66579e-257
-3.06903e-257
1.68183e-256
-1.93928e-256
9.65284e-256
-1.11442e-255
5.1224e-255
-5.91979e-255
2.54432e-254
-2.94263e-254
1.18633e-253
-1.38161e-253
5.2981e-253
-6.13247e-253
2.26561e-252
-2.6219e-252
9.32413e-252
-1.07838e-251
3.70983e-251
-4.28595e-251
1.43275e-250
-1.65274e-250
5.39143e-250
-6.20713e-250
1.98362e-249
-2.27847e-249
7.15945e-249
-8.20215e-249
2.54264e-248
-2.90481e-248
8.91107e-248
-1.01513e-247
3.09006e-247
-3.51041e-247
1.06284e-246
-1.2044e-246
3.63449e-246
-4.10976e-246
1.23828e-245
-1.39799e-245
4.21221e-245
-4.75069e-245
1.43337e-244
-1.61618e-244
4.88932e-244
-5.51515e-244
1.67492e-243
-1.89165e-243
5.77411e-243
-6.53401e-243
2.00684e-242
-2.27748e-242
7.04632e-242
-8.026e-242
2.50353e-241
-2.86535e-241
9.01809e-241
-1.0382e-240
3.29781e-240
-3.82464e-240
1.22634e-239
-1.4348e-239
4.6415e-239
-5.48963e-239
1.79054e-238
-2.14475e-238
7.04363e-238
-8.5666e-238
2.82909e-237
-3.50148e-237
1.1605e-236
-1.46597e-236
4.86772e-236
-6.29218e-236
2.08885e-235
-2.77127e-235
9.18127e-235
-1.25376e-234
4.13786e-234
-5.83327e-234
1.91523e-233
-2.79546e-233
9.12506e-233
-1.38249e-232
4.48716e-232
-7.07467e-232
2.28768e-231
-3.75914e-231
1.21512e-230
-2.08415e-230
6.77752e-230
-1.21338e-229
4.00359e-229
-7.48118e-229
2.5309e-228
-4.93548e-228
-3.52425e-227
1.71722e-227
-8.51022e-158
-4.47587e-156
3.99291e-156
2.14311e-202
-9.07271e-158
6.33338e-209
-9.69407e-201
3.62291e-215
-9.39375e-208
3.01837e-222
-3.68716e-214
1.45892e-222
-2.89297e-221
3.12871e-224
-1.74618e-221
-1.2577e-224
-7.68158e-223
-3.5181e-224
-4.39994e-223
-4.79937e-224
-3.39653e-223
-5.38633e-224
-2.80328e-223
-5.27783e-224
-2.35359e-223
-4.36354e-224
-1.89676e-223
-2.76291e-224
-1.34328e-223
-1.14291e-224
-7.36289e-224
-2.4213e-225
-2.6386e-224
-1.54323e-226
-4.87973e-225
1.90326e-271
-2.72341e-226
1.41579e-269
-1.7442e-269
3.65745e-268
-4.25881e-268
7.22892e-267
-8.09475e-267
1.31321e-265
-1.43641e-265
2.34334e-264
-2.53313e-264
4.16085e-263
-4.48084e-263
7.18004e-262
-7.74253e-262
1.14889e-260
-1.2441e-260
1.62029e-259
-1.76365e-259
1.94339e-258
-2.12618e-258
1.9504e-257
-2.15264e-257
1.66604e-256
-1.83604e-256
1.22893e-255
-1.35739e-255
8.00135e-255
-8.85471e-255
4.69417e-254
-5.20359e-254
2.52405e-253
-2.80284e-253
1.26078e-252
-1.40257e-252
5.91079e-252
-6.58827e-252
2.62164e-251
-2.92803e-251
1.10036e-250
-1.2389e-250
4.44526e-250
-4.98565e-250
1.72585e-249
-1.93947e-249
6.46354e-249
-7.27755e-249
2.34327e-248
-2.64318e-248
8.2499e-248
-9.32177e-248
2.82956e-247
-3.20221e-247
9.48257e-247
-1.07467e-246
3.1144e-246
-3.53399e-246
1.00534e-245
-1.14201e-245
3.19888e-245
-3.63706e-245
1.00609e-244
-1.1448e-244
3.1363e-244
-3.57139e-244
9.71608e-244
-1.10724e-243
2.99879e-243
-3.42066e-243
9.24385e-243
-1.05569e-242
2.85231e-242
-3.26282e-242
8.83025e-242
-1.01225e-241
2.74839e-241
-3.15949e-241
8.61925e-241
-9.9428e-241
2.72887e-240
-3.16162e-240
8.74114e-240
-1.01791e-239
2.83797e-239
-3.32534e-239
9.35908e-239
-1.10446e-238
3.14002e-238
-3.73712e-238
1.07387e-237
-1.29062e-237
3.74809e-237
-4.55744e-237
1.33726e-236
-1.64805e-236
4.88046e-236
-6.11187e-236
1.8243e-235
-2.3272e-235
6.98758e-235
-9.10781e-235
2.74471e-234
-3.66685e-234
1.10611e-233
-1.51997e-233
4.57672e-233
-6.49235e-233
1.94545e-232
-2.86013e-232
8.50438e-232
-1.30105e-231
3.82865e-231
-6.11994e-231
1.77846e-230
-2.98283e-230
8.55037e-230
-1.5105e-229
4.2711e-229
-7.97853e-229
2.23096e-228
-4.41937e-228
1.22761e-227
-2.58617e-227
-1.6144e-226
7.13858e-227
-1.27055e-156
-3.50119e-155
3.109e-155
-5.56775e-159
-1.40078e-156
1.42819e-200
-6.69938e-159
5.59818e-200
-3.81945e-199
5.83508e-200
-8.03805e-199
3.15903e-200
-7.15533e-199
8.7447e-201
-4.58332e-199
-3.74175e-201
-2.53587e-199
-1.21061e-200
-1.7067e-199
-1.67227e-200
-1.33659e-199
-1.76934e-200
-1.0516e-199
-1.52551e-200
-7.94218e-200
-1.03161e-200
-5.41911e-200
-4.93773e-201
-3.0534e-200
-1.40135e-201
-1.24962e-200
-1.66933e-202
-3.0839e-201
-3.49245e-205
-3.26302e-202
1.33707e-267
-9.66496e-205
3.85488e-266
-4.42793e-266
7.00116e-265
-7.71983e-265
1.07434e-263
-1.15092e-263
1.54925e-262
-1.63084e-262
2.19055e-261
-2.28579e-261
3.05999e-260
-3.18462e-260
4.15125e-259
-4.3259e-259
5.29119e-258
-5.53194e-258
6.10425e-257
-6.40755e-257
6.1717e-256
-6.52673e-256
5.44048e-255
-5.74732e-255
4.17592e-254
-4.41972e-254
2.825e-253
-2.99409e-253
1.71183e-252
-1.81638e-252
9.44081e-252
-1.00298e-251
4.80521e-251
-5.11238e-251
2.28252e-250
-2.43272e-250
1.02077e-249
-1.0902e-249
4.32733e-249
-4.63247e-249
1.74823e-248
-1.87645e-248
6.72328e-248
-7.27728e-248
2.49746e-247
-2.697e-247
8.94188e-247
-9.68832e-247
3.09454e-246
-3.36492e-246
1.038e-245
-1.13304e-245
3.38328e-245
-3.70827e-245
1.07429e-244
-1.18262e-244
3.3313e-244
-3.6841e-244
1.01135e-243
-1.12382e-243
3.01341e-243
-3.36513e-243
8.83475e-243
-9.91612e-243
2.55519e-242
-2.88277e-242
7.30953e-242
-8.28979e-242
2.07373e-241
-2.36419e-241
5.85029e-241
-6.70517e-241
1.64571e-240
-1.89625e-240
4.62833e-240
-5.36223e-240
1.30489e-239
-1.52029e-239
3.69738e-239
-4.33335e-239
1.05566e-238
-1.24499e-238
3.0442e-238
-3.61484e-238
8.88863e-238
-1.06331e-237
2.63366e-237
-3.17652e-237
7.93719e-237
-9.66018e-237
2.438e-236
-2.99756e-236
7.64888e-236
-9.51177e-236
2.45526e-235
-3.09307e-235
8.07833e-235
-1.03277e-234
2.72772e-234
-3.54723e-234
9.46527e-234
-1.25521e-233
3.37796e-233
-4.58221e-233
1.23374e-232
-1.72765e-232
4.65986e-232
-6.69611e-232
1.81191e-231
-2.69632e-231
7.25702e-231
-1.12377e-230
2.99471e-230
-4.85188e-230
1.27428e-229
-2.17223e-229
5.59541e-229
-1.00995e-228
2.54085e-228
-4.88612e-228
1.19589e-227
-2.46725e-227
5.85969e-227
-1.30601e-226
-7.29196e-226
2.98628e-226
-1.22971e-155
-2.30326e-154
2.03797e-154
-3.48791e-157
-1.36667e-155
2.11319e-168
-3.51567e-157
-1.82448e-173
-2.92158e-166
-1.85107e-183
4.60199e-172
-7.07976e-193
3.27529e-182
2.17316e-197
1.37869e-191
-1.31233e-197
-8.60703e-196
-6.68834e-197
-1.06306e-195
-6.2255e-196
-5.7244e-195
-1.20217e-195
-8.38908e-195
-1.32756e-195
-8.37011e-195
-9.29235e-196
-6.19676e-195
-3.84937e-196
-3.26003e-195
-7.59282e-197
-1.08215e-195
-3.15727e-198
-1.79142e-196
4.51567e-206
-6.3404e-198
2.2289e-264
-1.98869e-204
4.1834e-263
-4.49103e-263
5.97811e-262
-6.24762e-262
7.59507e-261
-7.78381e-261
9.18354e-260
-9.29988e-260
1.08757e-258
-1.09496e-258
1.26705e-257
-1.27384e-257
1.4332e-256
-1.44271e-256
1.53534e-255
-1.54948e-255
1.50944e-254
-1.53227e-254
1.33919e-253
-1.35821e-253
1.05618e-252
-1.07257e-252
7.40278e-252
-7.52222e-252
4.64794e-251
-4.72405e-251
2.64576e-250
-2.68958e-250
1.38267e-249
-1.40619e-249
6.70965e-249
-6.82929e-249
3.05179e-248
-3.11012e-248
1.31082e-247
-1.33809e-247
5.34803e-247
-5.47078e-247
2.08242e-246
-2.13543e-246
7.76764e-246
-7.98827e-246
2.77071e-245
-2.8731e-245
9.57156e-245
-9.91291e-245
3.19486e-244
-3.32241e-244
1.03271e-243
-1.07892e-243
3.23992e-243
-3.4024e-243
9.88598e-243
-1.04415e-242
2.93998e-242
-3.1248e-242
8.53839e-242
-9.13805e-242
2.42669e-241
-2.61664e-241
6.76304e-241
-7.35158e-241
1.8522e-240
-2.03083e-240
4.99557e-240
-5.52774e-240
1.32992e-239
-1.48582e-239
3.50294e-239
-3.953e-239
9.15117e-239
-1.04346e-238
2.37733e-238
-2.73967e-238
6.15784e-238
-7.17367e-238
1.59487e-237
-1.87841e-237
4.14186e-237
-4.93269e-237
1.08176e-236
-1.30281e-236
2.8497e-236
-3.47115e-236
7.59374e-236
-9.35756e-236
2.05291e-235
-2.55998e-235
5.64564e-235
-7.12824e-235
1.58373e-234
-2.02597e-234
4.54317e-234
-5.89397e-234
1.32791e-233
-1.75974e-233
4.00759e-233
-5.37374e-233
1.2444e-232
-1.70079e-232
3.98154e-232
-5.5613e-232
1.31414e-231