/*--------------------------------*- C++ -*----------------------------------*\
  =========                 |
  \\      /  F ield         | OpenFOAM: The Open Source CFD Toolbox
   \\    /   O peration     | Website:  https://openfoam.org
    \\  /    A nd           | Version:  7
     \\/     M anipulation  |
\*---------------------------------------------------------------------------*/
FoamFile
{
    version     2.0;
    format      ascii;
    class       volScalarField;
    location    "35";
    object      epss;
}
// * * * * * * * * * * * * * * * * * * * * * * * * * * * * * * * * * * * * * //

dimensions      [0 0 0 0 0 0 0];

internalField   nonuniform List<scalar> 
49920
(
0.0158419
0.317787
0.658743
0.5921
0.59563
0.524598
0.5709
0.697967
0.648311
0.565967
0.591115
0.649132
0.60278
0.685613
0.531268
0.0962854
0.0046291
3.67917e-05
0
0
0
0
0
0
0
0
0
0
0
0
0
0
0
0
0
0
0
0
0
0
0
0
0
0
0
0
0
0
0
0
0
0
0
0
0
0
0
0
0
0
0
0
0
0
0
0
0
0
0
0
0
0
0
0
0
0
0
0
0
0
0.0163999
0.0608191
0.197672
0.545083
0.550539
0.408589
0.597792
0.438767
0.580031
0.544236
0.516132
0.566245
0.626854
0.437497
0.140469
0.0332624
0.00358264
3.15964e-06
0
0
0
0
0
0
0
0
0
0
0
0
0
0
0
0
0
0
0
0
0
0
0
0
0
0
0
0
0
0
0
0
0
0
0
0
0
0
0
0
0
0
0
0
0
0
0
0
0
0
0
0
0
0
0
0
0
0
0
0
0
0
0.00701485
0.0100043
0.0414118
0.131142
0.13577
0.0965839
0.140674
0.103586
0.13695
0.406646
0.413843
0.402035
0.263333
0.108878
0.0356684
0.00985418
0.00207257
0.000173553
0
0
0
0
0
0
0
0
0
0
0
0
0
0
0
0
0
0
0
0
0
0
0
0
0
0
0
0
0
0
0
0
0
0
0
0
0
0
0
0
0
0
0
0
0
0
0
0
0
0
0
0
0
0
0
0
0
0
0
0
0
9.74553e-78
0.00250863
0.00113972
0.00946977
0.029033
0.0328406
0.0233913
0.0341772
0.0253469
0.0349733
0.0779449
0.0969871
0.0979704
0.0654753
0.0398389
0.00897406
0.00245261
0.000815579
0.000179595
1.26555e-05
0
0
0
0
0
0
0
0
0
0
0
0
0
0
0
0
0
0
0
0
0
0
0
0
0
0
0
0
0
0
0
0
0
0
0
0
0
0
0
0
0
0
0
0
0
0
0
0
0
0
0
0
1.32796e-92
3.40328e-91
9.30577e-91
9.77197e-91
3.98241e-91
2.49745e-93
0
7.58753e-79
3.40196e-77
0.000886434
0
0.00217441
0.0066111
0.00872965
0.00603145
0.00823904
0.00624303
0.00874279
0.0116731
0.0281516
0.0229078
0.0134913
0.00724377
0.00231146
0.000666151
0.000302095
0.000131525
2.85983e-05
2.13886e-06
0
0
0
0
0
0
0
0
0
0
0
0
0
0
0
0
0
0
0
0
0
0
0
0
0
0
0
0
0
0
0
0
0
0
0
0
0
0
0
0
0
0
0
0
0
0
1.95708e-99
4.74041e-98
1.13995e-97
5.76166e-99
0
0
0
0
5.30526e-90
3.57335e-90
3.99758e-92
0
1.21702e-79
0
0.00034802
0
0.000462773
0.00141465
0.00232904
0.00169917
0.00202702
0.0017557
0.00245131
0.00140211
0.0057401
0.00385837
0.00233137
0.00110567
0.000584482
0.000230357
0.000129462
8.97663e-05
3.7555e-05
8.68316e-06
6.60182e-07
0
0
0
0
0
0
0
0
0
0
0
0
0
0
0
0
0
0
0
0
0
0
0
0
0
0
0
0
0
0
0
0
0
0
0
0
0
0
0
0
0
0
0
0
0
1.6096e-98
9.1677e-98
4.8489e-98
0
5.89762e-84
3.23952e-83
1.34225e-84
0
0
0
0
0
0
3.07888e-58
0.000167287
7.09757e-06
7.45965e-05
0.000236897
0.000628494
0.000552142
0.000535173
0.000566195
0.000764816
1.21893e-05
0.000873281
0.000451503
0.000190334
2.13364e-06
0.000117745
0.000104881
7.46231e-05
6.45575e-05
4.06667e-05
1.64987e-05
3.96601e-06
4.04978e-07
0
0
0
0
0
0
0
0
0
0
0
0
0
0
0
0
0
0
0
0
0
0
0
0
0
0
0
0
0
0
0
0
0
0
0
0
0
0
0
0
0
0
0
1.61126e-99
2.09639e-98
2.97665e-98
0
1.65439e-84
1.64425e-83
1.32049e-83
3.01989e-85
0
2.39692e-65
7.90076e-65
2.08254e-66
0
0
4.58906e-59
0.000101567
7.94198e-06
0
0
0.000168022
0.000218457
0.000174113
0.000224717
0.000291872
0
0
0
0
0
5.23382e-06
5.10052e-05
5.3388e-05
5.09212e-05
4.07219e-05
2.35129e-05
9.49014e-06
2.5837e-06
3.10679e-07
0
0
0
0
0
0
0
0
0
0
0
0
0
0
0
0
0
0
0
0
0
0
0
0
0
0
0
0
0
0
0
0
0
0
0
0
0
0
0
0
0
1.54144e-100
2.4773e-99
6.07854e-99
6.25024e-100
0
3.33809e-84
5.70715e-84
8.07287e-85
0
6.12013e-66
4.09759e-65
2.64924e-65
0
7.9958e-58
0
0
7.40643e-05
7.80295e-06
0
0
4.12234e-05
0.000104637
8.30236e-05
0.000117762
0.000149189
2.34647e-05
0
0
0
0
0
2.51039e-05
3.88053e-05
4.18307e-05
3.88783e-05
2.84724e-05
1.58678e-05
6.6921e-06
1.91325e-06
2.59436e-07
0
0
0
0
0
0
0
0
0
0
0
0
0
0
0
0
0
0
0
0
0
0
0
0
0
0
0
0
0
0
0
0
0
0
0
0
3.9039e-95
5.73626e-94
6.47271e-95
0
0
0
0
0
4.989e-85
3.89772e-84
3.66193e-85
0
3.15929e-67
1.64014e-65
5.26896e-65
2.00298e-66
0
2.60816e-57
2.79486e-55
8.52983e-55
6.01129e-05
8.47621e-06
0
0
3.98544e-06
5.62496e-05
5.53933e-05
7.85337e-05
0.000100206
3.95583e-05
2.61382e-06
0
0
0
0
1.00818e-05
2.52011e-05
3.28331e-05
3.48173e-05
3.04161e-05
2.13121e-05
1.19052e-05
5.11222e-06
1.55002e-06
2.53191e-07
0
0
0
0
0
0
0
0
0
0
0
0
0
0
0
0
0
0
0
0
0
0
0
0
0
0
0
0
0
0
0
0
0
0
0
2.05307e-95
0
0
0
7.04377e-79
2.81692e-78
2.52468e-79
0
0
0
0
0
1.40917e-66
3.01967e-65
7.80995e-65
2.23093e-66
0
0
0
2.46711e-54
5.11851e-05
9.77513e-06
2.18823e-06
4.36544e-07
0
3.09088e-05
4.13997e-05
5.89639e-05
7.8654e-05
5.45613e-05
9.66981e-06
0
0
0
0
2.0444e-06
1.32194e-05
2.26788e-05
2.81305e-05
2.8704e-05
2.41268e-05
1.66466e-05
9.32579e-06
4.1266e-06
1.34156e-06
2.48562e-07
0
0
0
0
0
0
0
0
0
0
0
0
0
0
0
0
0
0
0
0
0
0
0
0
0
0
0
0
0
0
0
0
5.65484e-97
7.21239e-98
0
8.2456e-81
5.05769e-80
5.85573e-81
0
0
0
6.77149e-71
2.36811e-69
6.51791e-69
4.58013e-70
0
0
0
0
0
0
1.2891e-55
3.24936e-54
1.35376e-53
4.40267e-05
1.11248e-05
6.35276e-06
3.07343e-06
0
1.48123e-05
2.98454e-05
4.51045e-05
6.45432e-05
6.42917e-05
2.07863e-05
3.36036e-06
1.47978e-07
0
0
0
4.98243e-06
1.26848e-05
1.94926e-05
2.34882e-05
2.3299e-05
1.92113e-05
1.31991e-05
7.49541e-06
3.42857e-06
1.1708e-06
2.45551e-07
6.13204e-09
0
0
0
0
0
0
0
0
0
0
0
0
0
0
0
0
0
0
0
0
0
0
0
0
0
0
0
0
7.66526e-98
6.67846e-97
4.45904e-97
0
4.46388e-82
1.83907e-80
2.38598e-80
0
1.45679e-73
5.53478e-72
4.96369e-72
1.9724e-71
0
0
0
5.77976e-64
1.64061e-62
5.41091e-62
6.2966e-62
2.7345e-63
0
0
0
0
3.73738e-05
1.18981e-05
1.06725e-05
7.82519e-06
1.27562e-06
4.98466e-06
1.94095e-05
3.34127e-05
5.18939e-05
6.47924e-05
3.34128e-05
1.19145e-05
2.75967e-06
1.45026e-07
0
0
8.69894e-07
5.0433e-06
1.07869e-05
1.60601e-05
1.90006e-05
1.85615e-05
1.522e-05
1.05148e-05
6.0782e-06
2.85886e-06
1.03419e-06
2.43995e-07
1.64253e-08
0
0
0
0
0
0
0
0
0
0
0
0
0
0
0
0
0
0
0
0
0
0
0
0
0
5.04874e-101
2.55017e-101
6.1317e-98
0
0
0
1.89706e-81
6.90912e-81
1.35851e-81
0
1.03509e-72
2.56075e-72
1.34876e-72
0
8.28811e-65
3.60184e-64
4.5961e-64
3.20699e-64
0
0
0
0
0
1.38573e-48
1.19286e-49
1.31697e-49
3.08747e-05
1.16801e-05
1.36761e-05
1.31172e-05
4.41663e-06
9.12113e-07
1.11224e-05
2.34728e-05
3.98063e-05
5.74409e-05
4.32644e-05
2.31377e-05
8.51742e-06
1.68764e-06
1.22181e-09
0
0
9.41786e-07
4.14025e-06
8.59208e-06
1.26853e-05
1.48957e-05
1.45141e-05
1.19439e-05
8.34912e-06
4.92192e-06
2.39731e-06
9.12166e-07
2.34505e-07
2.40928e-08
0
0
0
0
0
0
0
0
0
0
0
0
0
0
0
0
0
0
0
0
0
5.94415e-113
1.37265e-113
0
0
0
0
1.18522e-80
6.02328e-79
0
0
0
0
1.15502e-73
2.10234e-72
3.49778e-73
0
0
0
1.64046e-64
2.04398e-64
0
4.03655e-46
2.49824e-45
4.24588e-45
2.28052e-45
7.61456e-46
1.36308e-47
0
7.02451e-50
2.46226e-05
1.04709e-05
1.47973e-05
1.7187e-05
8.67224e-06
1.23157e-06
5.77888e-06
1.55515e-05
2.90522e-05
4.63426e-05
4.69479e-05
3.2949e-05
1.63487e-05
5.31542e-06
8.32896e-07
2.90213e-08
1.26542e-07
0
9.18865e-07
3.32477e-06
6.61036e-06
9.67508e-06
1.13714e-05
1.11401e-05
9.26814e-06
6.58882e-06
3.98417e-06
2.00416e-06
7.96523e-07
2.23387e-07
2.97587e-08
0
0
0
0
0
0
0
0
0
0
0
0
0
0
0
0
0
0
0
0
0
0
0
9.43194e-88
1.83818e-88
0
0
0
1.11327e-76
1.72452e-75
2.42329e-76
0
0
0
0
8.27967e-67
2.78653e-64
1.03647e-63
1.18295e-63
8.98156e-65
0
0
0
5.34285e-45
7.94977e-45
0
0
0
0
1.88784e-05
8.64355e-06
1.43045e-05
1.9117e-05
1.26676e-05
3.75466e-06
3.20496e-06
9.7722e-06
2.03602e-05
3.50514e-05
4.40873e-05
3.81685e-05
2.38921e-05
1.06085e-05
3.04121e-06
7.2505e-07
1.00183e-06
1.25728e-06
1.26139e-06
1.66183e-06
2.96442e-06
5.07056e-06
7.21843e-06
8.49587e-06
8.41735e-06
7.12265e-06
5.17669e-06
3.21339e-06
1.66888e-06
6.95146e-07
2.08111e-07
3.13233e-08
0
0
0
0
0
0
0
0
0
0
1.63937e-128
6.29451e-129
2.75879e-130
0
1.60798e-108
5.18444e-109
1.19246e-110
0
1.73988e-97
4.48223e-98
1.21374e-100
0
3.50118e-88
0
0
4.36199e-78
2.86326e-77
7.67146e-77
0
0
0
5.43215e-65
1.64064e-64
1.84963e-65
0
0
0
0
0
2.02747e-45
2.62888e-44
5.59879e-44
5.33927e-45
0
1.39222e-42
8.82611e-42
9.43742e-42
3.41696e-43
1.38892e-05
6.71231e-06
1.2879e-05
1.89905e-05
1.51548e-05
6.4551e-06
2.5183e-06
5.92943e-06
1.38505e-05
2.54153e-05
3.69374e-05
3.79757e-05
2.88277e-05
1.61578e-05
6.52599e-06
2.42657e-06
2.55687e-06
3.83904e-06
4.27066e-06
3.69569e-06
3.00572e-06
3.07402e-06
4.04595e-06
5.36529e-06
6.27335e-06
6.29969e-06
5.44247e-06
4.05391e-06
2.58732e-06
1.38931e-06
5.99317e-07
1.86046e-07
3.00528e-08
0
0
0
0
0
0
0
0
0
7.69523e-129
2.99395e-129
1.33113e-130
0
8.01553e-109
2.61244e-109
6.09626e-111
0
9.10782e-98
2.3663e-98
0
1.13012e-90
0
3.61068e-80
0
2.86645e-78
0
0
6.60002e-60
5.55951e-59
0
0
0
0
9.31733e-52
1.20835e-50
2.8471e-50
2.68653e-51
0
0
0
0
0
0
4.9516e-42
4.07108e-42
3.86178e-42
0
9.7932e-06
5.09193e-06
1.11913e-05
1.74662e-05
1.5677e-05
8.14265e-06
2.68861e-06
3.5791e-06
9.19004e-06
1.79127e-05
2.84401e-05
3.36449e-05
3.00567e-05
2.03479e-05
1.04931e-05
5.00662e-06
4.5743e-06
6.74071e-06
8.46518e-06
8.2928e-06
6.60311e-06
4.67076e-06
3.54846e-06
3.49762e-06
4.08703e-06
4.65147e-06
4.71182e-06
4.15644e-06
3.17508e-06
2.08312e-06
1.14829e-06
5.06713e-07
1.61238e-07
2.70332e-08
0
0
0
0
0
0
0
0
0
0
0
0
0
0
0
0
0
0
0
0
1.35169e-81
2.81818e-80
1.85697e-81
0
1.18888e-64
0
4.5307e-60
0
7.61898e-57
1.94264e-56
2.1384e-57
0
0
1.11955e-50
1.40314e-50
0
8.1056e-45
8.9297e-42
4.11721e-41
1.03849e-40
1.29427e-40
6.64218e-41
4.51933e-42
2.24263e-47
0
2.44778e-36
6.60626e-06
3.9757e-06
9.66337e-06
1.52755e-05
1.45727e-05
8.50949e-06
2.94473e-06
2.21184e-06
5.92287e-06
1.23409e-05
2.06812e-05
2.73006e-05
2.79581e-05
2.21925e-05
1.38729e-05
7.90328e-06
6.69266e-06
9.17304e-06
1.2318e-05
1.36072e-05
1.23432e-05
9.43639e-06
6.37174e-06
4.24166e-06
3.33728e-06
3.30107e-06
3.53421e-06
3.56044e-06
3.18899e-06
2.49056e-06
1.67138e-06
9.39463e-07
4.21174e-07
1.35214e-07
2.22998e-08
0
0
0
0
0
0
0
0
0
0
0
0
0
0
0
0
0
0
0
6.02111e-81
7.14102e-81
0
5.21955e-66
6.80492e-64
0
0
8.2264e-58
2.8637e-57
7.824e-57
0
4.82827e-48
0
0
0
0
3.3367e-42
7.614e-40
3.16242e-39
5.47492e-39
4.63268e-39
1.51989e-39
3.71315e-41
0
2.18064e-37
1.00741e-35
4.25953e-06
3.34984e-06
8.43425e-06
1.29341e-05
1.25159e-05
7.79508e-06
2.90115e-06
1.39755e-06
3.66809e-06
8.31758e-06
1.45422e-05
2.08104e-05
2.38379e-05
2.16772e-05
1.58881e-05
1.04192e-05
8.52157e-06
1.06654e-05
1.47113e-05
1.77876e-05
1.81277e-05
1.57201e-05
1.18044e-05
7.89736e-06
5.02209e-06
3.45337e-06
2.8904e-06
2.80526e-06
2.74221e-06
2.46382e-06
1.95405e-06
1.334e-06
7.60162e-07
3.42615e-07
1.08523e-07
1.67291e-08
0
0
0
0
0
0
0
0
0
0
0
0
0
0
0
0
0
0
6.87966e-81
1.16118e-81
0
1.54211e-64
2.43835e-63
3.71225e-64
0
2.6731e-57
1.13666e-56
1.48628e-57
0
1.52336e-48
1.06197e-46
4.15526e-46
0
0
1.10235e-41
4.28936e-40
4.97202e-40
1.66519e-42
0
0
5.88787e-43
0
1.67365e-36
1.97094e-35
2.64575e-06
3.08237e-06
7.45227e-06
1.06945e-05
1.01022e-05
6.42276e-06
2.48982e-06
8.57069e-07
2.16668e-06
5.51612e-06
1.0112e-05
1.53166e-05
1.91597e-05
1.95387e-05
1.63715e-05
1.20805e-05
9.79785e-06
1.11208e-05
1.52015e-05
1.96067e-05
2.19931e-05
2.1323e-05
1.8052e-05
1.35214e-05
9.13233e-06
5.78481e-06
3.72965e-06
2.73133e-06
2.34705e-06
2.1618e-06
1.91643e-06
1.5301e-06
1.0561e-06
6.0555e-07
2.71045e-07
8.30538e-08
1.14876e-08
0
0
0
0
0
0
0
0
0
0
0
0
0
0
0
0
0
0
0
0
5.57917e-64
5.22907e-63
8.94795e-64
0
0
3.93302e-57
2.59005e-59
0
0
8.2269e-46
4.12822e-45
4.46713e-45
0
0
3.68937e-40
9.19751e-39
2.64927e-38
2.33832e-38
8.30916e-39
1.74799e-40
0
1.27493e-36
2.0715e-35
1.64555e-06
3.01281e-06
6.5956e-06
8.63265e-06
7.70667e-06
4.78848e-06
1.82994e-06
4.67435e-07
1.26056e-06
3.71721e-06
7.18179e-06
1.12843e-05
1.50222e-05
1.67788e-05
1.57006e-05
1.28089e-05
1.04822e-05
1.07746e-05
1.40328e-05
1.87904e-05
2.28095e-05
2.43662e-05
2.29675e-05
1.92838e-05
1.45717e-05
1.00406e-05
6.45861e-06
4.06789e-06
2.71655e-06
2.0614e-06
1.74298e-06
1.49525e-06
1.18975e-06
8.24937e-07
4.72462e-07
2.07919e-07
6.08026e-08
7.28205e-09
0
0
0
0
0
0
0
0
0
0
0
0
0
0
0
0
0
0
0
0
0
0
0
1.31468e-56
7.78377e-56
1.14334e-56
0
0
0
0
0
0
1.84084e-39
1.14839e-38
2.88649e-38
1.51146e-38
0
0
0
1.69306e-36
6.66238e-36
1.90421e-35
1.13192e-06
3.00397e-06
5.75741e-06
6.75412e-06
5.52866e-06
3.19445e-06
1.11566e-06
2.26161e-07
8.62489e-07
2.77919e-06
5.50899e-06
8.7453e-06
1.19991e-05
1.4242e-05
1.44952e-05
1.28479e-05
1.07309e-05
1.00507e-05
1.19191e-05
1.59564e-05
2.05862e-05
2.397e-05
2.49048e-05
2.32124e-05
1.95724e-05
1.50525e-05
1.06478e-05
7.01128e-06
4.40172e-06
2.76782e-06
1.87514e-06
1.42713e-06
1.16081e-06
9.11363e-07
6.31568e-07
3.59471e-07
1.54657e-07
4.30208e-08
4.59368e-09
0
0
0
0
0
0
0
0
0
0
0
0
0
0
0
0
0
0
1.10389e-62
8.38991e-62
1.43959e-62
0
0
0
0
0
0
6.83649e-36
2.60274e-35
3.09917e-36
0
0
0
0
0
2.01912e-31
1.87716e-32
0
0
5.21311e-38
0
9.67774e-07
2.95767e-06
4.88163e-06
5.06146e-06
3.67491e-06
1.85129e-06
5.42084e-07
1.97979e-07
9.28403e-07
2.59151e-06
4.87841e-06
7.51352e-06
1.02189e-05
1.24116e-05
1.33072e-05
1.25543e-05
1.07728e-05
9.36666e-06
9.69509e-06
1.22325e-05
1.62997e-05
2.04723e-05
2.3315e-05
2.39811e-05
2.24159e-05
1.91843e-05
1.51222e-05
1.10202e-05
7.44497e-06
4.69555e-06
2.83295e-06
1.73563e-06
1.17177e-06
8.84925e-07
6.79669e-07
4.70014e-07
2.65816e-07
1.12162e-07
3.05301e-08
3.30539e-09
0
0
0
0
0
0
0
0
0
0
0
0
0
0
0
0
0
3.5174e-62
7.00601e-62
0
5.25135e-55
8.98065e-54
2.49597e-53
3.67904e-54
0
1.28141e-36
1.70302e-35
1.51404e-35
1.3565e-36
0
2.00791e-31
1.49294e-30
2.59992e-30
1.14974e-30
4.65139e-31
2.05259e-32
0
0
0
4.10251e-31
1.01094e-06
2.81361e-06
3.96457e-06
3.57744e-06
2.21043e-06
8.92917e-07
2.6175e-07
4.59985e-07
1.42683e-06
3.03695e-06
5.0774e-06
7.30654e-06
9.51914e-06
1.14024e-05
1.24455e-05
1.22059e-05
1.07762e-05
8.97258e-06
7.99236e-06
8.75429e-06
1.13804e-05
1.51422e-05
1.88482e-05
2.13886e-05
2.21248e-05
2.10028e-05
1.84134e-05
1.4956e-05
1.12414e-05
7.7809e-06
4.9325e-06
2.87724e-06
1.60621e-06
9.47507e-07
6.48401e-07
4.84649e-07
3.36593e-07
1.904e-07
7.96347e-08
2.12683e-08
2.0359e-09
0
0
0
0
0
0
0
0
0
0
0
0
0
0
3.71814e-65
1.46755e-63
2.62132e-62
1.43135e-62
0
2.11217e-54
2.32309e-53
1.68467e-53
0
5.35572e-38
2.42521e-36
8.10268e-36
2.17241e-36
0
7.36635e-31
4.09001e-30
7.2609e-30
4.99573e-30
7.98172e-31
7.73206e-32
0
0
2.87476e-27
2.50812e-28
0
1.1292e-06
2.54675e-06
3.04236e-06
2.3421e-06
1.17476e-06
3.8714e-07
3.61441e-07
1.0558e-06
2.30574e-06
3.96593e-06
5.86487e-06
7.79427e-06
9.58053e-06
1.10576e-05
1.1951e-05
1.19098e-05
1.0778e-05
8.8871e-06
7.06126e-06
6.26656e-06
7.12025e-06
9.57784e-06
1.29732e-05
1.63429e-05
1.88156e-05
1.98647e-05
1.9369e-05
1.75239e-05
1.47089e-05
1.13866e-05
8.03819e-06
5.09971e-06
2.87575e-06
1.46198e-06
7.35572e-07
4.39945e-07
3.20712e-07
2.2744e-07
1.28817e-07
5.2825e-08
1.33754e-08
1.07822e-09
0
0
0
0
0
0
0
0
0
0
0
0
0
0
1.97358e-63
0
0
0
2.96809e-54
1.07111e-53
1.57451e-54
0
1.23825e-37
1.3632e-36
6.21511e-37
0
9.01922e-32
1.49192e-30
3.97309e-30
3.57617e-30
6.89338e-31
0
0
2.30028e-26
2.75006e-26
1.15676e-26
3.31238e-28
0
1.21841e-06
2.16632e-06
2.17594e-06
1.40078e-06
5.82799e-07
3.42491e-07
8.52898e-07
1.9655e-06
3.46537e-06
5.18363e-06
6.96122e-06
8.62088e-06
1.00191e-05
1.1071e-05
1.16693e-05
1.16116e-05
1.06932e-05
8.94046e-06
6.78051e-06
4.9656e-06
4.26086e-06
5.0856e-06
7.32362e-06
1.04052e-05
1.35823e-05
1.61514e-05
1.76334e-05
1.78154e-05
1.67046e-05
1.44844e-05
1.14979e-05
8.2229e-06
5.18522e-06
2.81114e-06
1.28831e-06
5.26663e-07
2.54564e-07
1.84344e-07
1.3882e-07
8.12643e-08
3.36197e-08
8.48773e-09
6.83354e-10
0
0
0
0
0
0
0
0
0
0
0
0
0
0
1.37064e-52
3.18042e-51
6.97118e-52
6.2688e-55
0
0
1.20317e-39
5.33781e-38
0
0
9.76353e-33
1.79212e-31
6.3001e-31
0
0
0
1.43279e-25
3.85684e-25
3.98197e-25
1.56606e-25
4.2714e-29
0
0
1.21615e-06
1.71331e-06
1.43724e-06
7.91104e-07
4.21414e-07
7.13793e-07
1.67395e-06
3.09496e-06
4.74784e-06
6.45405e-06
8.0631e-06
9.43112e-06
1.04528e-05
1.10957e-05
1.13559e-05
1.11663e-05
1.03775e-05
8.88209e-06
6.80399e-06
4.58771e-06
2.88651e-06
2.3006e-06
3.10116e-06
5.15201e-06
8.00043e-06
1.10603e-05
1.37718e-05
1.56915e-05
1.651e-05
1.60533e-05
1.43295e-05
1.15898e-05
8.33069e-06
5.17769e-06
2.67359e-06
1.0794e-06
3.19135e-07
9.70259e-08
8.58991e-08
8.24999e-08
5.27568e-08
2.24621e-08
5.66913e-09
4.0608e-10
0
0
0
0
0
0
0
0
0
0
0
0
0
0
3.63006e-51
0
0
0
0
8.08812e-40
0
1.56413e-34
3.67763e-33
2.45556e-32
7.47126e-32
0
1.9843e-26
2.36988e-25
6.76261e-25
1.1485e-24
1.15374e-24
7.50391e-25
2.68435e-25
1.42886e-25
6.72152e-27
3.66952e-26
1.10676e-06
1.25293e-06
8.95338e-07
5.30871e-07
6.45034e-07
1.40726e-06
2.69825e-06
4.28495e-06
5.94924e-06
7.5238e-06
8.87878e-06
9.91074e-06
1.05591e-05
1.083e-05
1.0776e-05
1.04218e-05
9.70234e-06
8.4944e-06
6.75061e-06
4.64269e-06
2.59131e-06
1.14542e-06
7.94757e-07
1.64289e-06
3.4981e-06
6.07299e-06
8.99101e-06
1.18249e-05
1.41404e-05
1.5515e-05
1.56008e-05
1.42527e-05
1.16568e-05
8.3508e-06
5.06893e-06
2.45918e-06
8.38348e-07
1.33948e-07
7.1006e-09
4.18318e-08
5.47463e-08
3.65858e-08
1.53623e-08
3.57514e-09
1.33985e-10
0
0
0
4.42082e-18
1.59252e-18
4.87498e-20
0
0
0
0
0
0
0
0
3.56111e-48
1.1917e-46
1.23239e-47
0
0
0
1.31331e-33
8.03385e-33
1.15298e-32
0
2.77191e-26
3.04588e-25
8.61781e-25
1.22205e-24
0
0
0
0
2.1074e-25
1.55714e-26
9.83945e-26
9.17277e-07
8.61498e-07
6.02114e-07
6.06737e-07
1.17149e-06
2.28719e-06
3.75364e-06
5.33814e-06
6.85282e-06
8.16283e-06
9.17547e-06
9.83448e-06
1.01246e-05
1.00807e-05
9.77831e-06
9.28778e-06
8.61245e-06
7.66936e-06
6.35322e-06
4.65974e-06
2.77764e-06
1.0816e-06
9.78466e-08
1.18377e-07
8.64032e-07
2.3724e-06
4.61938e-06
7.3874e-06
1.033e-05
1.29918e-05
1.48312e-05
1.5338e-05
1.42381e-05
1.16818e-05
8.27093e-06
4.85253e-06
2.17432e-06
6.03527e-07
3.44876e-08
0
3.1529e-08
3.95074e-08
2.55549e-08
1.00022e-08
1.93421e-09
0
0
0
9.16899e-19
1.17647e-18
2.44768e-19
8.23843e-23
0
0
0
0
0
1.62625e-51
0
6.21093e-48
0
0
3.41398e-38
3.43443e-37
0
0
2.89106e-33
0
4.65587e-27
6.49416e-26
0
0
0
9.23868e-24
2.3489e-23
1.52611e-23
3.10434e-24
0
0
8.46764e-26
7.04758e-07
6.09444e-07
5.78317e-07
9.65702e-07
1.88164e-06
3.18815e-06
4.64962e-06
6.05898e-06
7.27506e-06
8.21178e-06
8.82511e-06
9.10683e-06
9.08032e-06
8.79817e-06
8.33685e-06
7.7748e-06
7.15149e-06
6.43333e-06
5.5262e-06
4.34961e-06
2.92925e-06
1.44903e-06
3.02005e-07
0
7.91762e-09
4.51977e-07
1.60578e-06
3.55828e-06
6.2031e-06
9.25233e-06
1.22134e-05
1.4426e-05
1.52327e-05
1.42572e-05
1.16431e-05
8.07687e-06
4.53285e-06
1.865e-06
4.40512e-07
4.08909e-09
0
2.5283e-08
2.8913e-08
1.72552e-08
5.9416e-09
8.38323e-10
0
0
0
2.69519e-19
1.42868e-19
7.30097e-21
0
0
0
0
0
0
0
0
2.06487e-41
0
2.76018e-38
0
1.52968e-33
6.0459e-32
9.78077e-33
0
4.54966e-28
0
2.68852e-24
1.28167e-23
1.4815e-23
4.0133e-24
0
0
1.95791e-24
2.41068e-24
2.3161e-24
5.06727e-27
5.38202e-07
5.43898e-07
8.0287e-07
1.51287e-06
2.62737e-06
3.93617e-06
5.21261e-06
6.29866e-06
7.11164e-06
7.62144e-06
7.83365e-06
7.78019e-06
7.50999e-06
7.08096e-06
6.55653e-06
6.00012e-06
5.45707e-06
4.92775e-06
4.35494e-06
3.65191e-06
2.7645e-06
1.73327e-06
7.58983e-07
2.05054e-07
0
0
2.21268e-07
1.09466e-06
2.81281e-06
5.37468e-06
8.5335e-06
1.17507e-05
1.42509e-05
1.52446e-05
1.4277e-05
1.15144e-05
7.76228e-06
4.14546e-06
1.57775e-06
3.16533e-07
0
0
2.03572e-08
2.08271e-08
1.0971e-08
3.13681e-09
2.6468e-10
0
0
0
0
6.97532e-22
2.93682e-23
0
0
0
0
6.81454e-36
3.61169e-37
0
0
2.20433e-40
3.51919e-39
0
3.13036e-33
3.55185e-32
0
3.40903e-27
2.22737e-26
0
0
1.95588e-23
8.05041e-23
1.40532e-22
1.61609e-22
1.00026e-22
0
0
2.3171e-24
2.08866e-24
4.77415e-07
6.74513e-07
1.20932e-06
2.11931e-06
3.25077e-06
4.37876e-06
5.32391e-06
5.99428e-06
6.36922e-06
6.47028e-06
6.34204e-06
6.04088e-06
5.6247e-06
5.14479e-06
4.6444e-06
4.1621e-06
3.73032e-06
3.36244e-06
3.03563e-06
2.68978e-06
2.25447e-06
1.69324e-06
1.05245e-06
5.04043e-07
1.56382e-07
0
0
9.45888e-08
7.65605e-07
2.31336e-06
4.83335e-06
8.10768e-06
1.15462e-05
1.42583e-05
1.53316e-05
1.42575e-05
1.12697e-05
7.33347e-06
3.70492e-06
1.28211e-06
2.03328e-07
0
0
1.55733e-08
1.43702e-08
6.47778e-09
1.40933e-09
1.24791e-11
0
0
0
0
1.69637e-24
4.5117e-26
0
0
0
0
5.28482e-38
1.37054e-40
0
5.70425e-41
0
7.74859e-35
1.40489e-33
0
0
2.1879e-27
0
1.49098e-24
1.37776e-23
1.06001e-23
0
1.12068e-22
3.23341e-22
5.08999e-22
5.13208e-22
2.57695e-22
0
0
5.54891e-07
9.66394e-07
1.69267e-06
2.64171e-06
3.61314e-06
4.41817e-06
4.9509e-06
5.19077e-06
5.17153e-06
4.95122e-06
4.59458e-06
4.16315e-06
3.70787e-06
3.26441e-06
2.85412e-06
2.49106e-06
2.18865e-06
1.95827e-06
1.79748e-06
1.67767e-06
1.54593e-06
1.34453e-06
1.03964e-06
6.64542e-07
3.30803e-07
1.08462e-07
7.40008e-09
0
3.11292e-08
5.6268e-07
1.99751e-06
4.51599e-06
7.91859e-06
1.15525e-05
1.44031e-05
1.54429e-05
1.41482e-05
1.08737e-05
6.76651e-06
3.1856e-06
9.70066e-07
1.08185e-07
0
0
1.1088e-08
9.15986e-09
3.42384e-09
4.94654e-10
0
0
0
0
0
0
0
0
0
0
0
8.49162e-47
2.40928e-42
0
0
5.66779e-35
0
1.61949e-29
7.54497e-27
0
0
6.40636e-25
1.61768e-23
1.42938e-22
3.80202e-22
0
0
0
0
7.45262e-22
4.29097e-22
1.72411e-23
7.64177e-07
1.34339e-06
2.12791e-06
2.95132e-06
3.62695e-06
4.03813e-06
4.16085e-06
4.0365e-06
3.73474e-06
3.32831e-06
2.88081e-06
2.44153e-06
2.04306e-06
1.7011e-06
1.41781e-06
1.18904e-06
1.0126e-06
8.92071e-07
8.31879e-07
8.2568e-07
8.47282e-07
8.51492e-07
7.85672e-07
6.18163e-07
4.00901e-07
2.03965e-07
7.05138e-08
9.15781e-09
0
4.35821e-09
4.43134e-07
1.81668e-06
4.37694e-06
7.92649e-06
1.17279e-05
1.46288e-05
1.55046e-05
1.38702e-05
1.02605e-05
6.02724e-06
2.58963e-06
6.62957e-07
3.49866e-08
0
3.70698e-09
8.21216e-09
5.24775e-09
1.53779e-09
1.19474e-10
0
0
0
2.26408e-19
8.14151e-20
2.03368e-21
0
0
0
0
0
0
5.49751e-37
4.90952e-36
9.20255e-36
0
5.74526e-29
0
2.468e-25
0
0
3.16675e-24
8.87491e-23
9.49886e-22
4.28367e-21
1.36579e-20
2.36993e-20
1.56747e-20
0
5.0129e-22
3.72247e-23
1.05787e-06
1.70313e-06
2.39775e-06
2.96547e-06
3.28076e-06
3.31326e-06
3.10959e-06
2.75041e-06
2.31652e-06
1.8729e-06
1.4646e-06
1.11767e-06
8.41781e-07
6.33712e-07
4.82107e-07
3.73494e-07
2.98162e-07
2.53413e-07
2.42345e-07
2.68533e-07
3.28065e-07
4.01072e-07
4.49774e-07
4.32185e-07
3.47927e-07
2.30118e-07
1.18907e-07
4.23772e-08
7.13411e-09
0
0
3.79089e-07
1.74048e-06
4.38774e-06
8.09763e-06
1.20174e-05
1.48478e-05
1.54037e-05
1.33163e-05
9.36909e-06
5.10968e-06
1.94871e-06
3.88191e-07
0
0
5.42116e-09
5.69784e-09
2.67829e-09
5.63072e-10
0
0
0
0
6.02451e-20
1.38974e-20
4.26658e-23
0
0
0
0
0
1.51894e-37
1.22057e-35
0
0
1.00012e-29
0
0
8.03875e-24
2.8845e-23
0
0
1.99381e-21
1.62556e-20
4.60164e-20
6.85012e-20
4.67941e-20
3.01934e-20
1.5346e-21
0
1.35744e-06
1.94204e-06
2.42318e-06
2.67151e-06
2.64647e-06
2.39416e-06
2.00444e-06
1.56753e-06
1.15103e-06
7.95388e-07
5.17938e-07
3.19002e-07
1.87719e-07
1.07584e-07
6.14221e-08
3.55505e-08
2.14842e-08
1.52734e-08
1.64313e-08
2.87101e-08
5.99552e-08
1.1333e-07
1.75865e-07
2.20289e-07
2.24224e-07
1.86815e-07
1.25829e-07
6.54549e-08
2.3665e-08
4.52704e-09
0
0
3.54216e-07
1.75228e-06
4.52499e-06
8.3855e-06
1.23333e-05
1.49302e-05
1.50001e-05
1.2388e-05
8.17063e-06
4.05253e-06
1.31861e-06
1.73388e-07
0
0
4.18254e-09
3.47168e-09
1.24092e-09
1.53373e-10
0
0
0
0
8.15433e-21
7.7189e-22
0
0
0
0
0
3.20123e-38
0
4.12216e-34
2.1586e-32
0
0
0
2.3186e-23
2.7482e-22
6.22891e-22
6.50251e-22
3.43384e-21
2.0802e-20
4.47009e-20
1.23662e-20
0
7.42456e-20
4.24387e-21
0
1.57413e-06
1.98458e-06
2.18727e-06
2.1334e-06
1.86295e-06
1.46904e-06
1.0496e-06
6.76422e-07
3.87115e-07
1.90154e-07
7.4727e-08
1.95087e-08
1.33539e-09
0
0
0
0
0
0
0
0
6.56825e-09
3.18413e-08
6.94795e-08
1.00792e-07
1.10351e-07
9.54442e-08
6.52776e-08
3.41762e-08
1.25683e-08
2.50359e-09
0
0
3.62157e-07
1.83912e-06
4.75545e-06
8.71584e-06
1.25499e-05
1.47204e-05
1.41614e-05
1.10271e-05
6.70292e-06
2.94275e-06
7.64867e-07
4.39507e-08
0
0
2.48016e-09
1.79633e-09
5.01038e-10
2.45029e-11
0
0
0
0
8.64444e-23
3.78864e-24
0
0
0
0
0
0
6.18017e-33
1.56787e-31
1.4437e-31
3.26505e-32
0
5.33123e-23
6.58467e-22
1.66204e-21
1.71801e-21
2.91031e-21
8.51529e-21
9.01369e-21
6.66867e-20
4.6584e-19
5.51015e-20
0
2.60849e-11
1.6363e-06
1.80756e-06
1.74254e-06
1.47532e-06
1.09772e-06
7.1066e-07
3.88582e-07
1.67334e-07
4.70693e-08
3.32074e-09
0
0
0
0
0
0
0
0
0
0
0
0
0
6.65138e-09
2.45729e-08
4.29485e-08
5.12756e-08
4.62312e-08
3.23059e-08
1.72894e-08
6.6282e-09
1.45611e-09
0
0
3.99006e-07
1.98291e-06
5.02732e-06
8.98551e-06
1.25187e-05
1.40686e-05
1.28032e-05
9.26286e-06
5.08285e-06
1.90012e-06
3.51892e-07
0
0
1.62058e-09
1.83992e-09
8.26553e-10
1.3493e-10
0
0
0
0
0
2.49632e-25
6.76018e-27
0
0
0
0
0
3.11796e-32
3.35809e-31
2.74096e-31
0
1.13533e-25
6.96714e-23
5.78434e-22
1.06213e-21
7.7635e-22
2.6201e-22
0
0
1.73871e-18
1.05142e-18
3.3396e-20
0
2.03866e-09
1.5143e-06
1.44975e-06
1.19629e-06
8.44497e-07
4.9591e-07
2.25002e-07
6.42219e-08
4.0532e-09
0
0
0
0
0
5.71267e-12
1.65812e-11
3.33383e-11
5.54535e-11
8.35164e-11
1.20618e-10
1.6472e-10
2.015e-10
0
0
0
4.9685e-10
7.52e-09
1.68735e-08
2.23982e-08
2.13791e-08
1.56724e-08
8.9724e-09
3.91765e-09
1.11227e-09
0
0
4.59197e-07
2.15627e-06
5.27024e-06
9.07276e-06
1.20949e-05
1.28757e-05
1.09419e-05
7.23263e-06
3.48656e-06
1.05039e-06
1.08078e-07
0
0
1.36335e-09
1.05934e-09
3.05041e-10
1.36558e-11
0
0
0
0
0
2.86186e-28
4.78472e-30
0
0
0
0
5.87341e-32
1.80216e-31
0
1.23715e-25
2.76099e-24
3.67633e-23
1.93266e-22
0
0
0
4.64948e-18
9.82187e-18
6.76499e-18
5.65026e-19
0
4.18736e-10
8.57191e-09
1.23296e-06
1.00035e-06
6.75889e-07
3.62736e-07
1.35554e-07
2.19657e-08
0
0
0
0
1.35216e-12
6.16773e-12
1.77461e-11
4.22883e-11
8.37649e-11
1.42424e-10
2.15455e-10
3.03582e-10
4.16937e-10
5.68846e-10
7.52598e-10
8.85903e-10
8.2934e-10
3.74531e-10
0
0
1.79299e-09
5.94375e-09
9.41334e-09
1.0095e-08
8.31591e-09
5.65308e-09
3.2408e-09
1.26612e-09
0
0
5.3392e-07
2.3218e-06
5.40039e-06
8.85763e-06
1.11801e-05
1.1146e-05
8.72214e-06
5.16022e-06
2.11255e-06
4.68859e-07
4.80762e-09
0
8.09081e-11
7.35426e-10
4.35036e-10
7.70525e-11
0
0
0
0
0
0
1.26979e-31
1.10174e-33
0
0
2.55986e-33
3.02626e-32
0
2.92188e-27
2.7146e-25
2.08453e-24
6.33138e-24
0
3.89527e-18
2.92465e-17
6.64154e-17
8.30263e-17
4.64975e-17
4.1079e-18
0
0
4.12617e-09
2.09624e-08
8.64177e-07
5.68209e-07
2.83876e-07
8.83752e-08
6.65386e-09
0
0
0
1.05563e-12
5.41404e-12
1.51217e-11
3.3923e-11
6.9057e-11
1.29794e-10
2.23149e-10
3.49455e-10
5.03827e-10
6.84538e-10
9.03125e-10
1.18648e-09
1.55949e-09
1.99228e-09
2.3458e-09
2.40151e-09
1.9026e-09
8.73368e-10
0
1.76672e-10
2.59274e-09
5.10374e-09
6.2744e-09
6.16162e-09
5.33838e-09
3.91801e-09
1.77325e-09
0
9.84851e-11
6.09427e-07
2.43297e-06
5.33386e-06
8.25887e-06
9.77259e-06
9.01758e-06
6.39374e-06
3.30539e-06
1.095e-06
1.46232e-07
0
0
5.3979e-10
4.85263e-10
1.48278e-10
6.97495e-12
0
0
0
0
0
0
0
0
8.21197e-35
1.93432e-33
4.14037e-33
0
1.45128e-26
2.29373e-25
4.59942e-25
0
3.31218e-18
5.52828e-17
1.75608e-16
2.81092e-16
2.06087e-16
5.66348e-17
7.45849e-19
0
1.98716e-09
1.39613e-08
3.78637e-08
5.00638e-07
2.4109e-07
6.57502e-08
1.93188e-09
0
0
0
2.59503e-12
9.9085e-12
2.52007e-11
5.22563e-11
9.70892e-11
1.69345e-10
2.80902e-10
4.40959e-10
6.5087e-10
9.04025e-10
1.19362e-09
1.52572e-09
1.92895e-09
2.45041e-09
3.11393e-09
3.87676e-09
4.55535e-09
4.82812e-09
4.39081e-09
3.18017e-09
1.92952e-09
2.21507e-09
3.6724e-09
5.22902e-09
6.34683e-09
6.96638e-09
6.91995e-09
5.49283e-09
2.48833e-09
0
9.66052e-09
6.68731e-07
2.44306e-06
5.0163e-06
7.27363e-06
7.99014e-06
6.73553e-06
4.24754e-06
1.85675e-06
4.57741e-07
1.92145e-08
0
0
3.28926e-10
2.04797e-10
3.49956e-11
0
0
0
0
0
0
0
5.78664e-37
8.86289e-35
3.8741e-34
0
1.09317e-28
1.61827e-26
7.85924e-26
2.54651e-27
0
3.31089e-17
1.84313e-16
4.08046e-16
3.61668e-16
1.49383e-16
2.09615e-17
0
4.45867e-10
1.00506e-08
3.07375e-08
5.50433e-08
2.19616e-07
5.74479e-08
8.64305e-10
0
0
6.23038e-13
4.20623e-12
1.3717e-11
3.32935e-11
6.76679e-11
1.21934e-10
2.02829e-10
3.20125e-10
4.85866e-10
7.10092e-10
9.95191e-10
1.33364e-09
1.71348e-09
2.13177e-09
2.60921e-09
3.19679e-09
3.95793e-09
4.92781e-09
6.04117e-09
7.08001e-09
7.67025e-09
7.48395e-09
6.56768e-09
5.83243e-09
5.77977e-09
6.32773e-09
7.2595e-09
8.40004e-09
9.4686e-09
9.64525e-09
7.53146e-09
3.25047e-09
0
2.38627e-08
6.94743e-07
2.32351e-06
4.44586e-06
5.98969e-06
6.04263e-06
4.58284e-06
2.50574e-06
8.80671e-07
1.34066e-07
0
0
2.50066e-10
2.37081e-10
7.22995e-11
2.12831e-12
0
0
0
0
0
0
0
2.52181e-35
0
7.60328e-30
7.74792e-28
9.05072e-27
5.71562e-27
0
6.51535e-18
9.67735e-17
3.05848e-16
2.54754e-16
1.5558e-16
9.85404e-18
0
0
8.37006e-09
2.87733e-08
5.22639e-08
6.71364e-08
5.66815e-08
1.01937e-09
0
0
1.26639e-12
6.05906e-12
1.72994e-11
3.92358e-11
7.72763e-11
1.36944e-10
2.23133e-10
3.40947e-10
4.97483e-10
7.02219e-10
9.64051e-10
1.28588e-09
1.66074e-09
2.07441e-09
2.51607e-09
2.99496e-09
3.55277e-09
4.26455e-09
5.21236e-09
6.43273e-09
7.8459e-09
9.20591e-09
1.01478e-08
1.03596e-08
9.93242e-09
9.30312e-09
8.91201e-09
9.05827e-09
9.8817e-09
1.13029e-08
1.27752e-08
1.28228e-08
9.59712e-09
3.50985e-09
0
3.62758e-08
6.76213e-07
2.07367e-06
3.67707e-06
4.5612e-06
4.17023e-06
2.78562e-06
1.27241e-06
3.27703e-07
1.65527e-08
0
0
1.84146e-10
1.24723e-10
2.71036e-11
0
0
0
0
0
0
0
5.70406e-37
0
1.28128e-28
1.22505e-27
2.36501e-27
0
2.32963e-19
2.53469e-17
1.38904e-16
1.70573e-16
4.76971e-17
0
0
4.45986e-09
1.7115e-08
3.92817e-08
6.2192e-08
7.4302e-08
7.07745e-08
1.92121e-09
0
0
2.011e-12
8.00373e-12
2.08184e-11
4.41302e-11
8.26238e-11
1.41619e-10
2.25694e-10
3.37577e-10
4.78844e-10
6.52149e-10
8.62721e-10
1.11687e-09
1.41757e-09
1.76005e-09
2.13185e-09
2.51957e-09
2.9228e-09
3.36844e-09
3.92083e-09
4.6726e-09
5.71412e-09
7.07927e-09
8.68062e-09
1.02722e-08
1.14868e-08
1.19834e-08
1.17939e-08
1.12717e-08
1.09014e-08
1.11436e-08
1.22839e-08
1.42328e-08
1.61067e-08
1.5787e-08
1.12462e-08
3.18012e-09
0
4.40503e-08
6.12266e-07
1.71914e-06
2.80433e-06
3.16536e-06
2.5742e-06
1.46872e-06
5.2688e-07
7.86835e-08
0
0
1.78042e-10
2.02728e-10
9.16946e-11
1.6662e-11
0
0
0
0
0
0
0
6.09865e-30
2.4801e-28
6.73836e-28
9.11234e-29
0
3.02393e-18
3.39381e-17
7.42369e-17
2.90968e-17
0
4.01552e-09