/*--------------------------------*- C++ -*----------------------------------*\
  =========                 |
  \\      /  F ield         | OpenFOAM: The Open Source CFD Toolbox
   \\    /   O peration     | Website:  https://openfoam.org
    \\  /    A nd           | Version:  7
     \\/     M anipulation  |
\*---------------------------------------------------------------------------*/
FoamFile
{
    version     2.0;
    format      ascii;
    class       volScalarField;
    location    "35";
    object      k1Write;
}
// * * * * * * * * * * * * * * * * * * * * * * * * * * * * * * * * * * * * * //

dimensions      [0 2 0 0 0 0 0];

internalField   nonuniform List<scalar> 
49920
(
1.40906e-16
1.16636e-19
3.39749e-21
7.18156e-21
6.91402e-21
1.44836e-20
8.993e-21
2.09816e-21
3.83933e-21
9.46966e-21
7.25787e-21
3.80287e-21
6.39913e-21
2.45236e-21
1.35361e-20
2.95339e-18
1.7073e-15
2.7403e-11
0.000167073
0.000167073
0.000167073
0.000167073
0.000167073
0.000167074
0.000167074
0.000167074
0.000167074
0.000167074
0.000167074
0.000167074
0.000167074
0.000167074
0.000167074
0.000167074
0.000167074
0.000167074
0.000167074
0.000167074
0.000167074
0.000167074
0.000167074
0.000167074
0.000167073
0.000167073
0.000167073
0.000167073
0.000167073
0.000167073
0.000167073
0.000167073
0.000167073
0.000167073
0.000167073
0.000167073
0.000167073
0.000167073
0.000167072
0.000167072
0.000167072
0.000167072
0.000167072
0.000167071
0.000167072
0.00016707
0.000167072
0.00016707
0.000167074
0.000167069
0.000167075
0.00016707
0.000167077
0.00016707
0.000167079
0.000167072
0.000167082
0.000167075
0.000167083
0.000167077
0.000167083
0.00016708
1.31257e-16
8.30837e-18
4.90359e-19
1.17549e-20
1.11134e-20
4.59663e-20
6.75461e-21
3.40649e-20
8.16759e-21
1.18574e-20
1.57763e-20
9.44216e-21
4.90515e-21
3.44963e-20
1.1939e-18
3.02947e-17
2.85934e-15
3.71594e-09
0.000167073
0.000167073
0.000167073
0.000167073
0.000167074
0.000167074
0.000167074
0.000167074
0.000167074
0.000167074
0.000167074
0.000167074
0.000167074
0.000167074
0.000167074
0.000167074
0.000167074
0.000167074
0.000167074
0.000167074
0.000167074
0.000167074
0.000167074
0.000167074
0.000167074
0.000167074
0.000167073
0.000167073
0.000167073
0.000167073
0.000167073
0.000167073
0.000167073
0.000167073
0.000167073
0.000167073
0.000167073
0.000167073
0.000167072
0.000167072
0.000167072
0.000167072
0.000167071
0.000167072
0.00016707
0.000167072
0.000167068
0.000167073
0.000167068
0.000167074
0.000167067
0.000167077
0.000167068
0.00016708
0.00016707
0.000167084
0.000167074
0.000167088
0.000167079
0.000167089
0.000167085
0.000167089
7.38144e-16
3.59648e-16
1.90544e-17
1.41487e-18
1.29905e-18
2.93226e-18
1.18959e-18
2.49041e-18
1.27155e-18
4.68656e-20
4.36232e-20
4.90735e-20
2.1387e-19
2.21453e-18
2.61493e-17
3.70856e-16
8.58276e-15
1.231e-12
0.000167073
0.000167073
0.000167073
0.000167074
0.000167074
0.000167074
0.000167074
0.000167074
0.000167074
0.000167074
0.000167074
0.000167074
0.000167074
0.000167074
0.000167074
0.000167074
0.000167074
0.000167074
0.000167074
0.000167074
0.000167074
0.000167074
0.000167074
0.000167074
0.000167073
0.000167073
0.000167073
0.000167073
0.000167073
0.000167073
0.000167073
0.000167073
0.000167073
0.000167073
0.000167073
0.000167073
0.000167073
0.000167072
0.000167072
0.000167072
0.000167072
0.000167071
0.000167071
0.00016707
0.000167071
0.000167069
0.00016707
0.000167068
0.00016707
0.000167068
0.000167071
0.00016707
0.000167074
0.000167072
0.000167077
0.000167077
0.000167082
0.000167083
0.000167087
0.00016709
0.000167091
0.00016709
5.85066e-15
2.84619e-14
4.02043e-16
4.02883e-17
3.11187e-17
6.31544e-17
2.86133e-17
5.34626e-17
2.7258e-17
4.78678e-18
2.90404e-18
2.83675e-18
7.06263e-18
2.06903e-17
4.48359e-16
6.122e-15
5.56358e-14
1.14955e-12
2.31618e-10
0.000167074
0.000167073
0.000167074
0.000167074
0.000167074
0.000167074
0.000167074
0.000167074
0.000167074
0.000167074
0.000167074
0.000167074
0.000167074
0.000167074
0.000167074
0.000167074
0.000167074
0.000167074
0.000167074
0.000167074
0.000167073
0.000167073
0.000167073
0.000167073
0.000167073
0.000167073
0.000167073
0.000167073
0.000167073
0.000167073
0.000167073
0.000167073
0.000167073
0.000167073
0.000167073
0.000167073
0.000167072
0.000167072
0.000167072
0.000167071
0.000167071
0.00016707
0.000167069
0.00016707
0.000167068
0.000167069
0.000167067
0.00016707
0.000167066
0.000167072
0.000167067
0.000167075
0.000167069
0.000167079
0.000167074
0.000167086
0.000167081
0.000167092
0.00016709
0.000167095
0.000167094
4.70872e-14
0.000167074
7.79525e-15
8.32069e-16
4.74166e-16
1.00143e-15
5.33109e-16
9.34107e-16
4.72724e-16
2.62833e-16
4.29673e-17
6.5946e-17
1.95679e-16
6.91747e-16
6.89544e-15
8.34326e-14
4.06135e-13
2.14369e-12
4.53556e-11
8.10928e-09
0.000167074
0.000167074
0.000167074
0.000167074
0.000167074
0.000167074
0.000167074
0.000167074
0.000167074
0.000167074
0.000167074
0.000167074
0.000167074
0.000167074
0.000167074
0.000167074
0.000167074
0.000167074
0.000167073
0.000167073
0.000167073
0.000167073
0.000167073
0.000167073
0.000167073
0.000167073
0.000167073
0.000167073
0.000167073
0.000167073
0.000167073
0.000167073
0.000167072
0.000167072
0.000167072
0.000167072
0.000167071
0.000167071
0.00016707
0.000167071
0.000167069
0.00016707
0.000167068
0.000167069
0.000167067
0.000167068
0.000167066
0.000167069
0.000167066
0.00016707
0.000167069
0.000167074
0.000167073
0.000167079
0.00016708
0.000167087
0.000167089
0.000167094
0.000167096
0.000167098
3.05978e-13
0.000167074
1.72986e-13
1.84589e-14
6.79138e-15
1.27838e-14
8.97409e-15
1.19718e-14
6.12847e-15
1.87912e-14
1.10665e-15
2.46322e-15
6.77773e-15
3.02455e-14
1.08404e-13
6.98629e-13
2.21257e-12
4.60264e-12
2.63006e-11
4.9202e-10
8.51178e-08
0.000167074
0.000167074
0.000167074
0.000167074
0.000167074
0.000167074
0.000167074
0.000167074
0.000167074
0.000167074
0.000167074
0.000167074
0.000167074
0.000167074
0.000167074
0.000167073
0.000167073
0.000167073
0.000167073
0.000167073
0.000167073
0.000167073
0.000167073
0.000167073
0.000167073
0.000167073
0.000167073
0.000167073
0.000167073
0.000167073
0.000167072
0.000167072
0.000167072
0.000167072
0.000167071
0.000167071
0.000167071
0.000167071
0.00016707
0.000167069
0.000167069
0.000167068
0.000167068
0.000167066
0.000167068
0.000167064
0.000167069
0.000167063
0.000167072
0.000167064
0.000167076
0.000167068
0.000167083
0.000167076
0.000167091
0.000167086
0.000167098
0.000167097
0.000167099
1.32498e-12
7.36415e-10
6.66525e-12
6.60575e-13
9.37404e-14
1.21486e-13
1.29319e-13
1.15526e-13
6.32757e-14
2.49677e-10
4.85179e-14
1.81736e-13
1.02346e-12
8.149e-09
2.67495e-12
3.37151e-12
6.66052e-12
8.89965e-12
2.24294e-11
1.36279e-10
2.35851e-09
2.26196e-07
0.000167074
0.000167074
0.000167074
0.000167074
0.000167074
0.000167074
0.000167074
0.000167074
0.000167074
0.000167074
0.000167074
0.000167074
0.000167074
0.000167073
0.000167073
0.000167073
0.000167073
0.000167073
0.000167073
0.000167073
0.000167073
0.000167073
0.000167073
0.000167073
0.000167073
0.000167073
0.000167073
0.000167073
0.000167072
0.000167072
0.000167072
0.000167072
0.000167071
0.000167071
0.000167071
0.000167071
0.00016707
0.000167069
0.000167069
0.000167068
0.000167068
0.000167065
0.000167068
0.000167062
0.000167069
0.00016706
0.000167071
0.000167059
0.000167075
0.000167061
0.000167082
0.000167067
0.00016709
0.000167078
0.000167096
0.000167096
0.000167099
0.000167099
3.59513e-12
5.88145e-10
0.000167075
0.000167074
1.3134e-12
7.76838e-13
1.22309e-12
7.34151e-13
4.35093e-13
0.000167074
0.000167074
0.000167074
0.000167075
0.000167075
1.35428e-09
1.4258e-11
1.30136e-11
1.4305e-11
2.23687e-11
6.70975e-11
4.119e-10
5.55728e-09
3.84347e-07
0.000167074
0.000167074
0.000167074
0.000167074
0.000167074
0.000167074
0.000167074
0.000167074
0.000167074
0.000167074
0.000167074
0.000167073
0.000167073
0.000167073
0.000167073
0.000167073
0.000167073
0.000167073
0.000167073
0.000167073
0.000167073
0.000167073
0.000167073
0.000167073
0.000167073
0.000167073
0.000167073
0.000167072
0.000167072
0.000167072
0.000167072
0.000167072
0.000167071
0.000167071
0.00016707
0.00016707
0.000167069
0.000167068
0.000167068
0.000167066
0.000167067
0.000167063
0.000167067
0.00016706
0.000167068
0.000167058
0.000167071
0.000167058
0.000167076
0.000167062
0.000167084
0.000167073
0.000167092
0.000167093
0.000167098
0.000167101
0.000167097
6.76147e-12
6.09293e-10
0.000167075
0.000167075
2.18278e-11
3.38721e-12
5.38068e-12
2.67416e-12
1.66602e-12
6.73735e-11
0.000167074
0.000167074
0.000167075
0.000167075
0.000167076
5.88626e-11
2.46333e-11
2.11986e-11
2.45406e-11
4.57577e-11
1.47331e-10
8.28352e-10
1.01345e-08
5.51175e-07
0.000167074
0.000167074
0.000167074
0.000167074
0.000167074
0.000167074
0.000167074
0.000167074
0.000167074
0.000167074
0.000167073
0.000167073
0.000167073
0.000167073
0.000167073
0.000167073
0.000167073
0.000167073
0.000167073
0.000167073
0.000167073
0.000167073
0.000167073
0.000167073
0.000167073
0.000167073
0.000167073
0.000167072
0.000167072
0.000167072
0.000167072
0.000167072
0.000167071
0.000167071
0.00016707
0.000167069
0.000167069
0.000167067
0.000167067
0.000167064
0.000167066
0.000167061
0.000167065
0.000167058
0.000167066
0.000167057
0.00016707
0.000167059
0.000167076
0.000167068
0.000167085
0.000167088
0.000167094
0.000167102
0.000167095
0.000167098
1.02647e-11
5.16347e-10
0.000167076
0.000167075
2.33557e-09
1.1723e-11
1.20882e-11
6.01359e-12
3.69345e-12
2.3704e-11
5.42994e-09
0.000167074
0.000167074
0.000167076
0.000167076
3.64978e-10
5.84093e-11
3.44102e-11
3.05995e-11
4.00961e-11
8.16709e-11
2.61736e-10
1.41946e-09
1.54409e-08
5.78699e-07
0.000167074
0.000167074
0.000167074
0.000167074
0.000167074
0.000167074
0.000167074
0.000167074
0.000167074
0.000167073
0.000167073
0.000167073
0.000167073
0.000167073
0.000167073
0.000167073
0.000167073
0.000167073
0.000167073
0.000167073
0.000167073
0.000167073
0.000167073
0.000167073
0.000167073
0.000167073
0.000167073
0.000167072
0.000167072
0.000167072
0.000167072
0.000167071
0.000167071
0.00016707
0.00016707
0.000167068
0.000167068
0.000167066
0.000167066
0.000167063
0.000167064
0.000167061
0.000167063
0.000167059
0.000167063
0.00016706
0.000167066
0.000167066
0.000167073
0.000167081
0.000167086
0.000167098
0.000167092
0.000167097
0.000167092
1.41581e-11
3.88239e-10
7.74762e-09
1.94669e-07
0.000167075
3.8828e-11
2.16422e-11
1.06684e-11
5.99523e-12
1.24597e-11
3.96736e-10
0.000167074
0.000167075
0.000167076
0.000167077
8.8761e-09
2.12283e-10
7.21247e-11
4.68771e-11
4.50222e-11
6.37266e-11
1.33867e-10
4.26546e-10
2.1785e-09
2.06122e-08
6.00451e-07
0.000167074
0.000167074
0.000167074
0.000167074
0.000167074
0.000167074
0.000167074
0.000167073
0.000167073
0.000167073
0.000167073
0.000167073
0.000167073
0.000167072
0.000167073
0.000167073
0.000167073
0.000167073
0.000167073
0.000167073
0.000167073
0.000167073
0.000167073
0.000167073
0.000167073
0.000167073
0.000167073
0.000167072
0.000167072
0.000167071
0.000167072
0.00016707
0.00016707
0.000167069
0.000167069
0.000167067
0.000167067
0.000167066
0.000167064
0.000167064
0.000167061
0.000167063
0.000167058
0.000167063
0.000167058
0.000167066
0.000167062
0.000167075
0.000167074
0.00016709
0.000167085
0.000167095
0.000167088
0.000167094
1.91369e-11
2.99752e-10
9.1923e-10
3.9274e-09
0.000167075
1.69077e-10
4.16445e-11
1.82327e-11
8.90356e-12
8.97336e-12
8.58551e-11
3.28528e-09
1.69417e-06
0.000167076
0.000167077
0.000167077
1.49441e-09
2.30553e-10
9.76312e-11
6.7239e-11
6.83352e-11
1.00511e-10
2.12933e-10
6.60311e-10
3.15586e-09
2.70634e-08
6.15269e-07
0.000167074
0.000167074
0.000167074
0.000167074
0.000167074
0.000167074
0.000167074
0.000167073
0.000167073
0.000167073
0.000167073
0.000167072
0.000167073
0.000167073
0.000167073
0.000167073
0.000167073
0.000167073
0.000167073
0.000167073
0.000167073
0.000167073
0.000167073
0.000167073
0.000167073
0.000167072
0.000167072
0.000167072
0.000167072
0.000167071
0.000167071
0.00016707
0.00016707
0.000167068
0.000167068
0.000167067
0.000167065
0.000167065
0.000167062
0.000167064
0.000167058
0.000167064
0.000167055
0.000167066
0.000167056
0.000167071
0.000167063
0.00016708
0.000167076
0.000167089
0.000167082
0.00016709
0.000167086
2.6557e-11
2.62054e-10
3.25699e-10
6.05838e-10
2.27987e-08
1.49305e-09
9.84684e-11
3.32265e-11
1.37737e-11
8.83523e-12
3.32262e-11
2.61325e-10
4.87118e-09
1.76386e-06
0.000167077
0.000167078
4.90257e-08
1.45855e-09
3.18821e-10
1.43826e-10
1.02752e-10
1.07672e-10
1.6014e-10
3.35531e-10
1.00413e-09
4.53901e-09
3.46855e-08
6.23145e-07
0.000137507
0.000167074
0.000167074
0.000167074
0.000167074
0.000167073
0.000167074
0.000167073
0.000167073
0.000167072
0.000167073
0.000167073
0.000167073
0.000167073
0.000167072
0.000167072
0.000167072
0.000167072
0.000167073
0.000167073
0.000167073
0.000167072
0.000167072
0.000167072
0.000167072
0.000167072
0.000167072
0.000167071
0.000167071
0.00016707
0.00016707
0.000167069
0.000167069
0.000167068
0.000167067
0.000167066
0.000167064
0.000167065
0.00016706
0.000167064
0.000167057
0.000167065
0.000167055
0.000167067
0.000167058
0.000167073
0.000167067
0.000167081
0.000167075
0.000167086
0.00016708
0.000167087
3.89149e-11
2.71928e-10
1.98344e-10
2.15605e-10
1.90182e-09
4.45918e-08
2.99877e-10
6.73274e-11
2.34097e-11
1.12417e-11
1.98168e-11
6.92917e-11
5.11361e-10
1.30254e-08
0.000167078
0.000167078
0.000167078
4.18265e-08
2.1642e-09
5.02509e-10
2.30535e-10
1.67189e-10
1.76097e-10
2.60038e-10
5.32179e-10
1.53135e-09
6.45504e-09
4.45862e-08
6.74597e-07
6.39109e-05
0.000167074
0.000167074
0.000167074
0.000167073
0.000167073
0.000167073
0.000167072
0.000167073
0.000167072
0.000167072
0.000167072
0.000167072
0.000167072
0.000167072
0.000167072
0.000167072
0.000167072
0.000167072
0.000167072
0.000167072
0.000167072
0.000167072
0.000167071
0.000167071
0.000167071
0.000167071
0.00016707
0.00016707
0.000167069
0.00016707
0.000167068
0.000167068
0.000167067
0.000167066
0.000167066
0.000167063
0.000167065
0.00016706
0.000167065
0.000167057
0.000167066
0.000167057
0.000167069
0.000167062
0.000167075
0.000167069
0.00016708
0.000167074
0.000167081
0.000167079
6.11874e-11
3.38359e-10
1.69424e-10
1.25584e-10
4.93269e-10
2.4459e-08
1.11086e-09
1.53386e-10
4.39499e-11
1.72716e-11
1.68291e-11
3.41685e-11
1.38792e-10
1.31303e-09
5.3478e-08
4.4048e-05
2.3168e-06
0.000167078
4.39392e-08
3.35605e-09
8.4897e-10
3.96305e-10
2.86883e-10
2.98922e-10
4.31869e-10
8.54525e-10
2.33705e-09
9.23594e-09
5.84725e-08
7.4342e-07
4.1891e-05
0.000167074
0.000167073
0.000167073
0.000167073
0.000167072
0.000167073
0.000167072
0.000167072
0.000167072
0.000167071
0.000167071
0.000167071
0.000167071
0.000167071
0.000167071
0.000167071
0.000167071
0.000167071
0.000167071
0.000167071
0.000167071
0.000167071
0.00016707
0.000167071
0.00016707
0.00016707
0.00016707
0.00016707
0.000167069
0.000167069
0.000167069
0.000167068
0.000167068
0.000167066
0.000167067
0.000167064
0.000167066
0.000167061
0.000167066
0.000167059
0.000167067
0.000167061
0.000167071
0.000167065
0.000167075
0.00016707
0.000167076
0.000167075
0.000167078
1.04089e-10
4.96554e-10
1.81299e-10
1.01507e-10
2.31181e-10
2.63155e-09
3.61167e-09
3.8847e-10
8.94875e-11
3.01924e-11
1.9084e-11
2.54621e-11
6.49854e-11
3.29639e-10
4.01108e-09
7.05704e-08
3.69631e-08
2.3469e-08
2.3316e-08
1.34332e-08
4.22152e-09
1.44289e-09
7.11959e-10
5.13953e-10
5.23584e-10
7.31236e-10
1.38432e-09
3.59269e-09
1.33197e-08
7.67706e-08
8.56561e-07
3.78105e-05
0.000167073
0.000167073
0.000167072
0.000167072
0.000167072
0.000167071
0.000167071
0.000167071
0.000167071
0.00016707
0.00016707
0.00016707
0.00016707
0.00016707
0.00016707
0.00016707
0.00016707
0.00016707
0.00016707
0.00016707
0.00016707
0.00016707
0.00016707
0.00016707
0.00016707
0.00016707
0.00016707
0.00016707
0.00016707
0.00016707
0.00016707
0.000167069
0.00016707
0.000167068
0.000167069
0.000167066
0.000167067
0.000167064
0.000167066
0.000167063
0.000167067
0.000167065
0.000167069
0.000167068
0.00016707
0.000167072
0.000167071
0.000167073
1.92304e-10
8.23398e-10
2.23657e-10
1.02864e-10
1.61524e-10
8.90315e-10
5.84978e-09
1.05517e-09
1.93379e-10
5.74289e-11
2.71879e-11
2.57215e-11
4.46375e-11
1.42093e-10
8.71077e-10
6.30044e-09
5.67466e-09
2.51714e-09
2.03405e-09
2.71618e-09
4.1063e-09
3.92585e-09
2.26623e-09
1.28871e-09
9.42635e-10
9.34766e-10
1.25243e-09
2.25733e-09
5.54171e-09
1.92197e-08
1.03284e-07
1.07177e-06
4.10747e-05
0.000167072
0.000167071
0.000167072
0.000167071
0.000167071
0.00016707
0.00016707
0.000167069
0.00016707
0.000167069
0.000167069
0.000167069
0.000167069
0.000167068
0.000167069
0.000167068
0.000167069
0.000167068
0.000167069
0.000167069
0.000167069
0.000167069
0.00016707
0.00016707
0.000167071
0.000167071
0.000167072
0.000167071
0.000167072
0.000167072
0.000167072
0.000167072
0.000167071
0.000167071
0.000167069
0.00016707
0.000167067
0.000167068
0.000167065
0.000167068
0.000167064
0.000167068
0.000167064
0.000167068
0.000167064
0.000167067
0.000167066
3.86813e-10
1.43084e-09
2.96202e-10
1.21602e-10
1.50943e-10
5.59521e-10
5.13214e-09
2.89604e-09
4.39248e-10
1.15614e-10
4.58626e-11
3.27699e-11
4.10616e-11
8.9597e-11
3.36927e-10
1.48e-09
1.77298e-09
8.16466e-10
5.17696e-10
5.39439e-10
8.50838e-10
1.70048e-09
2.94623e-09
3.03249e-09
2.22089e-09
1.71461e-09
1.67096e-09
2.14734e-09
3.67988e-09
8.54902e-09
2.81345e-08
1.44484e-07
1.42696e-06
5.07627e-05
0.000167071
0.00016707
0.00016707
0.000167069
0.000167069
0.000167069
0.000167069
0.000167068
0.000167068
0.000167068
0.000167068
0.000167067
0.000167067
0.000167067
0.000167067
0.000167067
0.000167068
0.000167068
0.000167069
0.000167069
0.00016707
0.00016707
0.000167071
0.000167071
0.000167072
0.000167072
0.000167074
0.000167074
0.000167074
0.000167075
0.000167074
0.000167075
0.000167073
0.000167074
0.00016707
0.000167073
0.000167067
0.000167071
0.000167064
0.000167069
0.000167061
0.000167065
0.000167059
0.000167062
0.00016706
0.000167061
8.5005e-10
2.3471e-09
3.97276e-10
1.58982e-10
1.74686e-10
5.12319e-10
4.27822e-09
7.58313e-09
1.05751e-09
2.43585e-10
8.67317e-11
4.9771e-11
4.74577e-11
7.53209e-11
1.92754e-10
5.93927e-10
8.28231e-10
4.4088e-10
2.44491e-10
2.00356e-10
2.43489e-10
4.16607e-10
9.13746e-10
2.06193e-09
3.33088e-09
3.40436e-09
2.97002e-09
2.92642e-09
3.64786e-09
5.98065e-09
1.32798e-08
4.20322e-08
2.0913e-07
2.02906e-06
7.45999e-05
0.00016707
0.000167069
0.000167069
0.000167068
0.000167068
0.000167068
0.000167067
0.000167067
0.000167067
0.000167066
0.000167066
0.000167066
0.000167066
0.000167066
0.000167067
0.000167067
0.000167067
0.000167068
0.000167069
0.000167069
0.00016707
0.000167071
0.000167072
0.000167073
0.000167074
0.000167074
0.000167076
0.000167076
0.000167076
0.000167077
0.000167076
0.000167077
0.000167075
0.000167076
0.000167072
0.000167074
0.000167068
0.00016707
0.000167063
0.000167065
0.000167058
0.000167058
0.000167058
0.000167055
0.000167057
2.04472e-09
3.30607e-09
5.21506e-10
2.21753e-10
2.3682e-10
6.1053e-10
4.40773e-09
1.89943e-08
2.75722e-09
5.36231e-10
1.7542e-10
8.56582e-11
6.52815e-11
7.89443e-11
1.46957e-10
3.41724e-10
5.10867e-10
3.26128e-10
1.71409e-10
1.17246e-10
1.12887e-10
1.50113e-10
2.66223e-10
5.94806e-10
1.47087e-09
3.11069e-09
4.44048e-09
4.71409e-09
4.93332e-09
6.11115e-09
9.7156e-09
2.08461e-08
6.4199e-08
3.1603e-07
3.14989e-06
0.000132553
0.000167069
0.000167069
0.000167068
0.000167068
0.000167067
0.000167067
0.000167066
0.000167066
0.000167066
0.000167066
0.000167066
0.000167066
0.000167066
0.000167066
0.000167067
0.000167067
0.000167068
0.000167069
0.000167069
0.00016707
0.000167071
0.000167073
0.000167074
0.000167075
0.000167076
0.000167077
0.000167077
0.000167078
0.000167078
0.000167079
0.000167078
0.000167078
0.000167076
0.000167076
0.000167073
0.000167072
0.000167068
0.000167066
0.00016706
0.000167058
0.000167057
0.000167053
0.000167055
0.000167052
5.29987e-09
3.90473e-09
6.68002e-10
3.24358e-10
3.63511e-10
8.99304e-10
5.98436e-09
5.05038e-08
7.90249e-09
1.21922e-09
3.62798e-10
1.5813e-10
1.01054e-10
9.71713e-11
1.38407e-10
2.54199e-10
3.86441e-10
2.99964e-10
1.60534e-10
9.6499e-11
7.66923e-11
8.1588e-11
1.13835e-10
2.02903e-10
4.44809e-10
1.10857e-09
2.66689e-09
4.97273e-09
6.73436e-09
7.93795e-09
1.01008e-08
1.58453e-08
3.32603e-08
1.01167e-07
5.04958e-07
5.37798e-06
0.000167069
0.000167069
0.000167068
0.000167068
0.000167067
0.000167067
0.000167066
0.000167066
0.000167066
0.000167065
0.000167065
0.000167065
0.000167066
0.000167066
0.000167067
0.000167067
0.000167068
0.000167069
0.00016707
0.00016707
0.000167072
0.000167073
0.000167074
0.000167075
0.000167076
0.000167077
0.000167078
0.000167078
0.000167079
0.000167079
0.000167079
0.000167079
0.000167078
0.000167077
0.000167075
0.000167073
0.000167069
0.000167066
0.00016706
0.000167059
0.000167054
0.000167056
0.000167052
0.000167056
1.37007e-08
4.08714e-09
8.52802e-10
4.9781e-10
6.24623e-10
1.61793e-09
1.10785e-08
1.69791e-07
2.3347e-08
2.68483e-09
7.19253e-10
2.91332e-10
1.64387e-10
1.31769e-10
1.50489e-10
2.26108e-10
3.37631e-10
3.19551e-10
1.88385e-10
1.05066e-10
7.13003e-11
6.24806e-11
7.03222e-11
9.97562e-11
1.74706e-10
3.67969e-10
8.89323e-10
2.24183e-09
5.02697e-09
8.73004e-09
1.22111e-08
1.65927e-08
2.62079e-08
5.45128e-08
1.66191e-07
8.58121e-07
1.00344e-05
0.000167069
0.000167069
0.000167068
0.000167067
0.000167067
0.000167066
0.000167066
0.000167065
0.000167065
0.000167065
0.000167065
0.000167066
0.000167066
0.000167067
0.000167067
0.000167068
0.000167069
0.00016707
0.000167071
0.000167071
0.000167072
0.000167073
0.000167074
0.000167075
0.000167076
0.000167077
0.000167078
0.000167079
0.000167079
0.00016708
0.000167079
0.000167079
0.000167077
0.000167077
0.000167073
0.000167071
0.000167067
0.000167064
0.00016706
0.000167059
0.000167056
0.000167059
0.000167057
2.89556e-08
4.11123e-09
1.11919e-09
8.13242e-10
1.21372e-09
3.63551e-09
2.98052e-08
7.25307e-07
4.98711e-08
4.80305e-09
1.22238e-09
4.8506e-10
2.57657e-10
1.82893e-10
1.7656e-10
2.24738e-10
3.22161e-10
3.67243e-10
2.6113e-10
1.45702e-10
8.7534e-11
6.4563e-11
5.98069e-11
6.88459e-11
9.68357e-11
1.63722e-10
3.272e-10
7.54642e-10
1.91468e-09
4.84245e-09
1.05506e-08
1.82144e-08
2.75309e-08
4.4664e-08
9.30036e-08
2.87087e-07
1.55095e-06
2.00438e-05
0.000167068
0.000167068
0.000167067
0.000167067
0.000167066
0.000167066
0.000167065
0.000167066
0.000167065
0.000167066
0.000167066
0.000167067
0.000167067
0.000167068
0.000167068
0.000167069
0.000167069
0.00016707
0.000167071
0.000167072
0.000167072
0.000167074
0.000167074
0.000167075
0.000167076
0.000167077
0.000167077
0.000167078
0.000167078
0.000167078
0.000167078
0.000167078
0.000167077
0.000167075
0.000167074
0.000167071
0.00016707
0.000167067
0.000167066
0.000167066
0.000167065
0.000167068
3.96114e-08
4.241e-09
1.5568e-09
1.44814e-09
2.74705e-09
1.08247e-08
1.26249e-07
9.465e-07
4.30413e-08
5.52396e-09
1.55882e-09
6.57145e-10
3.55254e-10
2.40816e-10
2.09492e-10
2.35375e-10
3.19659e-10
4.22841e-10
3.94676e-10
2.47918e-10
1.39628e-10
8.85101e-11
6.82418e-11
6.45031e-11
7.38254e-11
1.00793e-10
1.62217e-10
3.05457e-10
6.69283e-10
1.68254e-09
4.62234e-09
1.23147e-08
2.7018e-08
4.73725e-08
8.03053e-08
1.67926e-07
5.25019e-07
2.9488e-06
3.97996e-05
0.000167067
0.000167067
0.000167066
0.000167066
0.000167065
0.000167066
0.000167065
0.000167066
0.000167065
0.000167066
0.000167066
0.000167067
0.000167067
0.000167068
0.000167068
0.000167069
0.000167069
0.00016707
0.00016707
0.000167071
0.000167071
0.000167073
0.000167073
0.000167074
0.000167074
0.000167075
0.000167076
0.000167076
0.000167077
0.000167077
0.000167078
0.000167078
0.000167079
0.000167077
0.000167078
0.000167076
0.000167076
0.000167074
0.000167074
0.000167075
0.000167074
3.63008e-08
4.68642e-09
2.36033e-09
2.89881e-09
7.59298e-09
4.65311e-08
5.4149e-07
1.75337e-07
1.82227e-08
4.02237e-09
1.43903e-09
6.94908e-10
4.09405e-10
2.85335e-10
2.39509e-10
2.49003e-10
3.19458e-10
4.60801e-10
5.80759e-10
4.84063e-10
2.86433e-10
1.61791e-10
1.04421e-10
8.10883e-11
7.57814e-11
8.40939e-11
1.0941e-10
1.65842e-10
2.93552e-10
6.1274e-10
1.52476e-09
4.48111e-09
1.43791e-08
4.13213e-08
8.8237e-08
1.57936e-07
3.27435e-07
1.0233e-06
5.84962e-06
8.20102e-05
0.000167067
0.000167067
0.000167066
0.000167066
0.000167065
0.000167066
0.000167065
0.000167066
0.000167065
0.000167066
0.000167066
0.000167067
0.000167067
0.000167068
0.000167067
0.000167068
0.000167068
0.000167069
0.000167069
0.00016707
0.00016707
0.000167071
0.000167071
0.000167072
0.000167073
0.000167074
0.000167075
0.000167076
0.000167077
0.000167079
0.000167081
0.000167081
0.000167083
0.000167083
0.000167083
0.000167082
0.000167082
0.000167081
0.000167081
0.000167081
2.90956e-08
5.72002e-09
4.0082e-09
6.76327e-09
2.68825e-08
2.47532e-07
2.83982e-07
3.32817e-08
6.97819e-09
2.35868e-09
1.07855e-09
6.10665e-10
4.04177e-10
3.0341e-10
2.59741e-10
2.61542e-10
3.19351e-10
4.69708e-10
7.44018e-10
9.44689e-10
7.31736e-10
4.04394e-10
2.20414e-10
1.3889e-10
1.04783e-10
9.40066e-11
9.88794e-11
1.20798e-10
1.71462e-10
2.86116e-10
5.74138e-10
1.42641e-09
4.48575e-09
1.73563e-08
6.85625e-08
1.91663e-07
3.60665e-07
7.1713e-07
2.23556e-06
1.32939e-05
0.000167067
0.000167066
0.000167066
0.000167065
0.000167065
0.000167065
0.000167065
0.000167065
0.000167066
0.000167065
0.000167066
0.000167066
0.000167067
0.000167066
0.000167067
0.000167067
0.000167067
0.000167067
0.000167068
0.000167068
0.000167068
0.000167069
0.000167069
0.00016707
0.000167071
0.000167073
0.000167075
0.000167076
0.000167079
0.00016708
0.000167081
0.000167084
0.000167085
0.000167087
0.000167087
0.000167088
0.000167086
0.000167086
0.000167086
0.000167085
2.49909e-08
7.90545e-09
7.83568e-09
1.89075e-08
1.09228e-07
3.1628e-07
5.10005e-08
9.60327e-09
3.08933e-09
1.38068e-09
7.65573e-10
4.99174e-10
3.69572e-10
3.02677e-10
2.72436e-10
2.75147e-10
3.24438e-10
4.6412e-10
8.06909e-10
1.50455e-09
2.0434e-09
1.43437e-09
6.91656e-10
3.42639e-10
2.01088e-10
1.42203e-10
1.19303e-10
1.16878e-10
1.32938e-10
1.76817e-10
2.80602e-10
5.48632e-10
1.37975e-09
4.69432e-09
2.23508e-08
1.33742e-07
5.72452e-07
1.09163e-06
1.92499e-06
5.61735e-06
3.28202e-05
0.000167066
0.000167065
0.000167065
0.000167065
0.000167065
0.000167065
0.000167065
0.000167065
0.000167066
0.000167066
0.000167066
0.000167066
0.000167066
0.000167066
0.000167066
0.000167066
0.000167067
0.000167067
0.000167067
0.000167067
0.000167068
0.000167069
0.00016707
0.000167072
0.000167073
0.000167074
0.000167077
0.000167079
0.000167082
0.000167084
0.000167087
0.000167089
0.00016709
0.00016709
0.00016709
0.00016709
0.000167089
0.000167089
0.000167088
2.5084e-08
1.26387e-08
1.79603e-08
5.92798e-08
2.08908e-07
7.28162e-08
1.324e-08
3.87308e-09
1.64578e-09
8.90629e-10
5.70629e-10
4.17089e-10
3.39536e-10
3.01333e-10
2.8768e-10
2.9753e-10
3.44483e-10
4.7024e-10
8.0135e-10
1.76262e-09
4.45248e-09
7.00915e-09
3.85744e-09
1.39762e-09
5.79578e-10
3.03247e-10
1.9559e-10
1.50659e-10
1.36091e-10
1.43945e-10
1.8066e-10
2.76167e-10
5.34525e-10
1.38376e-09
5.18971e-09
3.184e-08
3.64237e-07
3.94054e-06
5.0275e-06
5.45033e-06
1.33282e-05
7.35237e-05
0.000167065
0.000167066
0.000167065
0.000167066
0.000167065
0.000167066
0.000167065
0.000167066
0.000167066
0.000167066
0.000167066
0.000167066
0.000167066
0.000167066
0.000167066
0.000167066
0.000167066
0.000167067
0.000167067
0.000167068
0.000167068
0.00016707
0.000167072
0.000167074
0.000167076
0.000167079
0.000167082
0.000167084
0.000167087
0.00016709
0.000167092
0.000167092
0.000167093
0.000167092
0.000167092
0.000167091
0.00016709
0.00016709
3.02878e-08
2.3633e-08
4.6281e-08
1.31643e-07
8.91682e-08
1.87337e-08
5.09574e-09
2.02058e-09
1.04819e-09
6.55371e-10
4.706e-10
3.77698e-10
3.32735e-10
3.16297e-10
3.19477e-10
3.41559e-10
3.94094e-10
5.14145e-10
8.14075e-10
1.72112e-09
5.52471e-09
2.82762e-08
5.87328e-08
1.37446e-08
3.03165e-09
1.00585e-09
4.589e-10
2.65297e-10
1.85526e-10
1.54107e-10
1.52416e-10
1.82611e-10
2.73001e-10
5.31952e-10
1.44377e-09
6.13411e-09
5.27817e-08
2.06756e-06
0.000167067
2.11991e-05
1.23772e-05
2.77143e-05
0.000157186
0.000167065
0.000167067
0.000167065
0.000167067
0.000167066
0.000167067
0.000167066
0.000167067
0.000167066
0.000167066
0.000167066
0.000167066
0.000167066
0.000167066
0.000167067
0.000167066
0.000167067
0.000167067
0.000167068
0.000167069
0.000167071
0.000167073
0.000167076
0.000167078
0.000167081
0.000167084
0.000167087
0.00016709
0.000167092
0.000167094
0.000167095
0.000167095
0.000167094
0.000167094
0.000167093
0.000167092
0.00016709
4.40935e-08
4.99883e-08
1.02334e-07
1.0078e-07
2.70332e-08
7.092e-09
2.63308e-09
1.30193e-09
7.89998e-10
5.56776e-10
4.4066e-10
3.8358e-10
3.61912e-10
3.65072e-10
3.87997e-10
4.30062e-10
5.00151e-10
6.30717e-10
9.191e-10
1.70855e-09
4.80837e-09
3.17114e-08
3.87488e-06
2.64739e-06
4.96921e-08
6.59124e-09
1.73849e-09
6.79757e-10
3.47638e-10
2.1978e-10
1.68644e-10
1.57683e-10
1.82986e-10
2.71833e-10
5.42272e-10
1.57541e-09
7.84665e-09
1.01844e-07
3.11891e-05
0.000167067
3.7317e-05
2.37669e-05
5.68041e-05
0.000167067
0.000167065
0.000167067
0.000167066
0.000167067
0.000167066
0.000167067
0.000167066
0.000167066
0.000167066
0.000167066
0.000167066
0.000167066
0.000167066
0.000167066
0.000167067
0.000167067
0.000167068
0.000167069
0.00016707
0.000167072
0.000167074
0.000167077
0.000167079
0.000167082
0.000167085
0.000167088
0.00016709
0.000167092
0.000167094
0.000167094
0.000167094
0.000167094
0.000167094
0.000167093
0.000167092
0.00016709
7.46958e-08
9.98875e-08
1.10929e-07
3.97824e-08
1.04785e-08
3.65003e-09
1.71607e-09
1.01057e-09
7.00957e-10
5.5016e-10
4.76345e-10
4.47329e-10
4.49943e-10
4.79264e-10
5.33771e-10
6.13733e-10
7.25377e-10
8.9636e-10
1.21478e-09
1.96087e-09
4.32349e-09
1.76682e-08
4.06742e-07
0.000167074
0.000167073
1.816e-07
1.4387e-08
2.92996e-09
9.64096e-10
4.33343e-10
2.48686e-10
1.78252e-10
1.5987e-10
1.82495e-10
2.73642e-10
5.68639e-10
1.80544e-09
1.06653e-08
1.91167e-07
0.000167066
0.000167066
5.80323e-05
4.43755e-05
0.000124592
0.000167067
0.000167066
0.000167067
0.000167066
0.000167067
0.000167067
0.000167066
0.000167066
0.000167066
0.000167066
0.000167066
0.000167066
0.000167066
0.000167067
0.000167067
0.000167068
0.000167069
0.00016707
0.000167071