/*--------------------------------*- C++ -*----------------------------------*\
  =========                 |
  \\      /  F ield         | OpenFOAM: The Open Source CFD Toolbox
   \\    /   O peration     | Website:  https://openfoam.org
    \\  /    A nd           | Version:  7
     \\/     M anipulation  |
\*---------------------------------------------------------------------------*/
FoamFile
{
    version     2.0;
    format      ascii;
    class       volScalarField;
    location    "35";
    object      k2Write;
}
// * * * * * * * * * * * * * * * * * * * * * * * * * * * * * * * * * * * * * //

dimensions      [0 2 0 0 0 0 0];

internalField   nonuniform List<scalar> 
49920
(
6.89385e-08
5.70644e-11
1.66222e-12
3.51356e-12
3.38268e-12
7.08607e-12
4.39981e-12
1.02652e-12
1.87838e-12
4.63302e-12
3.5509e-12
1.86055e-12
3.13077e-12
1.19981e-12
6.62257e-12
1.44496e-09
8.35297e-07
0.0134068
81739.9
81739.8
81740.1
81740.2
81740.5
81740.7
81741
81741.2
81741.5
81741.6
81741.7
81741.7
81741.7
81741.7
81741.7
81741.6
81741.6
81741.4
81741.4
81741.2
81741.2
81741
81740.9
81740.8
81740.7
81740.5
81740.4
81740.3
81740.2
81739.9
81739.8
81739.6
81739.4
81739.5
81739.3
81739.2
81738.7
81738.9
81738.1
81738.1
81738.1
81737
81737.7
81735.8
81737.8
81734.1
81738.3
81733
81740.7
81731.8
81743.4
81732
81748.5
81733.4
81752.7
81736.8
81758.4
81743.1
81761.9
81749.2
81761.6
81754.8
6.42179e-08
4.06488e-09
2.39908e-10
5.75109e-12
5.43719e-12
2.24888e-11
3.30467e-12
1.66661e-11
3.99596e-12
5.80119e-12
7.71846e-12
4.61952e-12
2.39982e-12
1.68772e-11
5.84117e-10
1.48218e-08
1.39894e-06
1.81803
81740
81740
81740.1
81740.5
81740.7
81741.1
81741.3
81741.6
81741.7
81741.9
81742
81741.9
81742
81741.9
81741.9
81741.8
81741.7
81741.7
81741.5
81741.5
81741.3
81741.2
81741
81740.9
81740.8
81740.7
81740.6
81740.5
81740.1
81740.1
81739.8
81740
81740
81739.7
81739.4
81739.3
81738.9
81738.5
81738.1
81738.2
81736.7
81737.4
81734.7
81737
81732.3
81737
81729.6
81738.9
81727.9
81742.2
81726.5
81748.1
81728.6
81755.2
81732.4
81763.2
81741.4
81771.2
81752.5
81774.9
81765.1
81774.8
3.61142e-07
1.75959e-07
9.32241e-09
6.92228e-10
6.35565e-10
1.43462e-09
5.82009e-10
1.21844e-09
6.22108e-10
2.29289e-11
2.13425e-11
2.40091e-11
1.04636e-10
1.08346e-09
1.27936e-08
1.81443e-07
4.19916e-06
0.00060227
81740.5
81740.3
81740.4
81740.7
81740.9
81741.3
81741.5
81741.7
81741.9
81742
81741.6
81742
81741.6
81741.9
81741.6
81741.7
81741.5
81741.5
81741.3
81741.2
81741.1
81740.9
81740.8
81740.7
81740.6
81740.6
81740.4
81740.2
81740.2
81740.1
81740.5
81740.2
81740.2
81739.7
81740
81739.1
81739.5
81738.4
81738.5
81737
81737.3
81735
81735.7
81732.8
81734.3
81730.4
81733.3
81729.3
81733.9
81729.2
81735.8
81732.4
81741
81738.3
81748.1
81748.4
81758.9
81761.8
81770.1
81776.3
81779.2
81777
2.8625e-06
1.39251e-05
1.967e-07
1.97112e-08
1.52249e-08
3.08985e-08
1.39991e-08
2.61566e-08
1.3336e-08
2.34196e-09
1.42081e-09
1.38789e-09
3.45542e-09
1.01229e-08
2.19361e-07
2.99522e-06
2.72201e-05
0.000562424
0.113319
81740.8
81740.6
81740.9
81741
81741.5
81741.6
81741.9
81741.9
81741.6
81741.7
81741.5
81741.7
81741.6
81741.7
81741.4
81741.5
81741.1
81741.2
81740.8
81740.8
81740.6
81740.5
81740.4
81740.4
81740.2
81740.2
81740
81740.3
81740.4
81740.3
81739.9
81739.9
81740.1
81739.7
81739.1
81738.6
81738.1
81737.4
81736.7
81735.9
81734.6
81734.1
81731.9
81732.4
81728.9
81731.8
81726.4
81732.8
81724.8
81736.4
81725.9
81743.3
81730.7
81753.6
81741
81767.2
81756.7
81781.3
81776.8
81788.5
81784.5
2.30381e-05
81742
3.81385e-06
4.07092e-07
2.31987e-07
4.8995e-07
2.60824e-07
4.57011e-07
2.31281e-07
1.28592e-07
2.10219e-08
3.22642e-08
9.57367e-08
3.38438e-07
3.37364e-06
4.08199e-05
0.000198705
0.00104881
0.0221904
3.96747
81741.3
81740.8
81741.5
81741.2
81741.9
81741.5
81741.9
81741.4
81741.6
81741.3
81741.7
81741.5
81741.6
81741.4
81741.1
81741.1
81740.7
81740.7
81740.4
81740.3
81740.1
81740
81739.8
81739.8
81739.6
81740
81739.9
81740.1
81739.6
81740
81739.5
81739.7
81738.4
81738.3
81737.2
81737.3
81736
81736.1
81734.1
81734.3
81731.6
81732.3
81728.8
81730.4
81726.1
81729.5
81724.6
81730.2
81725.2
81733.9
81729.9
81741.3
81739.5
81753.3
81755.2
81769.1
81775
81785.1
81789.6
81793.8
0.000149705
81742.6
8.46338e-05
9.03114e-06
3.3227e-06
6.25451e-06
4.39059e-06
5.85723e-06
2.99835e-06
9.19365e-06
5.41428e-07
1.20514e-06
3.31603e-06
1.47979e-05
5.30375e-05
0.000341812
0.00108252
0.00225187
0.0128677
0.240723
41.644
81741.5
81741.1
81741.7
81741.4
81741.8
81741.3
81741.6
81741.2
81741.7
81741.3
81741.5
81741.2
81741.2
81740.9
81740.7
81740.6
81740.3
81740
81739.8
81739.6
81739.4
81739.4
81739.2
81739.5
81739.2
81739.3
81739.5
81739.9
81739.5
81739.2
81738.2
81737.9
81736.6
81736.9
81735.6
81736
81734.2
81734.2
81732.3
81731.4
81730.2
81727.9
81728.6
81724.1
81728.3
81720.4
81730.5
81718.7
81736.5
81720.9
81746.7
81729.2
81761.7
81745.1
81778.5
81767.7
81793.4
81792.2
81795.7
0.000648275
0.3603
0.00326104
0.00032319
4.58629e-05
5.94377e-05
6.32698e-05
5.65213e-05
3.09577e-05
0.122155
2.37374e-05
8.89149e-05
0.000500737
3.98699
0.00130876
0.00164957
0.00325876
0.00435424
0.0109737
0.0666753
1.15391
110.667
81741.4
81741.5
81741.5
81741.5
81741.5
81741.4
81741.5
81741.4
81741.4
81741.2
81741.1
81740.9
81740.7
81740.5
81740.3
81740
81739.7
81739.4
81739.1
81739.2
81738.9
81739.2
81738.9
81739.1
81739.9
81739.7
81739.8
81739.1
81738.4
81737.9
81736.8
81736.9
81735.9
81736.2
81734.7
81734.6
81733
81731.8
81730.8
81727.7
81729
81722.5
81728.2
81716.6
81729.9
81711.4
81734.9
81709.4
81744.6
81713.4
81758.8
81726.6
81775.6
81751.3
81790.1
81790.3
81795.9
81796.9
0.001759
0.28776
81743.4
81742.5
0.000642588
0.000380072
0.000598404
0.000359185
0.00021287
81741.7
81741.3
81742
81743.1
81744.1
0.662613
0.00697609
0.00636716
0.00699888
0.010944
0.0328278
0.201524
2.71892
188.043
81741.3
81741.5
81741.3
81741.5
81741.4
81741.5
81741.3
81741.4
81741.1
81741
81740.7
81740.6
81740.2
81740.1
81739.7
81739.4
81739.1
81739.1
81738.8
81739.1
81738.7
81739
81740
81739.7
81740.1
81739.6
81739
81738.5
81737.7
81737.5
81736.7
81736.9
81735.8
81735.6
81734
81733.1
81731.5
81729.3
81728.9
81724.1
81726.6
81717.7
81726
81710.9
81728.2
81706.1
81735.1
81706.3
81746.9
81715.3
81763.4
81738.6
81781
81783.6
81793.6
81801.8
81791.3
0.00330826
0.298111
81744.4
81743.3
0.0106794
0.00165721
0.00263252
0.00130834
0.000815106
0.0329628
81741.6
81742
81743.4
81744.6
81746.5
0.0288002
0.0120525
0.0103718
0.0120067
0.0223872
0.0720826
0.405274
4.95833
269.664
81741.5
81741.3
81741.4
81741.4
81741.5
81741.4
81741.3
81741.2
81740.8
81740.8
81740.3
81740.4
81739.8
81739.6
81739.3
81739
81739
81739
81738.8
81738.9
81740
81739.6
81740
81739.8
81739.7
81739.1
81738.8
81738.3
81737.9
81737.6
81737.1
81736.7
81735.6
81734.6
81733.1
81731.3
81730
81726.6
81726.8
81720.5
81724
81713.5
81723.1
81707.2
81725.4
81704.4
81732.8
81709
81746
81727.7
81765
81772
81785.1
81804.1
81787.8
81794.4
0.00502236
0.252638
81745.5
81744.1
1.1427
0.00573555
0.00591424
0.00294217
0.00180703
0.0115973
2.65661
81742.8
81742.8
81745.8
81746.2
0.178578
0.0285784
0.0168361
0.0149711
0.0196174
0.0399577
0.128056
0.694471
7.55456
283.129
81741.8
81741
81741.8
81741.3
81741.7
81741.3
81741.3
81741
81740.7
81740.5
81740
81739.8
81739.5
81738.9
81739.2
81738.8
81738.9
81738.9
81739.8
81739.4
81739.7
81739.5
81739.9
81739.5
81739.6
81739
81739
81738.2
81738.2
81737.2
81737.1
81735.5
81735.1
81732.8
81732.1
81729.1
81728.5
81724.2
81724.1
81718.5
81720.1
81712.8
81717.2
81709.5
81717.8
81711.3
81724.2
81723.8
81740.5
81757.2
81768
81794.7
81781.5
81791.9
81780.5
0.00692748
0.189961
3.79074
95.2458
81743.8
0.018997
0.0105886
0.00521958
0.00293319
0.00609596
0.194105
81741.9
81744.2
81745.2
81747.9
4.34294
0.103867
0.0352889
0.0229355
0.0220274
0.0311788
0.0654948
0.20869
1.06584
10.0846
293.772
81741.8
81741.3
81741.9
81741.4
81741.7
81741.2
81741.2
81740.6
81740.6
81739.9
81740
81738.9
81739.5
81738.4
81739.1
81739
81739.4
81739.3
81739.2
81739.3
81739.5
81739.5
81739.7
81739.3
81739.5
81738.6
81738.9
81737.5
81738
81736.1
81736.4
81733.9
81734
81731
81730.5
81727.4
81725.8
81723.3
81719.7
81719.4
81713
81717
81707.4
81717.8
81706.2
81725.1
81715.3
81744.4
81741.6
81776.4
81766
81788.3
81772.2
81785.2
0.00936368
0.146667
0.449766
1.92159
81744.9
0.0827234
0.020375
0.00892049
0.00435611
0.00439026
0.042005
1.60735
828.903
81746
81748.3
81748.4
0.731199
0.112805
0.0477682
0.0328974
0.0334336
0.0491753
0.104179
0.323059
1.54402
13.2408
301.023
81741.6
81741.9
81741.7
81741.7
81741.5
81741
81741
81740
81740.5
81739.1
81740
81738.1
81739.5
81739
81739.1
81739.1
81738.8
81739
81738.9
81739.1
81739.3
81739.2
81739.3
81738.8
81738.9
81737.8
81738.1
81736.5
81736.9
81734.6
81735
81732.3
81732.2
81729.5
81728.1
81726.3
81722.2
81723.1
81714.7
81720.7
81706.6
81720.4
81700.6
81723.9
81702.2
81734.3
81718.1
81755.6
81745.1
81774.2
81759.7
81775.9
81767.7
0.0129944
0.128223
0.159361
0.296426
11.1548
0.730504
0.0481771
0.0162565
0.00673887
0.00432272
0.0162562
0.127857
2.38331
863.02
81747.7
81750.8
23.9877
0.713651
0.15599
0.0703691
0.0502721
0.0526794
0.0783489
0.164161
0.491271
2.22074
16.9699
304.878
67275.7
81742.2
81741.4
81741.6
81741.1
81740.4
81740.7
81739.4
81740.3
81737.9
81739.8
81738.7
81738.6
81738.5
81738.3
81738.3
81738.2
81738.4
81738.5
81738.6
81738.7
81738.3
81738.4
81737.6
81737.7
81736.4
81736.7
81734.9
81735.3
81733
81733.3
81730.8
81730.3
81728.1
81725.8
81725.1
81719.5
81722.3
81711.8
81720.7
81704.5
81721.4
81701.2
81726.9
81707.4
81740
81725.9
81757.8
81743.5
81767.5
81755.4
81770.3
0.0190413
0.133055
0.0970488
0.105493
0.930524
21.8177
0.146721
0.0329409
0.0114535
0.00550015
0.00969562
0.0339021
0.250196
6.3731
81749.5
81749.4
81751.1
20.4652
1.05891
0.24586
0.112792
0.081798
0.0861568
0.127224
0.260372
0.749214
3.15818
21.814
330.052
31268.7
81741.9
81741
81740.9
81740.6
81739.6
81740.2
81737.8
81739.9
81738.4
81738
81737.6
81737.6
81737.4
81737.3
81737.4
81737.4
81737.4
81737.4
81737.2
81737.3
81736.7
81736.9
81735.9
81736.1
81734.7
81735.1
81733.3
81733.9
81731.7
81732
81729.8
81729.1
81727.5
81724.5
81725
81718.3
81722.9
81711.3
81722.1
81705.7
81724.2
81705.9
81731.7
81715.2
81744.9
81730.2
81755.5
81742.8
81756.1
81752.5
0.0299394
0.16556
0.082899
0.0614472
0.24135
11.9673
0.543516
0.0750473
0.0215032
0.0084504
0.00823393
0.0167177
0.0679081
0.642445
26.1663
21552.4
1133.6
81749.9
21.4987
1.64203
0.415369
0.193896
0.140359
0.146249
0.211294
0.418081
1.14342
4.51874
28.608
363.721
20495.2
81740.8
81740.3
81739.9
81739.5
81737.8
81739.2
81738
81737.1
81736.5
81736.2
81736.1
81735.8
81735.9
81735.7
81735.7
81735.5
81735.5
81735.3
81735.2
81735.2
81734.7
81734.8
81734.1
81734.3
81733.4
81733.8
81732.7
81733.1
81731.8
81731.8
81730.5
81729.3
81728.9
81725.1
81727
81719.5
81725.3
81713.6
81724.8
81710.1
81727.5
81713
81735.1
81722.6
81744
81733
81746.4
81743.6
81749.5
0.0509318
0.242966
0.0887096
0.049667
0.113115
1.28758
1.76712
0.19007
0.0437839
0.0147723
0.00933732
0.0124581
0.0317963
0.161288
1.96258
34.5296
18.0859
11.4832
11.4081
6.57253
2.06544
0.705948
0.34833
0.251456
0.256165
0.357762
0.677286
1.75775
6.51669
37.5602
419.071
18498.7
81739.8
81738.7
81738.1
81737.5
81737.6
81735.8
81735.4
81734.5
81734.5
81733.9
81734
81733.4
81733.6
81733
81733.1
81732.6
81732.9
81732.5
81732.8
81732.5
81732.9
81732.6
81733.1
81732.9
81733.5
81733.4
81733.9
81733.7
81734.1
81733.3
81733.6
81731.7
81732.3
81728.7
81729.9
81724.4
81727
81720.2
81725
81718.7
81726.4
81722.3
81731.2
81728.9
81734
81736.9
81734.4
81739.7
0.094096
0.402893
0.109436
0.050331
0.0790325
0.435622
2.86222
0.516275
0.0946164
0.0280988
0.0133025
0.0125851
0.0218405
0.0695245
0.42621
3.08276
2.77658
1.23162
0.995235
1.32896
2.00908
1.92076
1.10877
0.63051
0.461194
0.457339
0.612764
1.1044
2.7113
9.40318
50.531
524.358
20095.2
81738
81735.6
81737.5
81734.5
81734.4
81732.9
81732.9
81731.7
81732
81731
81731.1
81730.2
81730.4
81729.6
81730
81729.3
81730.2
81729.6
81730.8
81730.4
81731.9
81731.5
81733.5
81733.1
81735.3
81734.8
81737
81736.3
81738.1
81737.2
81737.9
81737
81735.8
81735.4
81731.6
81732.5
81726.3
81729.4
81722.1
81728.2
81720.7
81728.4
81720.6
81728.7
81720.8
81726.8
81723.5
0.189272
0.700121
0.144933
0.0594997
0.0738556
0.273769
2.5111
1.41699
0.214917
0.0565681
0.0224398
0.0160338
0.0200909
0.0438388
0.164855
0.724151
0.867505
0.39949
0.253302
0.263936
0.416289
0.831978
1.44146
1.48367
1.08658
0.838884
0.817523
1.0506
1.80037
4.18255
13.7646
70.686
698.115
24834.2
81735.8
81734.1
81733.4
81731.8
81731.6
81730.2
81730.2
81729
81728.9
81727.7
81727.8
81726.8
81727.2
81726.5
81727.3
81726.9
81728.2
81728
81729.9
81729.9
81732.2
81732.3
81735.1
81735.2
81738.2
81738.2
81741
81740.9
81742.7
81742.9
81742.3
81743.5
81739.2
81742.1
81733.5
81739.2
81726.6
81735.2
81719.9
81730
81713.8
81722.6
81709.4
81715.3
81711.6
81713.2
0.41594
1.14846
0.194389
0.0777898
0.0854728
0.250673
2.09329
3.71033
0.517426
0.119183
0.0424366
0.0243523
0.0232204
0.0368535
0.094312
0.290602
0.405245
0.215718
0.119626
0.0980304
0.119132
0.203831
0.447058
1.00881
1.62965
1.6656
1.45309
1.43175
1.7847
2.92599
6.49691
20.5635
102.31
992.667
36495.7
81732.8
81731.6
81731
81729.8
81729.3
81728.1
81727.6
81726.4
81725.9
81725
81725
81724.5
81724.9
81724.8
81725.8
81726.1
81727.6
81728.3
81730.3
81731.3
81733.9
81735
81737.8
81738.9
81741.8
81742.8
81745.2
81746.2
81747.1
81748.4
81746.5
81748.5
81742.9
81746.2
81736.6
81741.5
81728.1
81733.5
81717.2
81721.2
81706.3
81708.1
81706.2
81701.1
81704.8
1.00051
1.6177
0.255177
0.108504
0.115875
0.298727
2.15665
9.29368
1.34907
0.26237
0.0858305
0.0419113
0.0319412
0.0386262
0.071904
0.167201
0.249961
0.159571
0.0838683
0.0573661
0.0552324
0.0734451
0.130252
0.291012
0.71963
1.52191
2.17251
2.30635
2.41359
2.98981
4.75321
10.1985
31.4078
154.609
1540.97
64846.6
81731.2
81730.5
81729.3
81728.5
81727.3
81726.4
81725.2
81724.5
81723.7
81723.6
81723.4
81723.7
81723.9
81724.8
81725.6
81727
81728.3
81730.2
81731.9
81734.1
81736.1
81738.5
81740.7
81743.1
81745.1
81747.4
81748.8
81750.8
81750.8
81752.3
81750.2
81751.1
81746.6
81746.8
81739.4
81738.2
81727.7
81723.8
81712.1
81706.8
81703.9
81696
81701.6
81693.9
2.59333
1.91065
0.326861
0.15871
0.177865
0.440023
2.92808
24.7108
3.86657
0.596545
0.177511
0.0773702
0.0494438
0.0475442
0.0677205
0.124376
0.189081
0.146769
0.0785469
0.0472151
0.0375235
0.0399182
0.0556949
0.0992718
0.217624
0.542368
1.30477
2.43287
3.29472
3.88352
4.94162
7.75202
16.2718
49.4932
247.035
2630.97
81731.9
81730.5
81729.7
81728.2
81727.4
81725.7
81725
81723.6
81723.4
81722.7
81723.2
81723
81724
81724.3
81725.9
81726.7
81728.8
81730
81732.6
81734
81736.9
81738.5
81741.6
81743.2
81746.3
81747.8
81750.4
81751.5
81753.1
81753.5
81753.3
81753
81750.4
81748.9
81743.2
81739.7
81730
81724.1
81712.2
81708.3
81697.6
81702.8
81693.8
81701.8
6.70406
1.99993
0.417292
0.243584
0.30563
0.791645
5.42062
83.0766
11.4233
1.31364
0.351917
0.142544
0.0804314
0.0644724
0.0736321
0.110632
0.165199
0.156352
0.092174
0.0514067
0.0348854
0.0305696
0.0344058
0.0488063
0.0854756
0.180029
0.435097
1.0968
2.45937
4.27105
5.97406
8.11767
12.8217
26.669
81.3043
419.806
4908.96
81730.8
81730
81728.4
81727.3
81725.8
81724.7
81723.6
81723.2
81722.8
81723
81723.2
81724
81724.7
81725.9
81727.1
81728.8
81730.3
81732.3
81734.2
81736.3
81738.4
81740.6
81742.8
81745
81747
81749.2
81750.6
81752.4
81752.4
81753.9
81752
81752.5
81748.3
81747.3
81739.8
81736.3
81725.8
81720.7
81711.1
81710.1
81703.8
81708.9
81705.4
14.1688
2.01175
0.54765
0.397934
0.593883
1.77886
14.5836
354.886
24.4013
2.35006
0.598089
0.237332
0.126067
0.089487
0.086389
0.109963
0.15763
0.179688
0.127767
0.0712888
0.0428281
0.0315886
0.0292612
0.0336833
0.0473771
0.0801009
0.160081
0.369201
0.936734
2.36909
5.16171
8.91104
13.4688
21.8507
45.4993
140.448
758.739
9805.58
81729.2
81729.1
81726.6
81726.3
81724.2
81724.3
81722.8
81723.7
81722.8
81724.2
81723.7
81725.7
81725.5
81727.9
81728
81730.7
81731
81733.9
81734.4
81737.4
81737.9
81741
81741.6
81744.6
81745.2
81747.8
81748.4
81750.1
81750.4
81750.8
81751
81749.5
81748.6
81744.9
81742.2
81736.2
81732.3
81726.6
81723.9
81724.5
81722.7
81728
19.3832
2.07527
0.761796
0.708612
1.34418
5.29663
61.7742
463.122
21.0599
2.70283
0.762714
0.321535
0.173823
0.11783
0.102503
0.115168
0.156408
0.206892
0.193109
0.121301
0.0683162
0.0433052
0.0333881
0.0315586
0.0361192
0.0493131
0.079364
0.149442
0.327439
0.823157
2.26142
6.02467
13.2179
23.1756
39.2869
82.152
256.846
1442.56
19470
81727.4
81727.5
81725
81725.2
81723.2
81724.1
81722.7
81724.2
81723.1
81725.1
81724.3
81726.7
81726.1
81728.7
81728.3
81731.1
81730.7
81733.5
81733.2
81736.1
81735.8
81738.7
81738.8
81741.4
81741.9
81744.1
81745.4
81746.5
81748.7
81748.6
81750.8
81749.7
81751.8
81749.2
81750
81746
81745.8
81742.4
81741.7
81743.4
81742.4
17.7634
2.29327
1.15501
1.41849
3.71546
22.7687
264.959
85.7943
8.91647
1.96815
0.70412
0.340018
0.200322
0.139615
0.117193
0.121838
0.156311
0.225467
0.284158
0.236842
0.140144
0.0791594
0.0510892
0.0396731
0.0370763
0.041143
0.0535281
0.0811373
0.143617
0.299777
0.74596
2.19228
7.03459
20.2152
43.167
77.2644
160.183
500.603
2861.59
40118.8
81725.5
81725.6
81723.5
81724.1
81722.5
81723.8
81722.5
81724.2
81723.2
81725.2
81724.3
81726.6
81725.8
81728.1
81727.4
81729.7
81729
81731.2
81730.5
81732.8
81732.7
81734.8
81735.4
81737.6
81739
81740.8
81743.2
81745.7
81748.9
81752.3
81756.2
81757.9
81760.9
81761
81762.4
81760
81759.6
81757.8
81757.2
81758
14.2378
2.79909
1.96141
3.30956
13.1546
121.125
138.96
16.2854
3.41454
1.15413
0.527746
0.298805
0.197768
0.148462
0.127094
0.127975
0.15626
0.229827
0.364039
0.462216
0.358018
0.197857
0.107841
0.067953
0.0512656
0.0459926
0.0483766
0.0590992
0.0838869
0.139978
0.280888
0.697836
2.19454
8.491
33.5418
93.7632
176.437
350.816
1093.62
6503.12
81726.1
81723.8
81723.9
81722.5
81723.2
81722.1
81723.3
81722.4
81723.9
81723.1
81724.7
81724.1
81725.7
81725.1
81726.5
81725.9
81727.4
81726.7
81728.3
81728.3
81729.3
81730.2
81731.6
81733.7
81735.9
81739.6
81743.4
81747.2
81751.7
81755.9
81756.9
81763.5
81766.5
81770.4
81770.6
81771.6
81768.8
81768
81767.8
81766.1
12.2293
3.86858
3.83443
9.25243
53.4503
154.769
24.9563
4.69917
1.51169
0.675598
0.374612
0.244256
0.180839
0.148106
0.133308
0.134633
0.158751
0.227094
0.394812
0.736142
0.999775
0.701791
0.338402
0.16764
0.0983831
0.0695729
0.0583684
0.0571819
0.0650386
0.0865055
0.13728
0.268406
0.675003
2.29654
10.9342
65.4271
280.041
534.013
941.676
2747.91
16054.8
81724
81723
81722.5
81722.6
81722.6
81722.7
81723
81723.3
81723.5
81723.9
81724
81724.3
81724.4
81724.6
81725
81724.8
81725.7
81725.8
81726.2
81727.5
81728.4
81731.4
81733.3
81737
81740.2
81742.5
81748.1
81753
81758.8
81764.2
81770.3
81774
81777.2
81777.7
81777.4
81775.7
81774
81773.8
81771.5
12.2749
6.18488
8.78906
29.009
102.23
35.6324
6.4789
1.89525
0.805339
0.435814
0.279227
0.204094
0.166144
0.14745
0.140769
0.145587
0.16856
0.23009
0.392093
0.86241
2.17847
3.42934
1.8873
0.683798
0.283561
0.148363
0.0956914
0.073709
0.0665812
0.0704231
0.0883847
0.135109
0.261502
0.676957
2.53886
15.5761
178.182
1927.66
2459.36
2666.2
6519.85
35965.9
81722.6
81724
81722.2
81724.1
81722.8
81724.6
81723.2
81725
81723.4
81725
81723.7
81724.7
81724.2
81724.2
81724.5
81724.5
81725.4
81726
81726.8
81728.6
81729.3
81733.2
81737
81741.6
81746.9
81752.6
81758.9
81764.4
81771
81775.8
81780.5
81782
81783.1
81781.7
81780.6
81779.4
81777.4
81776.1
14.8216
11.5652
22.6483
64.4213
43.6352
9.16742
2.4936
0.988762
0.512927
0.3207
0.230283
0.184822
0.162819
0.154774
0.156329
0.167133
0.192837
0.251574
0.398321
0.842107
2.70307
13.8345
28.7357
6.72461
1.48324
0.492109
0.224515
0.129794
0.0907671
0.0753948
0.0745671
0.0893385
0.133559
0.26024
0.706308
3.00081
25.8204
1011.42
81726.7
10370.1
6054.66
13557.1
76892.1
81722.5
81725.8
81723
81725.6
81723.6
81725.9
81723.6
81725.8
81724
81724.9
81724.3
81723.9
81724.3
81723.8
81725.5
81724.9
81725.6
81726.6
81728.6
81731
81735.5
81739.5
81745.2
81750.6
81757.4
81763.6
81770.1
81775.9
81781.1
81784.5
81786.6
81786.6
81786.1
81784.6
81782.6
81781.4
81777.7
21.5776
24.4627
50.0791
49.3185
13.229
3.47053
1.28851
0.637102
0.386585
0.272457
0.215634
0.187702
0.177098
0.178643
0.189859
0.210441
0.244733
0.308615
0.44971
0.835957
2.35258
15.5152
1895.82
1295.24
24.3118
3.22474
0.850549
0.332567
0.170079
0.107525
0.0825064
0.0771434
0.0895213
0.132986
0.265284
0.770688
3.8385
49.8209
15257.1
81726
18254.6
11626.3
27786.9
81726.2
81722.6
81726.7
81724.1
81726
81724.2
81726.1
81724.7
81724.9
81724.4
81724.1
81724.3
81723.4
81724.6
81723.5
81725.6
81726.3
81728.4
81730.1
81733.5
81737.4
81742.2
81747.6
81753.4
81759.7
81765.8
81772
81777.2
81781.7
81784.5
81786.2
81786.5
81785.7
81784.3
81782.8
81780.4
81777.7
36.5534
48.8821
54.2858
19.4683
5.12783
1.78618
0.839775
0.49453
0.343016
0.269221
0.233099
0.218899
0.220177
0.234523
0.261193
0.300317
0.354942
0.438597
0.594387
0.959415
2.11534
8.64436
199
81741.4
81740.2
88.8475
7.03878
1.43347
0.471678
0.21201
0.121666
0.0872068
0.0782121
0.0892793
0.133867
0.278175
0.883193
5.21724
93.5146
81724.9
81724.6
28387.8
21707.3
60946.8
81726.2
81723.4
81725.7
81725.2
81725.6
81725.6
81725.1
81725
81724.7
81724.8
81723.7
81724.6
81724.2
81725.5
81726.8
81728.4
81730.3
81732.7
81735.5
81739.3
81743.3
81748.1
81752.9
81758.2
81763.3
81768.3
81772.4
81775.8
81777.9
81779.2
81779.2
81779
81777.6
81776.6
81774.8
81772.7
62.6787
61.3739
28.1663
7.93257
2.63007
1.17181
0.668172
0.457613
0.358964
0.312545
0.295839
0.299917
0.321884
0.362068
0.422299
0.504244
0.609582
0.747554
0.957106
1.36103
2.375
6.0416
31.5079
431.66
81740.9
81740.7
370.717
15.1466
2.294
0.628287
0.24923
0.131435
0.0893608
0.0780871
0.089029
0.136871
0.30117
1.05594
7.28975
181.113
81724.5
81723.7
43788.5
41834.4
81725.5
81726.2
81727.2
81725.7
81727.7
81725.7
81727.8
81726.4
81727.1
81725.7
81727
81726.2
81727.3
81727.3
81729.6
81730.3
81732.9
81734.1
81737.2
81739.2
81742.9
81745.6
81749.6
81752.7
81756.8
81759.9
81763.4
81765.1
81767.3
81767.3
81768.5
81767.1
81767.9
81766.3
81767
81765.8
79.6563
39.9062
12.4148
4.04228
1.71805
0.946894
0.640527
0.505267
0.447526
0.433654
0.451366
0.497491
0.57383
0.68587
0.841611
1.04794
1.30455
1.60558
1.96983
2.50888
3.57116
6.33073
16.3863
71.4408
742.183
81741.4
81741.9
2028.63
30.965
3.39146
0.776896
0.276091
0.13613
0.0892637
0.0772002
0.0892685
0.142877
0.337416
1.32199
11.0394
438.935
81726.1
81725.4
74825.4
81727
81729.4
81727.2
81731.2
81727.8
81732.6
81728.4
81731.1
81728.7
81730.5
81728.7
81730.4
81729
81730.9
81730.5
81732.7
81732.8
81735.1
81735.5
81738
81739.1
81741.8
81743.3
81746.1
81747.9
81750.9
81752.3
81754.9
81755.1
81757.3
81756.2
81758.4
81757.1
81759.5
81759.9
81762.7
58.9654
19.4407
6.33687
2.60163
1.39072
0.930074
0.740678
0.673797
0.678817
0.740567
0.859993
1.04747
1.32049
1.70361
2.22858
2.92548
3.78966
4.73366
5.61826
6.44916
7.59487
10.0404
16.7927
41.1001
165.862
1542.9
81742.8
81742.8
18730.4
57.3261
4.54867
0.889904
0.289424
0.135976
0.0874754
0.0760911
0.0906538
0.153475
0.396339
1.78822
19.2844
1550.51
81730
81730.7
81731.6
81731.8
81734.3
81731
81737.3
81731.7
81734.7
81732.1
81733.7
81731.6
81733
81731.3
81732.3
81731
81732.3
81731.5
81732.8
81732.3
81733.6
81733.5
81735
81735.4
81737
81737.7
81739.7
81740.7
81743
81743.6
81746
81745.9
81748.5
81748.1
81750.7
81751.7
81756
81759.4
31.0902
10.0604
4.00971
2.0844
1.38014
1.11337
1.04865
1.11425
1.30157
1.63885
2.18754
3.04551
4.34934
6.27365
9.03099
12.8402
17.7042
22.8109
26.2307
26.6252
25.2843
25.0343
29.4043
47.4991
112.933
436.297
3650.46
81743.2
81741.8
81739.8
92.4256
5.49912
0.94732
0.288843
0.13194
0.0847978
0.0754883
0.0943273
0.172375
0.499553
2.70617
41.2921
14826.6
81735.6
81735.8
81736.3
81735.7
81739.4
81734.7
81738.8
81735
81736.6
81733.9
81735.3
81733
81734
81732
81732.7
81731.1
81731.8
81730.4
81730.9
81729.8
81730.3
81729.5
81730.1
81729.6
81730.4
81730.1
81731.5
81731.4
81733.4
81733.3
81735.9
81735.6
81737.9
81738.4
81742.5
81746.3
81752.9
16.2235
6.25929
3.15798
2.06454
1.68677
1.65382
1.87753
2.39991
3.38309
5.17555
8.46348
14.5331
25.6202
45.2058
78.1062
130.136
204.196
282.671
309.072
251.722
168.651
112.838
89.7248
97.1758
149.942
342.768
1283.76
10107.1
81741.6
81739.5
81738
126.291
5.99111
0.942663
0.276767
0.125662
0.0823182
0.076484
0.102344
0.206749
0.695122
4.77933
120.442
81738.8
81740
81739.2
81740.3
81739.3
81741.6
81736.6
81740
81736.1
81737.4
81735
81736.1
81734
81734.8
81732.9
81733.3
81731.5
81731.6
81729.8
81729.7
81727.9
81727.6
81725.8
81725.3
81723.5
81723.2
81721.6
81722
81720.6
81721.9
81720.7
81721.8
81721.3
81723.4
81725.3
81731.1
81736.3
9.85307
4.81395
3.09202
2.54387
2.59221
3.16731
4.51861
7.3885
13.7029
28.6962
67.6747
178.399
515.184
1568.48
4811.94
14363.8
39328.8
77815.6
67232.5
22021.6
5049.59
1413.24
586.873
374.041
361.028
520.093
1146.41
4236.49
32409.1
81739.6
81738.2
81737.3
144.65
5.91079
0.886365
0.258099
0.119312
0.0814164
0.0806599
0.118264
0.271866
1.10516
10.4387
603.742
81742.2
81742
81741.5
81741.9
81740.3
81742.1
81737.3
81740.3
81737.3
81738.3
81736.7
81737.6
81736.3
81736.9
81735.4
81735.5
81733.8
81733.3
81731.3
81730.3
81727.8
81726.2
81723.3
81721.4
81718.2
81716.4
81713.3
81712.3
81709.6
81708.7
81706.6
81706.4
81705.8
81709
81712.1
81717.8
7.32698
4.60974
3.79495
3.98899
5.23114
8.41256
16.4794
39.6779
121.144
502.077
3251.04
47700
81758.8
81758.1
81757
81755.4
81753.2
81751
81748.9
81747.5
81746.6
81746.8
17903.1
3760.07
1786.72
1490.57
1992.49
4259.5
15539.3
81739.9
81738.9
81738.4
81737.8
138.379
5.36588
0.802558
0.238913
0.115233
0.0837571
0.0905018
0.149262
0.403979
2.09596
31.026
9396.33
81742.4
81742
81741.3
81741.5
81740
81741.6
81738.2
81740.1
81739.4
81739.7
81739.8
81740.1
81739.9
81739.6
81738.9
81738
81736.6
81734.8
81732.6
81729.9
81726.8
81723.3
81719.4
81715.5
81711.3
81707.6
81703.8
81700.3
81696.9
81694.4
81692.2
81692.6
81692.9
81696.7
81699.9
6.78074
5.55677
5.97917
8.34119
15.0665
35.9473
120.232
648.351
8194.14
81759.1
81758.7
81758.4
81758
81757.3
81756.2
81754.6
81752.5
81750.2
81748.5
81747.1
81747
81746.8
81746.8
81746.6
30060.2
9840.2
6903.52
8492.1
17390.7
60718.2
81739.9
81739.3
81739.1
81738.9
114.002
4.61597
0.718124
0.224793
0.115812
0.0916992
0.110726
0.21154
0.702554
5.02721
146.578
81741.1
81740.4
81740.6
81739.8
81740.2
81740.3
81740.8
81741.2
81740.4
81742
81741.5
81742.7
81741.8
81742.2
81740.5
81739.9
81737.2
81735.5
81731.7
81728.8
81723.8
81719.8
81714
81709.5
81703.4
81699.1
81693.1
81689.1
81684.1
81680.8
81679
81677.3
81679.3
81680.8
81684.7
7.91726
8.63814
12.6861
25.4567
73.8221
358.604
4401.66
81759.5
81759
81758.6
81758.2
81757.7
81757.1
81756.4
81755.3
81753.7
81751.7
81749.5
81747.7
81746.7
81746.9
81746.5
81746.6
81746
81745.3
81743.9
63749.8
36179.4
39710.7
73893.8
81740.7
81740.1
81739.9
81739.6
81739.7
86.0752
3.90361
0.653457
0.220491
0.124072
0.109479
0.151597
0.346963
1.49308
16.4502
1553.79
81739.1
81738.8
81739.4
81740.5
81740.3
81742.8
81740.8
81744.2
81742.7
81744.4
81743.3
81744
81742
81741.5
81738.4
81736.7
81732.4
81729.3
81723.8
81719.4
81712.8
81707.6
81700.3
81695.3
81687.8
81683.2
81676.3
81672.1
81668
81665
81664.7
81664.1
81666.9
81668.7
11.9426
18.1426
39.7419
137.979
988.022
37626.4
81759.7
81759.2
81758.8
81758.3
81757.8
81757.1
81756.4
81755.5
81754.3
81752.7
81750.8
81748.8
81747.1
81746.5
81746.1
81746
81745.7
81745.2
81744.2
81743.3
81742.7
81742.5
81742
81741.7
81740.9
81740.5
81739.8
81739.6
81739.4
81739.3
63.6682
3.36683
0.622338
0.231331
0.145204
0.14609
0.238571
0.681595
4.06677
82.5624
81738.6
81739.7
81741.4
81742
81744.5
81743.9
81746.9
81744.8
81747.2
81746.5
81746.3
81745.1
81743.7
81741.3
81738.7
81735
81731.1
81726.2
81721.1
81715
81709
81702.3
81696
81689
81683.1
81676.3
81670.7
81665.3
81660.8
81658.7
81656.1
81657.2
81657.5
41263.9
24.3101
56.2314
225.288
2324.5
81760.8
81759.9
81759.3
81759
81758.7
81758.2
81757.5
81756.6
81755.7
81754.6
81753.3
81751.7
81749.8
81748
81746.2
81745.9
81745.2
81745.1
81744.5
81744
81743
81742.7
81742.4
81742.4
81741.8
81741.4
81740.5
81740
81739.1
81738.7
81737.9
81738.2
81737.7
48.8682
3.06615
0.637946
0.266083
0.190037
0.22319
0.443966
1.66119
15.1372
848.787
81744
81745.2
81748.1
81747.8
81749.1
81749.5
81750.5
81749.9
81748.8
81748.3
81745.7
81744.1
81740.3
81737.6
81732.8
81729
81723.2
81718.4
81711.7
81706.3
81699.2
81693.8
81686.6
81681.7
81674.6
81670.3
81664
81661.1
81657
81656.6
81655.2
81656.9
12647.2
72.4333
312.341
4199.47
81760.8
81760
81759.3
81759
81758.9
81758.8
81758.3
81757.4
81756.3
81755.1
81753.8
81752.4
81750.6
81749
81746.9
81745.9
81744.6
81744.2
81743.6
81743.3
81742.4
81742.1
81741.8
81742
81741.5
81741.1
81740.1
81739.5
81738.4
81737.9
81736.8
81736.7
81736
81737.2
81737.8
40.5847
3.04084
0.721264
0.343049
0.284285
0.400062
1.00602
5.26493
86.631
49165.6
81751.6
81751.3
81751.9
81751.8
81750.8
81751.5
81747.9
81748.6
81744.6
81742.8
81738.5
81736
81730.8
81727.5
81721.6
81717.5
81711
81706.5
81699.5
81695.1
81688
81684.2
81677
81673.8
81666.9
81663.9
81658.7
81657.5
81654.6
81655.6
19190.6
5984.54
376.401
5500.91
81760.3
81759.9
81759.3
81758.9
81758.8
81759
81759
81758.5
81757.4
81756
81754.6
81753.1
81751.4
81749.8
81747.7
81746.4
81744.9
81743.5
81742.7
81742.1
81741.6
81741.1
81741
81741
81740.8
81740.4
81739.5
81738.6
81737.6
81736.9
81735.9
81735.7
81735
81736
81737
81738
31873.4
37.6029
3.36187
0.918251
0.505907
0.497094
0.864244
2.89101
23.4049
1009.98
81752.8
81752.6
81751.3
81749.4
81748.2
81745.4
81744.2
81739
81737.2
81733
81729.6
81725.2
81721.3
81716.4
81712.1
81706.7
81702
81696.4
81691.6
81686
81681.7
81676.2
81672.3
81667
81662.9
81657.8
81655.4
81651.5
81651.3
21898.6
6637.42
4022.49
5650.56
81759.2
81759.2
81759
81758.7
81758.5
81758.7
81759.1
81759.3
81758.8
81757.5
81755.8
81754.1
81752.4
81750.8
81748.8
81747.3
81745.5
81743.9
81742.3
81741.3
81740.6
81740.2
81740
81740.1
81740
81739.7
81738.8
81737.9
81736.8
81736.1
81735.2
81735
81734.5
81735.6
81736.8
81738
81738.9
81740.2
13792.6
39.6934
4.22096
1.34245
0.872478
1.04378
2.33935
11.2123
169.036
66251.3
81747.8
81744.8
81742.1
81738.8
81736
81732.7
81729.7