/*--------------------------------*- C++ -*----------------------------------*\
  =========                 |
  \\      /  F ield         | OpenFOAM: The Open Source CFD Toolbox
   \\    /   O peration     | Website:  https://openfoam.org
    \\  /    A nd           | Version:  7
     \\/     M anipulation  |
\*---------------------------------------------------------------------------*/
FoamFile
{
    version     2.0;
    format      ascii;
    class       surfaceScalarField;
    location    "35";
    object      phi;
}
// * * * * * * * * * * * * * * * * * * * * * * * * * * * * * * * * * * * * * //

dimensions      [0 3 -1 0 0 0 0];

internalField   nonuniform List<scalar> 
99520
(
-6.77175e-09
2.6053e-10
1.38742e-08
-4.4922e-09
5.08345e-09
-2.37708e-09
5.24788e-09
-1.26487e-09
6.25079e-09
1.12355e-10
5.98577e-09
-2.30447e-09
9.77982e-09
-5.52679e-10
5.61121e-09
-2.87601e-10
7.09792e-09
6.14476e-10
6.46092e-09
4.55283e-10
7.52219e-09
3.0426e-10
7.51402e-09
1.46635e-09
6.20091e-09
2.70736e-09
6.12198e-09
4.88844e-09
5.18192e-09
7.32414e-09
4.9273e-09
1.43425e-08
3.44589e-10
1.03651e-08
1.13403e-08
6.56677e-09
1.11612e-08
3.50639e-09
1.04233e-08
1.69353e-09
9.17576e-09
8.60994e-10
8.19546e-09
4.99573e-10
7.72435e-09
3.19637e-10
7.54292e-09
2.16776e-10
7.46586e-09
1.53211e-10
7.42662e-09
1.11265e-10
7.40501e-09
8.20929e-11
7.3923e-09
6.0998e-11
7.38424e-09
4.53078e-11
7.37887e-09
3.33615e-11
7.37515e-09
2.40808e-11
7.37247e-09
1.67581e-11
7.37052e-09
1.08968e-11
7.36905e-09
6.15807e-12
7.36794e-09
2.27612e-12
7.36707e-09
-9.51192e-13
7.36642e-09
-3.65666e-12
7.36588e-09
-5.93676e-12
7.36545e-09
-7.86229e-12
7.3651e-09
-9.50231e-12
7.36481e-09
-1.09019e-11
7.36457e-09
-1.21036e-11
7.36437e-09
-1.31324e-11
7.36418e-09
-1.4008e-11
7.36403e-09
-1.47477e-11
7.36389e-09
-1.53659e-11
7.36377e-09
-1.58779e-11
7.36366e-09
-1.63295e-11
7.36355e-09
-1.66802e-11
7.36346e-09
-1.69658e-11
7.36336e-09
-1.71646e-11
7.36329e-09
-1.73028e-11
7.36324e-09
-1.74191e-11
7.36318e-09
-1.7482e-11
7.36317e-09
-1.76077e-11
7.36305e-09
-1.76052e-11
7.36314e-09
-1.77732e-11
7.36305e-09
-1.79032e-11
7.3631e-09
-1.81975e-11
7.36302e-09
-1.84983e-11
7.36309e-09
-1.89688e-11
7.36304e-09
-1.95058e-11
7.36311e-09
-2.01516e-11
7.36312e-09
-2.09924e-11
7.36313e-09
-2.17421e-11
7.36321e-09
-2.27697e-11
7.3631e-09
-2.3355e-11
7.36331e-09
-2.44805e-11
7.36298e-09
-2.47038e-11
7.36333e-09
-2.55976e-11
7.36274e-09
-2.49294e-11
7.36323e-09
-2.52543e-11
7.36232e-09
-2.36128e-11
7.36298e-09
-2.29891e-11
7.36183e-09
-1.99631e-11
7.3626e-09
-1.79939e-11
7.36137e-09
-1.37178e-11
7.36206e-09
-1.04795e-11
7.36095e-09
-5.52407e-12
7.36149e-09
7.36099e-09
-1.57983e-12
-3.92754e-09
-1.28141e-09
5.46939e-09
-2.9028e-09
4.05871e-09
-2.4878e-09
4.83289e-09
-2.19779e-09
5.96079e-09
-2.18658e-09
5.97456e-09
-1.18525e-09
8.77849e-09
-1.49774e-11
4.44094e-09
2.25493e-10
6.85745e-09
-5.86862e-10
7.27328e-09
3.71307e-10
6.56402e-09
1.43345e-09
6.45187e-09
1.98501e-09
5.64934e-09
3.06743e-09
5.03956e-09
4.42745e-09
3.8219e-09
4.6498e-09
4.70496e-09
5.63898e-09
-6.44628e-10
1.16333e-08
5.34594e-09
1.06808e-08
1.21136e-08
7.51504e-09
1.35889e-08
4.6083e-09
1.20824e-08
2.69085e-09
1.01128e-08
1.60993e-09
8.80525e-09
1.02177e-09
8.13107e-09
6.86668e-10
7.80101e-09
4.81594e-10
7.63176e-09
3.47696e-10
7.53904e-09
2.55553e-10
7.48459e-09
1.89497e-10
7.4505e-09
1.40585e-10
7.42801e-09
1.03411e-10
7.41251e-09
7.45941e-11
7.40153e-09
5.18286e-11
7.39347e-09
3.36139e-11
7.3875e-09
1.88259e-11
7.38292e-09
6.70579e-12
7.37942e-09
-3.3497e-12
7.37665e-09
-1.17516e-11
7.37447e-09
-1.88254e-11
7.37268e-09
-2.47954e-11
7.37125e-09
-2.98674e-11
7.37004e-09
-3.41745e-11
7.36904e-09
-3.78517e-11
7.36818e-09
-4.09691e-11
7.36745e-09
-4.36167e-11
7.3668e-09
-4.58286e-11
7.36625e-09
-4.76715e-11
7.36574e-09
-4.91983e-11
7.36529e-09
-5.04376e-11
7.36485e-09
-5.14134e-11
7.36447e-09
-5.21062e-11
7.36412e-09
-5.25686e-11
7.36383e-09
-5.2842e-11
7.36355e-09
-5.29111e-11
7.3633e-09
-5.29211e-11
7.36311e-09
-5.2628e-11
7.36299e-09
-5.24314e-11
7.36277e-09
-5.20557e-11
7.36266e-09
-5.17827e-11
7.36249e-09
-5.13963e-11
7.36243e-09
-5.11702e-11
7.36234e-09
-5.09107e-11
7.3623e-09
-5.07748e-11
7.36231e-09
-5.07623e-11
7.36227e-09
-5.07466e-11
7.36239e-09
-5.10536e-11
7.36227e-09
-5.09691e-11
7.36255e-09
-5.14938e-11
7.36226e-09
-5.11613e-11
7.36266e-09
-5.1787e-11
7.36211e-09
-5.07608e-11
7.36263e-09
-5.10228e-11
7.36177e-09
-4.90018e-11
7.36232e-09
-4.85648e-11
7.36117e-09
-4.51741e-11
7.36172e-09
-4.33561e-11
7.36045e-09
-3.83847e-11
7.36089e-09
-3.49221e-11
7.35971e-09
-2.87553e-11
7.35982e-09
-2.36861e-11
7.35947e-09
7.35976e-09
-1.74799e-11
-1.76601e-09
-1.86119e-09
2.34559e-09
-6.65467e-11
2.3592e-09
-3.39546e-09
8.16173e-09
-2.10642e-09
4.67175e-09
-2.25231e-09
6.12045e-09
-1.69129e-10
6.69531e-09
-1.94401e-10
4.46622e-09
2.93285e-10
6.36977e-09
-1.03896e-09
8.60553e-09
-1.73222e-11
5.54238e-09
1.16161e-09
5.27295e-09
2.02325e-09
4.7877e-09
3.08044e-09
3.98237e-09
3.94171e-09
2.96064e-09
5.03871e-09
3.6079e-09
4.82927e-09
-4.35315e-10
6.97743e-09
3.19766e-09
8.79625e-09
1.02947e-08
8.18692e-09
1.41982e-08
6.16444e-09
1.41049e-08
4.09783e-09
1.21794e-08
2.61205e-09
1.0291e-08
1.69605e-09
9.04709e-09
1.14726e-09
8.34986e-09
8.06023e-10
7.9731e-09
5.82305e-10
7.76289e-09
4.28302e-10
7.63878e-09
3.17872e-10
7.56114e-09
2.35985e-10
7.51004e-09
1.73734e-10
7.47499e-09
1.25311e-10
7.45008e-09
8.70715e-11
7.43194e-09
5.63308e-11
7.41838e-09
3.1395e-11
7.40808e-09
1.08499e-11
7.4001e-09
-6.1601e-12
7.39384e-09
-2.04357e-11
7.38884e-09
-3.24179e-11
7.38482e-09
-4.25983e-11
7.38151e-09
-5.12095e-11
7.37879e-09
-5.85816e-11
7.37649e-09
-6.48291e-11
7.37455e-09
-7.01826e-11
7.37287e-09
-7.46858e-11
7.37142e-09
-7.85058e-11
7.37014e-09
-8.1675e-11
7.369e-09
-8.43217e-11
7.36793e-09
-8.64377e-11
7.36702e-09
-8.81015e-11
7.36616e-09
-8.93023e-11
7.36541e-09
-9.01382e-11
7.36472e-09
-9.05934e-11
7.36409e-09
-9.07345e-11
7.36357e-09
-9.06137e-11
7.36305e-09
-9.02961e-11
7.36259e-09
-8.97076e-11
7.36215e-09
-8.90146e-11
7.36178e-09
-8.81344e-11
7.36142e-09
-8.72352e-11
7.36116e-09
-8.62351e-11
7.36088e-09
-8.52586e-11
7.36074e-09
-8.42643e-11
7.36054e-09
-8.32972e-11
7.36052e-09
-8.24337e-11
7.36037e-09
-8.14932e-11
7.36043e-09
-8.07e-11
7.36034e-09
-7.964e-11
7.36042e-09
-7.88435e-11
7.36029e-09
-7.74824e-11
7.36028e-09
-7.63122e-11
7.36014e-09
-7.42246e-11
7.35995e-09
-7.23601e-11
7.3597e-09
-6.92679e-11
7.35927e-09
-6.62185e-11
7.35903e-09
-6.16969e-11
7.35843e-09
-5.70421e-11
7.35826e-09
-5.11042e-11
7.35753e-09
-4.46408e-11
7.35756e-09
-3.76211e-11
7.35731e-09
7.35751e-09
-3.13361e-11
-8.19937e-10
-1.43548e-09
3.93938e-10
-1.35462e-09
2.89366e-09
-1.42637e-09
8.23335e-09
-4.4576e-11
3.28991e-09
-6.67893e-12
6.08248e-09
1.59804e-11
6.6726e-09
-9.43233e-12
4.49157e-09
-6.42055e-11
6.42449e-09
-2.95794e-09
1.14992e-08
-1.82633e-10
2.76707e-09
1.04206e-10
4.98611e-09
7.44284e-10
4.14763e-09
2.30559e-09
2.42106e-09
2.95012e-09
2.31606e-09
3.69054e-09
2.86731e-09
2.969e-09
2.86085e-10
3.96765e-09
2.19884e-09
6.19613e-09
8.06612e-09
7.21699e-09
1.31772e-08
6.48873e-09
1.48331e-08
4.89687e-09
1.37712e-08
3.36902e-09
1.18189e-08
2.26596e-09
1.01501e-08
1.55236e-09
9.06354e-09
1.09573e-09
8.4298e-09
7.93723e-10
8.06508e-09
5.8503e-10
7.84763e-09
4.34857e-10
7.71146e-09
3.23132e-10
7.62188e-09
2.37764e-10
7.56047e-09
1.71165e-10
7.51682e-09
1.18275e-10
7.48498e-09
7.56702e-11
7.46113e-09
4.09076e-11
7.443e-09
1.22486e-11
7.42888e-09
-1.16097e-11
7.41782e-09
-3.16139e-11
7.40893e-09
-4.85065e-11
7.40179e-09
-6.28268e-11
7.3959e-09
-7.50237e-11
7.39105e-09
-8.54258e-11
7.38694e-09
-9.43079e-11
7.38349e-09
-1.01878e-10
7.38048e-09
-1.08306e-10
7.37791e-09
-1.13737e-10
7.37559e-09
-1.18305e-10
7.37355e-09
-1.22025e-10
7.37173e-09
-1.25082e-10
7.37006e-09
-1.27419e-10
7.3686e-09
-1.29171e-10
7.3672e-09
-1.30362e-10
7.36601e-09
-1.30985e-10
7.36493e-09
-1.31273e-10
7.36386e-09
-1.31102e-10
7.36292e-09
-1.30609e-10
7.36202e-09
-1.29717e-10
7.36126e-09
-1.2863e-10
7.36049e-09
-1.27219e-10
7.35987e-09
-1.2573e-10
7.35925e-09
-1.24006e-10
7.35878e-09
-1.22266e-10
7.35833e-09
-1.20406e-10
7.35799e-09
-1.18526e-10
7.35772e-09
-1.16698e-10
7.35745e-09
-1.14686e-10
7.35739e-09
-1.12927e-10
7.3571e-09
-1.10663e-10
7.35721e-09
-1.0894e-10
7.35676e-09
-1.06183e-10
7.35703e-09
-1.04207e-10
7.35633e-09
-1.00578e-10
7.35667e-09
-9.79973e-11
7.35565e-09
-9.31673e-11
7.35603e-09
-8.94735e-11
7.35481e-09
-8.30969e-11
7.35523e-09
-7.78322e-11
7.35406e-09
-6.99057e-11
7.35446e-09
-6.25211e-11
7.35385e-09
-5.3992e-11
7.35425e-09
7.35443e-09
-4.65968e-11
-1.15037e-09
-6.6951e-10
3.84106e-10
-5.85249e-10
2.32833e-09
1.35938e-09
6.28852e-09
1.05855e-09
3.59052e-09
9.9334e-10
6.14749e-09
9.06487e-10
6.75924e-09
3.78214e-10
5.01966e-09
-7.74345e-10
7.57682e-09
-7.41428e-10
1.14662e-08
-4.74657e-11
2.07304e-09
8.27021e-12
4.93031e-09
2.00039e-11
4.13583e-09
9.35845e-10
1.50514e-09
1.35387e-09
1.89777e-09
2.48941e-09
1.73164e-09
2.32525e-09
4.49996e-10
2.59028e-09
1.93367e-09
4.23311e-09
6.42307e-09
5.79349e-09
1.16168e-08
6.05912e-09
1.45673e-08
5.16075e-09
1.46696e-08
3.85795e-09
1.31216e-08
2.71309e-09
1.12951e-08
1.89136e-09
9.88528e-09
1.34188e-09
8.97945e-09
9.73467e-10
8.43356e-09
7.18206e-10
8.1031e-09
5.34153e-10
7.89553e-09
3.96885e-10
7.75929e-09
2.91476e-10
7.66586e-09
2.08916e-10
7.5996e-09
1.42913e-10
7.55104e-09
8.95591e-11
7.51474e-09
4.57285e-11
7.48689e-09
9.51457e-12
7.46532e-09
-2.0818e-11
7.44819e-09
-4.62678e-11
7.43456e-09
-6.78955e-11
7.42343e-09
-8.62114e-11
7.41435e-09
-1.01924e-10
7.40675e-09
-1.15278e-10
7.40042e-09
-1.2678e-10
7.39498e-09
-1.36529e-10
7.39035e-09
-1.44905e-10
7.38622e-09
-1.51925e-10
7.38268e-09
-1.57829e-10
7.37946e-09
-1.62693e-10
7.37664e-09
-1.66594e-10
7.37407e-09
-1.69689e-10
7.37172e-09
-1.71889e-10
7.36966e-09
-1.73412e-10
7.36772e-09
-1.74329e-10
7.36591e-09
-1.74613e-10
7.36424e-09
-1.74395e-10
7.36271e-09
-1.73612e-10
7.36129e-09
-1.72445e-10
7.36e-09
-1.70811e-10
7.35878e-09
-1.68913e-10
7.35772e-09
-1.66653e-10
7.3567e-09
-1.64228e-10
7.35587e-09
-1.61565e-10
7.35506e-09
-1.58793e-10
7.35447e-09
-1.55932e-10
7.35383e-09
-1.52938e-10
7.35347e-09
-1.5002e-10
7.35298e-09
-1.46814e-10
7.35279e-09
-1.43851e-10
7.35238e-09
-1.4033e-10
7.35223e-09
-1.37175e-10
7.35184e-09
-1.33046e-10
7.35165e-09
-1.29337e-10
7.35124e-09
-1.24257e-10
7.35088e-09
-1.1955e-10
7.35047e-09
-1.13108e-10
7.34997e-09
-1.06859e-10
7.34974e-09
-9.88577e-11
7.34921e-09
-9.05931e-11
7.34931e-09
-8.09987e-11
7.34906e-09
-7.15529e-11
7.34971e-09
7.35042e-09
-6.24372e-11
-1.51685e-09
1.0076e-10
7.46295e-10
-1.01907e-09
1.83033e-09
9.67108e-10
4.30214e-09
8.35642e-10
3.72176e-09
1.14749e-09
5.83541e-09
1.31886e-09
6.58768e-09
8.47989e-10
5.49028e-09
7.10115e-10
7.71449e-09
1.32541e-09
1.08506e-08
-1.28827e-10
3.52705e-09
-5.51961e-10
5.35314e-09
-8.40013e-10
4.42371e-09
-9.23046e-10
1.58792e-09
1.66652e-10
8.07918e-10
1.3888e-09
5.09213e-10
1.55952e-09
2.79122e-10
1.80289e-09
1.69008e-09
2.92337e-09
5.30248e-09
4.44841e-09
1.00916e-08
5.26944e-09
1.37463e-08
5.01256e-09
1.49264e-08
4.07865e-09
1.40556e-08
3.02462e-09
1.23491e-08
2.16146e-09
1.07485e-08
1.54485e-09
9.59611e-09
1.12115e-09
8.85745e-09
8.25899e-10
8.3984e-09
6.13251e-10
8.10834e-09
4.54464e-10
7.91805e-09
3.32456e-10
7.78807e-09
2.36281e-10
7.69584e-09
1.59207e-10
7.62837e-09
9.63559e-11
7.57768e-09
4.46498e-11
7.53885e-09
1.53748e-12
7.50851e-09
-3.45947e-11
7.48452e-09
-6.51987e-11
7.46521e-09
-9.11283e-11
7.44952e-09
-1.13332e-10
7.43658e-09
-1.32265e-10
7.42582e-09
-1.48567e-10
7.41674e-09
-1.62489e-10
7.409e-09
-1.74493e-10
7.40226e-09
-1.84605e-10
7.39648e-09
-1.9327e-10
7.39127e-09
-2.00426e-10
7.38679e-09
-2.06388e-10
7.38258e-09
-2.1117e-10
7.37897e-09
-2.14849e-10
7.37562e-09
-2.17609e-10
7.37255e-09
-2.1948e-10
7.3697e-09
-2.20536e-10
7.36707e-09
-2.2082e-10
7.36466e-09
-2.20452e-10
7.36236e-09
-2.19382e-10
7.36032e-09
-2.17816e-10
7.35831e-09
-2.15628e-10
7.3566e-09
-2.13103e-10
7.35486e-09
-2.1005e-10
7.35346e-09
-2.06793e-10
7.352e-09
-2.03142e-10
7.35089e-09
-1.99367e-10
7.34973e-09
-1.95387e-10
7.34887e-09
-1.91237e-10
7.34806e-09
-1.87142e-10
7.34733e-09
-1.8265e-10
7.34688e-09
-1.78554e-10
7.34611e-09
-1.73594e-10
7.34605e-09
-1.69402e-10
7.34506e-09
-1.63666e-10
7.34539e-09
-1.59071e-10
7.34405e-09
-1.52181e-10
7.34472e-09
-1.46679e-10
7.34304e-09
-1.38199e-10
7.34404e-09
-1.31181e-10
7.34221e-09
-1.20949e-10
7.34339e-09
-1.11783e-10
7.34209e-09
-9.99501e-11
7.34334e-09
-8.9102e-11
7.34399e-09
7.34521e-09
-7.8759e-11
-1.46945e-09
7.12845e-10
8.57049e-10
-1.28508e-09
1.64575e-09
-1.62024e-10
3.17888e-09
1.75112e-12
3.55776e-09
5.82656e-10
5.25428e-09
1.1078e-09
6.0623e-09
6.76114e-10
5.92171e-09
8.44625e-10
7.54569e-09
2.28765e-09
9.40733e-09
5.4383e-10
5.2706e-09
2.87688e-10
5.60906e-09
3.93286e-10
4.31791e-09
2.25115e-10
1.75591e-09
5.28523e-10
5.04281e-10
9.94639e-10
4.29096e-11
1.12771e-09
1.45865e-10
1.3186e-09
1.49903e-09
2.08713e-09
4.53382e-09
3.36561e-09
8.81301e-09
4.39124e-09
1.27206e-08
4.59972e-09
1.47179e-08
4.05919e-09
1.45961e-08
3.18957e-09
1.32188e-08
2.35422e-09
1.1584e-08
1.70329e-09
1.02472e-08
1.23735e-09
9.32351e-09
9.08516e-10
8.72737e-09
6.71434e-10
8.3455e-09
4.94836e-10
8.09478e-09
3.59045e-10
7.92398e-09
2.51876e-10
7.80318e-09
1.6553e-10
7.71487e-09
9.4875e-11
7.64852e-09
3.63174e-11
7.59755e-09
-1.26768e-11
7.55767e-09
-5.40064e-11
7.52598e-09
-8.90914e-11
7.50043e-09
-1.19042e-10
7.47957e-09
-1.44694e-10
7.46233e-09
-1.6673e-10
7.44794e-09
-1.857e-10
7.43575e-09
-2.02044e-10
7.42529e-09
-2.15976e-10
7.41632e-09
-2.27966e-10
7.40836e-09
-2.37958e-10
7.40153e-09
-2.46555e-10
7.39518e-09
-2.5336e-10
7.38979e-09
-2.59006e-10
7.3847e-09
-2.63337e-10
7.38014e-09
-2.66558e-10
7.3759e-09
-2.687e-10
7.37201e-09
-2.69833e-10
7.3684e-09
-2.70118e-10
7.36501e-09
-2.6946e-10
7.36193e-09
-2.68164e-10
7.35894e-09
-2.65973e-10
7.35631e-09
-2.63351e-10
7.35368e-09
-2.59902e-10
7.35146e-09
-2.56207e-10
7.34918e-09
-2.51804e-10
7.34734e-09
-2.47287e-10
7.34544e-09
-2.42273e-10
7.34395e-09
-2.37117e-10
7.34249e-09
-2.31838e-10
7.34122e-09
-2.26152e-10
7.34026e-09
-2.20891e-10
7.33907e-09
-2.14599e-10
7.33869e-09
-2.09469e-10
7.33736e-09
-2.02349e-10
7.33761e-09
-1.97187e-10
7.33599e-09
-1.8886e-10
7.33686e-09
-1.83239e-10
7.33488e-09
-1.73317e-10
7.33627e-09
-1.66523e-10
7.33405e-09
-1.54798e-10
7.3357e-09
-1.45752e-10
7.3339e-09
-1.325e-10
7.33543e-09
-1.198e-10
7.33608e-09
-1.07007e-10
7.3374e-09
7.33913e-09
-9.54884e-11
-1.22597e-09
1.12641e-09
8.12081e-10
-1.1471e-09
1.56666e-09
-5.64707e-10
2.59627e-09
-3.97374e-10
3.39022e-09
1.47849e-10
4.70883e-09
6.09148e-10
5.60075e-09
4.68983e-10
6.06162e-09
7.59928e-10
7.25447e-09
1.91453e-09
8.25248e-09
1.03831e-09
6.14658e-09
1.1967e-09
5.45047e-09
1.44882e-09
4.06561e-09
1.15026e-09
2.05427e-09
9.70977e-10
6.83387e-10
9.56588e-10
5.71383e-11
9.30983e-10
1.71315e-10
1.03697e-09
1.39291e-09
1.56129e-09
4.00939e-09
2.5617e-09
7.81254e-09
3.58102e-09
1.17012e-08
4.06454e-09
1.42344e-08
3.86133e-09
1.47993e-08
3.21557e-09
1.38646e-08
2.4639e-09
1.23357e-08
1.814e-09
1.08971e-08
1.32217e-09
9.81546e-09
9.6682e-10
9.08284e-09
7.09271e-10
8.60317e-09
5.17738e-10
8.28644e-09
3.70756e-10
8.0711e-09
2.54732e-10
7.91936e-09
1.61026e-10
7.80873e-09
8.40286e-11
7.72568e-09
1.99083e-11
7.66183e-09
-3.40237e-11
7.61175e-09
-7.97617e-11
7.57185e-09
-1.18779e-10
7.53956e-09
-1.52241e-10
7.51312e-09
-1.81012e-10
7.4912e-09
-2.05851e-10
7.4728e-09
-2.27317e-10
7.45717e-09
-2.45752e-10
7.44381e-09
-2.61694e-10
7.43213e-09
-2.75117e-10
7.42208e-09
-2.86791e-10
7.41291e-09
-2.96204e-10
7.40506e-09
-3.04211e-10
7.39776e-09
-3.10521e-10
7.39124e-09
-3.15478e-10
7.3852e-09
-3.19048e-10
7.37969e-09
-3.214e-10
7.37456e-09
-3.22622e-10
7.36978e-09
-3.22717e-10
7.36536e-09
-3.21917e-10
7.36117e-09
-3.20048e-10
7.35734e-09
-3.17513e-10
7.35362e-09
-3.13967e-10
7.35032e-09
-3.0998e-10
7.34705e-09
-3.05071e-10
7.34424e-09
-2.99925e-10
7.34141e-09
-2.94017e-10
7.33907e-09
-2.87973e-10
7.33672e-09
-2.81464e-10
7.33477e-09
-2.7473e-10
7.33299e-09
-2.68009e-10
7.33132e-09
-2.60633e-10
7.33019e-09
-2.53964e-10
7.32861e-09
-2.45833e-10
7.32823e-09
-2.3925e-10
7.3266e-09
-2.30032e-10
7.32703e-09
-2.2326e-10
7.32522e-09
-2.12595e-10
7.32639e-09
-2.05038e-10
7.32443e-09
-1.92638e-10
7.32608e-09
-1.83061e-10
7.32441e-09
-1.68991e-10
7.32602e-09
-1.55042e-10
7.32663e-09
-1.40073e-10
7.32797e-09
-1.25391e-10
7.33026e-09
7.33157e-09
-1.12992e-10
-1.01629e-09
1.42447e-09
7.17917e-10
-1.00239e-09
1.55255e-09
-6.97346e-10
2.29101e-09
-4.65538e-10
3.15819e-09
-5.44706e-11
4.29754e-09
3.08615e-10
5.23743e-09
4.12705e-10
5.95727e-09
7.67364e-10
6.89954e-09
1.53852e-09
7.48107e-09
1.37864e-09
6.3062e-09
1.53089e-09
5.298e-09
1.67252e-09
3.92374e-09
1.46431e-09
2.26234e-09
1.19807e-09
9.49417e-10
1.00343e-09
2.51676e-10
8.64807e-10
3.09753e-10
8.79923e-10
1.37774e-09
1.22612e-09
3.66306e-09
1.9845e-09
7.05419e-09
2.89864e-09
1.0787e-08
3.50794e-09
1.36252e-08
3.5545e-09
1.47528e-08
3.12761e-09
1.42916e-08
2.49291e-09
1.29704e-08
1.87541e-09
1.15148e-08
1.37548e-09
1.03155e-08
1.00186e-09
9.45662e-09
7.27783e-10
8.87732e-09
5.2384e-10
8.49056e-09
3.67704e-10
8.22733e-09
2.44675e-10
8.04257e-09
1.45219e-10
7.9083e-09
6.3295e-11
7.80779e-09
-5.23276e-12
7.73047e-09
-6.31368e-11
7.66982e-09
-1.12507e-10
7.6213e-09
-1.54834e-10
7.58201e-09
-1.91307e-10
7.54966e-09
-2.22829e-10
7.52275e-09
-2.50156e-10
7.50009e-09
-2.73764e-10
7.48082e-09
-2.94275e-10
7.46418e-09
-3.11728e-10
7.44984e-09
-3.26972e-10
7.43702e-09
-3.39527e-10
7.42591e-09
-3.5031e-10
7.41579e-09
-3.59049e-10
7.40672e-09
-3.66133e-10
7.3984e-09
-3.71519e-10
7.39082e-09
-3.75442e-10
7.38379e-09
-3.77947e-10
7.37727e-09
-3.79117e-10
7.3712e-09
-3.79112e-10
7.3655e-09
-3.77865e-10
7.3602e-09
-3.75674e-10
7.35515e-09
-3.72317e-10
7.35051e-09
-3.68248e-10
7.34604e-09
-3.63099e-10
7.342e-09
-3.57471e-10
7.33809e-09
-3.50899e-10
7.33462e-09
-3.44043e-10
7.33127e-09
-3.36464e-10
7.32834e-09
-3.2866e-10
7.32562e-09
-3.20528e-10
7.32316e-09
-3.11989e-10
7.32113e-09
-3.03668e-10
7.31905e-09
-2.94391e-10
7.31781e-09
-2.86085e-10
7.31599e-09
-2.75908e-10
7.31561e-09
-2.67497e-10
7.31399e-09
-2.56092e-10
7.31446e-09
-2.47171e-10
7.31302e-09
-2.34282e-10
7.31417e-09
-2.2378e-10
7.31318e-09
-2.09262e-10
7.3146e-09
-1.94422e-10
7.3154e-09
-1.78092e-10
7.31671e-09
-1.60341e-10
7.31933e-09
-1.45238e-10
7.32045e-09
7.32277e-09
-1.30535e-10
-8.75674e-10
1.67242e-09
6.27427e-10
-9.21153e-10
1.59783e-09
-7.59157e-10
2.12881e-09
-5.41887e-10
2.94071e-09
-2.00345e-10
3.95578e-09
1.37488e-10
4.89936e-09
3.86529e-10
5.70797e-09
7.91249e-10
6.49455e-09
1.38808e-09
6.88396e-09
1.53456e-09
6.1595e-09
1.66844e-09
5.16379e-09
1.73112e-09
3.86091e-09
1.58366e-09
2.40949e-09
1.3296e-09
1.20342e-09
1.07246e-09
5.08538e-10
8.66247e-10
5.15983e-10
8.03016e-10
1.44075e-09
1.01316e-09
3.453e-09
1.5746e-09
6.49261e-09
2.34915e-09
1.00126e-08
2.98494e-09
1.29893e-08
3.19512e-09
1.45428e-08
2.95624e-09
1.45304e-08
2.4504e-09
1.34765e-08
1.88832e-09
1.20768e-08
1.39746e-09
1.08065e-08
1.01448e-09
9.83958e-09
7.28257e-10
9.16377e-09
5.14107e-10
8.70471e-09
3.50586e-10
8.39109e-09
2.21923e-10
8.17127e-09
1.18148e-10
8.01231e-09
3.2421e-11
7.89357e-09
-3.93905e-11
7.8025e-09
-1.0044e-10
7.73091e-09
-1.52644e-10
7.67368e-09
-1.97722e-10
7.62709e-09
-2.36703e-10
7.58868e-09
-2.70559e-10
7.55662e-09
-2.99995e-10
7.52949e-09
-3.25605e-10
7.50637e-09
-3.47697e-10
7.48638e-09
-3.66959e-10
7.4689e-09
-3.83214e-10
7.45356e-09
-3.97176e-10
7.43987e-09
-4.08814e-10
7.42754e-09
-4.18395e-10
7.4164e-09
-4.26021e-10
7.4062e-09
-4.31861e-10
7.39683e-09
-4.3602e-10
7.38814e-09
-4.38594e-10
7.38006e-09
-4.39709e-10
7.3725e-09
-4.39398e-10
7.36542e-09
-4.37827e-10
7.35876e-09
-4.34966e-10
7.3525e-09
-4.31038e-10
7.3466e-09
-4.25957e-10
7.34106e-09
-4.20008e-10
7.33588e-09
-4.13071e-10
7.33101e-09
-4.05472e-10
7.32652e-09
-3.97092e-10
7.32231e-09
-3.88212e-10
7.31853e-09
-3.78829e-10
7.31498e-09
-3.69039e-10
7.31193e-09
-3.59054e-10
7.30904e-09
-3.48565e-10
7.30674e-09
-3.38227e-10
7.30452e-09
-3.2711e-10
7.30297e-09
-3.16419e-10
7.30146e-09
-3.04496e-10
7.30064e-09
-2.93195e-10
7.29987e-09
-2.80234e-10
7.29975e-09
-2.67664e-10
7.29986e-09
-2.53292e-10
7.30039e-09
-2.37437e-10
7.30187e-09
-2.20433e-10
7.30295e-09
-2.00731e-10
7.30579e-09
-1.82897e-10
7.30678e-09
-1.64933e-10
7.30941e-09
7.31096e-09
-1.4957e-10
-7.72362e-10
1.89569e-09
5.48715e-10
-8.58066e-10
1.68324e-09
-7.83899e-10
2.05435e-09
-6.07786e-10
2.76431e-09
-3.19589e-10
3.66727e-09
6.68755e-12
4.57286e-09
3.30334e-10
5.38409e-09
7.6199e-10
6.06263e-09
1.29326e-09
6.35247e-09
1.57518e-09
5.87726e-09
1.74648e-09
4.99227e-09
1.79326e-09
3.81378e-09
1.66728e-09
2.53532e-09
1.42405e-09
1.44639e-09
1.14438e-09
7.88158e-10
8.98941e-10
7.61263e-10
7.75936e-10
1.56378e-09
8.80488e-10
3.34836e-09
1.28428e-09
6.08889e-09
1.91598e-09
9.38092e-09
2.51945e-09
1.2386e-08
2.82178e-09
1.42405e-08
2.7302e-09
1.46221e-08
2.34862e-09
1.38581e-08
1.85586e-09
1.25697e-08
1.38836e-09
1.1274e-08
1.00542e-09
1.02227e-08
7.11547e-10
9.4577e-09
4.8975e-10
8.92669e-09
3.20109e-10
8.56082e-09
1.87152e-10
8.30441e-09
7.99561e-11
8.11962e-09
-8.43741e-12
7.98214e-09
-8.27789e-11
7.87694e-09
-1.46051e-10
7.79433e-09
-2.00543e-10
7.72821e-09
-2.47722e-10
7.67428e-09
-2.88738e-10
7.62975e-09
-3.24572e-10
7.59234e-09
-3.5575e-10
7.56079e-09
-3.83041e-10
7.53351e-09
-4.06711e-10
7.51006e-09
-4.2721e-10
7.48939e-09
-4.44744e-10
7.4712e-09
-4.59733e-10
7.45482e-09
-4.72187e-10
7.44017e-09
-4.8247e-10
7.42673e-09
-4.90575e-10
7.41451e-09
-4.96772e-10
7.40315e-09
-5.01076e-10
7.39266e-09
-5.03662e-10
7.38283e-09
-5.04593e-10
7.37363e-09
-5.03956e-10
7.365e-09
-5.01884e-10
7.35683e-09
-4.98371e-10
7.34919e-09
-4.93643e-10
7.3419e-09
-4.87599e-10
7.33516e-09
-4.80577e-10
7.32867e-09
-4.72389e-10
7.32278e-09
-4.63476e-10
7.31707e-09
-4.53584e-10
7.31202e-09
-4.4319e-10
7.30712e-09
-4.32076e-10
7.30287e-09
-4.20591e-10
7.29885e-09
-4.08714e-10
7.29538e-09
-3.9638e-10
7.29236e-09
-3.84056e-10
7.28958e-09
-3.70923e-10
7.28768e-09
-3.58245e-10
7.28554e-09
-3.44141e-10
7.28489e-09
-3.30933e-10
7.28338e-09
-3.15535e-10
7.28406e-09
-3.01251e-10
7.28336e-09
-2.83752e-10
7.28544e-09
-2.6676e-10
7.28591e-09
-2.45747e-10
7.28909e-09
-2.26252e-10
7.29009e-09
-2.04826e-10
7.29325e-09
-1.86492e-10
7.29459e-09
7.29775e-09
-1.67918e-10
-6.89095e-10
2.10402e-09
4.80462e-10
-7.97069e-10
1.79102e-09
-7.75085e-10
2.03218e-09
-6.39915e-10
2.62895e-09
-3.97788e-10
3.42485e-09
-8.86444e-11
4.2634e-09
2.64976e-10
5.03013e-09
7.01924e-10
5.62535e-09
1.19305e-09
5.861e-09
1.53933e-09
5.5306e-09
1.74959e-09
4.7816e-09
1.80866e-09
3.75426e-09
1.70475e-09
2.63904e-09
1.48033e-09
1.67059e-09
1.20181e-09
1.06666e-09
9.39392e-10
1.02343e-09
7.75047e-10
1.72819e-09
7.98784e-10
3.3245e-09
1.07685e-09
5.81098e-09
1.57682e-09
8.88089e-09
2.11697e-09
1.1846e-08
2.4584e-09
1.3899e-08
2.47276e-09
1.4608e-08
2.2011e-09
1.41297e-08
1.78261e-09
1.29885e-08
1.34932e-09
1.17073e-08
9.74929e-10
1.05973e-08
6.78467e-10
9.75415e-09
4.51519e-10
9.1539e-09
2.77225e-10
8.73511e-09
1.40895e-10
8.44102e-09
3.11644e-11
8.22937e-09
-5.91576e-11
8.07273e-09
-1.35247e-10
7.95306e-09
-2.00143e-10
7.85943e-09
-2.56291e-10
7.78431e-09
-3.05033e-10
7.72315e-09
-3.47761e-10
7.67232e-09
-3.8498e-10
7.62981e-09
-4.17896e-10
7.59334e-09
-4.46378e-10
7.56224e-09
-4.71481e-10
7.53496e-09
-4.93041e-10
7.51112e-09
-5.11755e-10
7.48978e-09
-5.27492e-10
7.47078e-09
-5.40799e-10
7.45344e-09
-5.51549e-10
7.43773e-09
-5.60145e-10
7.42317e-09
-5.66519e-10
7.40977e-09
-5.70932e-10
7.39723e-09
-5.73407e-10
7.38553e-09
-5.74059e-10
7.37452e-09
-5.73032e-10
7.36413e-09
-5.70287e-10
7.35438e-09
-5.66125e-10
7.34509e-09
-5.60335e-10
7.33643e-09
-5.53407e-10
7.3281e-09
-5.44954e-10
7.32047e-09
-5.35661e-10
7.31306e-09
-5.24996e-10
7.30641e-09
-5.13762e-10
7.29993e-09
-5.01407e-10
7.29425e-09
-4.88639e-10
7.28879e-09
-4.75169e-10
7.28401e-09
-4.61177e-10
7.2797e-09
-4.47088e-10
7.27578e-09
-4.32006e-10
7.27278e-09
-4.17613e-10
7.26962e-09
-4.01363e-10
7.26812e-09
-3.86662e-10
7.2657e-09
-3.69039e-10
7.2658e-09
-3.5359e-10
7.26427e-09
-3.34249e-10
7.26603e-09
-3.16857e-10
7.26577e-09
-2.94835e-10
7.26895e-09
-2.74293e-10
7.26989e-09
-2.50498e-10
7.27342e-09
-2.293e-10
7.27473e-09
-2.07312e-10
7.27823e-09
7.2808e-09
-1.87907e-10
-6.20244e-10
2.30279e-09
4.21197e-10
-7.40702e-10
1.9113e-09
-7.50791e-10
2.04208e-09
-6.49511e-10
2.52749e-09
-4.43037e-10
3.21819e-09
-1.53215e-10
3.97338e-09
2.04487e-10
4.6722e-09
6.31995e-10
5.19765e-09
1.08956e-09
5.40317e-09
1.45497e-09
5.165e-09
1.68865e-09
4.54758e-09
1.76907e-09
3.6735e-09
1.69461e-09
2.71309e-09
1.49912e-09
1.86593e-09
1.2372e-09
1.32817e-09
9.74139e-10
1.28663e-09
7.84008e-10
1.9181e-09
7.47251e-10
3.36148e-09
9.25193e-10
5.63287e-09
1.3097e-09
8.49663e-09
1.77324e-09
1.13823e-08
2.11742e-09
1.35551e-08
2.20114e-09
1.45242e-08
2.02046e-09
1.43107e-08
1.6743e-09
1.33345e-08
1.28214e-09
1.20998e-08
9.23346e-10
1.0956e-08
6.29525e-10
1.00483e-08
3.99953e-10
9.3834e-09
2.22738e-10
8.91269e-09
8.36947e-11
8.58003e-09
-2.76632e-11
8.34108e-09
-1.19496e-10
8.16457e-09
-1.96584e-10
8.03044e-09
-2.62726e-10
7.92552e-09
-3.19859e-10
7.84168e-09
-3.69936e-10
7.7731e-09
-4.13656e-10
7.71635e-09
-4.52477e-10
7.66822e-09
-4.86226e-10
7.62745e-09
-5.16171e-10
7.59197e-09
-5.42153e-10
7.56113e-09
-5.64915e-10
7.53374e-09
-5.8433e-10
7.50944e-09
-6.00996e-10
7.4874e-09
-6.14769e-10
7.46749e-09
-6.26108e-10
7.44912e-09
-6.34909e-10
7.43226e-09
-6.41493e-10
7.41651e-09
-6.45835e-10
7.40185e-09
-6.4812e-10
7.38805e-09
-6.48427e-10
7.37507e-09
-6.46796e-10
7.36282e-09
-6.43446e-10
7.35119e-09
-6.38259e-10
7.34027e-09
-6.31628e-10
7.32982e-09
-6.23259e-10
7.3201e-09
-6.13751e-10
7.31073e-09
-6.02632e-10
7.30216e-09
-5.9069e-10
7.29387e-09
-5.77335e-10
7.28644e-09
-5.63418e-10
7.27926e-09
-5.48414e-10
7.27295e-09
-5.32933e-10
7.26701e-09
-5.16866e-10
7.26177e-09
-5.00099e-10
7.25724e-09
-4.83425e-10
7.25303e-09
-4.65438e-10
7.25009e-09
-4.48353e-10
7.24689e-09
-4.29023e-10
7.24571e-09
-4.1134e-10
7.24357e-09
-3.90354e-10
7.24425e-09
-3.71369e-10
7.24338e-09
-3.48197e-10
7.24586e-09
-3.26714e-10
7.24639e-09
-3.01206e-10
7.25001e-09
-2.78018e-10
7.25132e-09
-2.52524e-10
7.25529e-09
-2.29925e-10
7.25771e-09
7.26221e-09
-2.06763e-10
-5.61654e-10
2.4954e-09
3.68789e-10
-6.89761e-10
2.03923e-09
-7.2135e-10
2.07351e-09
-6.47084e-10
2.45305e-09
-4.6887e-10
3.0398e-09
-1.99283e-10
3.70361e-09
1.47621e-10
4.32511e-09
5.56675e-10
4.7884e-09
9.84584e-10
4.97507e-09
1.34665e-09
4.80269e-09
1.59198e-09
4.30205e-09
1.69388e-09
3.57136e-09
1.65046e-09
2.75635e-09
1.4874e-09
2.02881e-09
1.25025e-09
1.56535e-09
9.96182e-10
1.54036e-09
7.92764e-10
2.12166e-09
7.11152e-10
3.44288e-09
8.10105e-10
5.53425e-09
1.09527e-09
8.21141e-09
1.47991e-09
1.09979e-08
1.80308e-09
1.32319e-08
1.92705e-09
1.44004e-08
1.81693e-09
1.44209e-08
1.53729e-09
1.36144e-08
1.18883e-09
1.24483e-08
8.51626e-10
1.12935e-08
5.64697e-10
1.03353e-08
3.35792e-10
9.61254e-09
1.56889e-10
9.09168e-09
1.63906e-11
8.72076e-09
-9.63065e-11
8.4539e-09
-1.88859e-10
8.25733e-09
-2.66795e-10
8.1084e-09
-3.33439e-10
7.99246e-09
-3.91483e-10
7.89969e-09
-4.42146e-10
7.82413e-09
-4.87157e-10
7.76099e-09
-5.26499e-10
7.70798e-09
-5.61561e-10
7.66233e-09
-5.92251e-10
7.62287e-09
-6.19352e-10
7.5881e-09
-6.42766e-10
7.5574e-09
-6.63114e-10
7.52973e-09
-6.80253e-10
7.50482e-09
-6.94673e-10
7.48195e-09
-7.06248e-10
7.46101e-09
-7.15343e-10
7.4415e-09
-7.21895e-10
7.42338e-09
-7.26142e-10
7.40634e-09
-7.28112e-10
7.39033e-09
-7.27912e-10
7.3752e-09
-7.25686e-10
7.36085e-09
-7.21404e-10
7.34731e-09
-7.15361e-10
7.33438e-09
-7.07365e-10
7.32225e-09
-6.97907e-10
7.31061e-09
-6.86612e-10
7.29981e-09
-6.74185e-10
7.2894e-09
-6.60085e-10
7.27991e-09
-6.45177e-10
7.27077e-09
-6.28853e-10
7.26259e-09
-6.11944e-10
7.25479e-09
-5.94023e-10
7.24791e-09
-5.75516e-10
7.24161e-09
-5.56573e-10
7.23603e-09
-5.36691e-10
7.23144e-09
-5.17099e-10
7.22712e-09
-4.95851e-10
7.22443e-09
-4.75658e-10
7.22142e-09
-4.52851e-10
7.22077e-09
-4.31652e-10
7.21917e-09
-4.06876e-10
7.22056e-09
-3.83927e-10
7.22046e-09
-3.56861e-10
7.22354e-09
-3.31924e-10
7.22468e-09
-3.03777e-10
7.22861e-09
-2.7814e-10
7.23086e-09
-2.51521e-10
7.23526e-09
7.23959e-09
-2.27062e-10
-5.09344e-10
2.68375e-09
3.20728e-10
-6.42175e-10
2.17191e-09
-6.88785e-10
2.11996e-09
-6.35922e-10
2.40003e-09
-4.81736e-10
2.88545e-09
-2.33935e-10
3.45564e-09
9.35866e-11
3.99742e-09
4.78592e-10
4.40322e-09
8.78356e-10
4.57512e-09
1.22786e-09
4.45298e-09
1.47699e-09
4.05272e-09
1.5967e-09
3.45147e-09
1.58181e-09
2.77108e-09
1.45102e-09
2.15945e-09
1.24141e-09
1.77489e-09
1.00269e-09
1.77903e-09
7.94459e-10
2.32988e-09
6.81031e-10
3.55646e-09
7.17068e-10
5.49817e-09
9.18416e-10
8.01027e-09
1.22678e-09
1.06896e-08
1.51535e-09
1.29435e-08
1.65698e-09
1.4259e-08
1.59885e-09
1.4479e-08
1.37696e-09
1.38365e-08
1.07234e-09
1.2753e-08
7.60391e-10
1.16057e-08
4.84545e-10
1.06112e-08
2.59043e-10
9.83833e-09
8.03109e-11
9.27044e-09
-6.08014e-11
8.86216e-09
-1.74138e-10
8.56729e-09
-2.67137e-10
8.3505e-09
-3.45304e-10
8.18683e-09
-4.12454e-10
8.05966e-09
-4.70729e-10
7.95836e-09
-5.22316e-10
7.87547e-09
-5.67531e-10
7.80672e-09
-6.07946e-10
7.7483e-09
-6.43591e-10
7.69819e-09
-6.75265e-10
7.65446e-09
-7.0295e-10
7.61602e-09
-7.27255e-10
7.58166e-09
-7.48073e-10
7.5508e-09
-7.65884e-10
7.52267e-09
-7.80575e-10
7.49693e-09
-7.9251e-10
7.47308e-09
-8.01622e-10
7.45093e-09
-8.08163e-10
7.43015e-09
-8.12139e-10
7.41063e-09
-8.13692e-10
7.39219e-09
-8.12922e-10
7.37471e-09
-8.09855e-10
7.35816e-09
-8.04713e-10
7.34239e-09
-7.97389e-10
7.32748e-09
-7.8827e-10
7.31324e-09
-7.7709e-10
7.29985e-09
-7.64434e-10
7.28704e-09
-7.49869e-10
7.27514e-09
-7.3417e-10
7.26378e-09
-7.16782e-10
7.25336e-09
-6.98567e-10
7.2435e-09
-6.78991e-10
7.23459e-09
-6.5875e-10
7.22636e-09
-6.37631e-10
7.219e-09
-6.15743e-10
7.21257e-09
-5.936e-10
7.20678e-09
-5.7024e-10
7.20234e-09
-5.47331e-10
7.19817e-09
-5.22462e-10
7.19587e-09
-4.98662e-10
7.19339e-09
-4.7204e-10