/*--------------------------------*- C++ -*----------------------------------*\
  =========                 |
  \\      /  F ield         | OpenFOAM: The Open Source CFD Toolbox
   \\    /   O peration     | Website:  https://openfoam.org
    \\  /    A nd           | Version:  7
     \\/     M anipulation  |
\*---------------------------------------------------------------------------*/
FoamFile
{
    version     2.0;
    format      ascii;
    class       volVectorField;
    location    "35";
    object      U;
}
// * * * * * * * * * * * * * * * * * * * * * * * * * * * * * * * * * * * * * //

dimensions      [0 1 -1 0 0 0 0];

internalField   nonuniform List<vector> 
49920
(
(-0.00643682 0.000391521 -1.03001e-29)
(-0.0133598 0.00491903 7.5871e-30)
(-0.00522508 0.00461888 4.40111e-29)
(-0.00347471 0.00613954 -6.18267e-29)
(-0.000748025 0.00599026 -4.43079e-29)
(-0.00190123 0.00881697 -6.83136e-29)
(-0.00166321 0.00615246 -4.28282e-29)
(-0.000108967 0.0039017 0)
(0.000926704 0.0048029 -6.1574e-29)
(0.00272696 0.00737033 -1.76392e-29)
(0.00218945 0.00653425 1.69115e-28)
(0.00284782 0.00480942 0)
(0.00587577 0.00434763 2.80655e-28)
(0.00672508 0.00217332 9.12098e-36)
(0.0142853 0.000195361 0)
(0.00782678 -0.00199975 -2.05391e-28)
(0.0438586 0.00210543 -3.57535e-28)
(0.0258571 0.00947752 2.19638e-29)
(0.0135907 0.0125667 0)
(0.0101997 0.0128532 2.46511e-29)
(0.00827338 0.0129712 2.46521e-29)
(0.00733674 0.0131201 5.98055e-30)
(0.007104 0.0131552 0)
(0.00711599 0.0131161 -5.41765e-30)
(0.00722412 0.0130395 9.17977e-31)
(0.00738405 0.01294 -1.00224e-32)
(0.00757322 0.0128246 -2.0776e-30)
(0.00777902 0.0126973 0)
(0.00799451 0.0125603 0)
(0.00821556 0.0124152 0)
(0.00843949 0.0122629 0)
(0.00866454 0.012104 0)
(0.00888948 0.0119391 0)
(0.00911343 0.0117686 -8.88324e-31)
(0.00933571 0.0115927 4.68358e-31)
(0.00955584 0.0114116 -6.3117e-31)
(0.00977339 0.0112256 3.57645e-32)
(0.00998805 0.0110348 6.04217e-31)
(0.0101996 0.0108394 -6.36025e-31)
(0.0104078 0.0106396 -3.63989e-40)
(0.0106124 0.0104353 -4.81477e-40)
(0.0108134 0.0102268 6.38773e-31)
(0.0110105 0.0100142 -4.36897e-31)
(0.0112037 0.00979751 2.41389e-31)
(0.0113928 0.00957688 6.40661e-31)
(0.0115777 0.0093524 -9.14486e-31)
(0.0117584 0.00912417 3.36892e-31)
(0.0119346 0.00889231 0)
(0.0121064 0.00865691 0)
(0.0122737 0.00841806 0)
(0.0124363 0.00817586 0)
(0.0125942 0.0079304 0)
(0.0127473 0.00768181 0)
(0.0128956 0.00743022 -4.01983e-31)
(0.0130389 0.00717575 -1.26419e-32)
(0.0131773 0.0069185 -1.26876e-30)
(0.0133104 0.00665857 4.7642e-31)
(0.0134385 0.00639625 0)
(0.0135614 0.00613157 2.61102e-31)
(0.0136789 0.00586469 5.65823e-31)
(0.0137912 0.00559576 3.07205e-31)
(0.013898 0.00532485 0)
(0.0139997 0.00505216 0)
(0.0140955 0.00477769 -3.81583e-31)
(0.0141865 0.0045017 -4.16238e-31)
(0.0142712 0.00422392 0)
(0.0143515 0.00394467 -2.80043e-38)
(0.0144251 0.00366364 6.54916e-31)
(0.0144947 0.00338126 0)
(0.014557 0.00309686 3.31913e-31)
(0.014616 0.00281089 -3.89889e-31)
(0.0146671 0.00252285 -3.86688e-31)
(0.0147151 0.00223324 0)
(0.0147549 0.00194141 -3.25008e-31)
(0.0147916 0.00164778 -2.75778e-31)
(0.0148202 0.00135182 2.93577e-32)
(0.0148451 0.00105426 -7.92009e-32)
(0.0148624 0.00075492 1.00371e-31)
(0.0148748 0.000454602 -2.50348e-32)
(0.0148809 0.000153382 -2.60222e-32)
(-0.00339499 0.000339999 0)
(-0.0076297 0.0102768 0)
(-0.00420718 0.0114291 7.17174e-29)
(-0.0038012 0.0115659 -2.96865e-29)
(-0.00247597 0.0118315 -1.67851e-28)
(-0.00227254 0.0229872 -3.45009e-28)
(0.00065439 0.0104495 -1.49158e-28)
(0.00301119 0.0185705 5.65647e-30)
(0.00196861 0.0139553 0)
(0.00226993 0.0134705 -1.62002e-28)
(0.00504437 0.014297 3.25009e-28)
(0.00585881 0.0109073 -3.02378e-28)
(0.00715908 0.00906381 5.32069e-28)
(0.00927068 0.00811145 3.51374e-28)
(0.0126627 0.00727542 -2.58729e-28)
(0.00430155 -0.000926846 0)
(0.0285165 0.0100218 0)
(0.0309323 0.0152327 3.95842e-29)
(0.0246864 0.016682 3.86652e-30)
(0.0184657 0.0151059 -1.16645e-29)
(0.0133197 0.0136362 -4.0575e-30)
(0.0102008 0.0130284 0)
(0.00877271 0.0128097 0)
(0.0081367 0.0127114 0)
(0.00786352 0.0126362 2.80099e-31)
(0.00778512 0.0125546 -2.82708e-30)
(0.00781613 0.0124607 -2.10197e-30)
(0.0079112 0.0123545 9.33076e-31)
(0.00804587 0.0122372 -1.02455e-30)
(0.00820592 0.0121099 -1.09022e-30)
(0.00838261 0.0119737 0)
(0.00857023 0.0118295 -5.26484e-31)
(0.00876494 0.0116781 -3.62427e-31)
(0.00896406 0.01152 0)
(0.00916565 0.0113556 2.29069e-30)
(0.00936831 0.0111854 1.16836e-30)
(0.00957094 0.0110096 -3.95386e-32)
(0.00977275 0.0108285 -1.22504e-30)
(0.00997309 0.0106423 4.00062e-40)
(0.0101715 0.0104512 -2.02765e-40)
(0.0103675 0.0102554 -2.66625e-40)
(0.0105608 0.010055 9.91495e-40)
(0.0107511 0.00985023 1.08232e-30)
(0.0109382 0.00964112 -2.59528e-31)
(0.0111219 0.00942782 -1.55345e-30)
(0.0113019 0.00921045 -2.90063e-30)
(0.0114782 0.00898913 0)
(0.0116505 0.00876398 -3.18801e-31)
(0.0118187 0.0085351 -3.61667e-31)
(0.0119828 0.00830256 0)
(0.0121426 0.00806649 1.30899e-30)
(0.012298 0.00782701 1.30946e-30)
(0.012449 0.00758421 -1.3087e-30)
(0.0125953 0.00733831 -4.13797e-31)
(0.0127368 0.00708923 4.58164e-31)
(0.0128738 0.00683735 1.30973e-30)
(0.0130057 0.00658268 0)
(0.0131327 0.00632546 0)
(0.0132544 0.00606573 0)
(0.0133713 0.00580381 -6.50928e-31)
(0.0134827 0.00553964 -6.497e-31)
(0.0135893 0.00527359 3.35819e-31)
(0.0136901 0.00500555 1.02406e-30)
(0.0137861 0.0047359 0)
(0.0138761 0.00446449 0)
(0.0139615 0.00419156 -4.54195e-31)
(0.0140406 0.00391693 7.90333e-31)
(0.0141152 0.00364084 1.2899e-30)
(0.0141833 0.00336313 -6.44774e-31)
(0.0142471 0.00308373 1.46783e-31)
(0.0143042 0.00280249 -1.14968e-30)
(0.0143569 0.00251945 0)
(0.014403 0.00223451 1.97923e-31)
(0.0144443 0.00194754 -5.00926e-33)
(0.0144796 0.00165833 -2.13376e-31)
(0.0145092 0.00136697 3.09126e-32)
(0.0145333 0.00107333 1.69818e-33)
(0.0145509 0.000778253 1.70569e-31)
(0.0145641 0.000481292 0)
(0.0145702 0.000183917 0)
(-0.00456197 -0.00441189 2.50115e-31)
(1.59544e-05 0.00359245 -6.72998e-32)
(-0.00229365 0.00469457 5.84269e-29)
(-0.00561264 0.0116722 0)
(-0.00292662 0.0115367 -7.16486e-29)
(-0.000995221 0.0131019 1.64613e-28)
(0.000739157 0.00786854 4.43045e-30)
(0.00167674 0.0113185 -1.40498e-30)
(0.00228515 0.0180771 -1.18061e-29)
(0.00137623 0.0123355 -6.36351e-28)
(0.00330307 0.0107442 -2.3311e-29)
(0.00550459 0.0103011 -7.24106e-28)
(0.00776783 0.00873988 2.50612e-28)
(0.0075928 0.00534839 2.92834e-29)
(0.0054729 0.00312139 -1.15036e-28)
(0.0135682 -0.0065955 0)
(0.013308 0.00405487 0)
(0.0227167 0.0156025 1.33593e-36)
(0.0260469 0.0200635 5.4028e-30)
(0.0228372 0.0188406 -1.16887e-29)
(0.0174374 0.0161705 -2.97274e-30)
(0.0131258 0.0142572 -6.84202e-30)
(0.0106147 0.0132447 -3.82388e-30)
(0.00928076 0.0127616 -2.03434e-30)
(0.00858668 0.0125126 -9.8614e-31)
(0.00824579 0.0123524 0)
(0.00810376 0.0122236 0)
(0.00807874 0.0121036 3.39943e-31)
(0.00812637 0.0119829 -4.66233e-38)
(0.00822113 0.0118578 -1.49621e-30)
(0.00834741 0.0117268 -1.382e-30)
(0.00849518 0.0115893 8.41346e-31)
(0.00865779 0.0114454 0)
(0.00883057 0.0112952 9.39845e-31)
(0.00901027 0.0111389 9.73006e-31)
(0.00919444 0.0109767 5.48034e-40)
(0.00938135 0.010809 2.31578e-32)
(0.00956959 0.0106358 -2.12377e-30)
(0.00975817 0.0104573 9.75754e-31)
(0.00994624 0.0102739 9.26166e-31)
(0.0101332 0.0100855 -9.20795e-31)
(0.0103184 0.00989241 -8.75748e-31)
(0.0105016 0.00969475 1.3002e-30)
(0.0106822 0.0094926 2.60543e-31)
(0.0108602 0.00928613 -2.0235e-39)
(0.011035 0.00907543 -1.10514e-30)
(0.0112066 0.00886063 -1.11111e-30)
(0.0113747 0.00864185 0)
(0.0115391 0.00841917 -1.12123e-30)
(0.0116998 0.00819272 7.70539e-31)
(0.0118566 0.00796259 7.37655e-31)
(0.0120093 0.00772887 1.6987e-38)
(0.0121579 0.0074917 1.55084e-30)
(0.0123021 0.00725127 0)
(0.0124419 0.00700774 0)
(0.0125769 0.00676103 -1.13813e-30)
(0.0127075 0.0065115 -1.13296e-30)
(0.0128331 0.00625916 -1.12995e-30)
(0.012954 0.00600432 -1.12297e-30)
(0.0130697 0.00574699 -5.69905e-31)
(0.0131807 0.00548746 -1.49757e-30)
(0.0132864 0.00522576 -3.43605e-31)
(0.0133871 0.00496211 2.36313e-38)
(0.0134825 0.00469661 0)
(0.0135727 0.00442934 0)
(0.0136576 0.00416042 -5.33902e-31)
(0.013737 0.00388972 6.44404e-32)
(0.0138114 0.00361755 5.40889e-32)
(0.0138798 0.00334357 -2.11952e-30)
(0.0139435 0.00306806 -5.17613e-31)
(0.0140007 0.00279046 -8.68929e-31)
(0.0140537 0.0025113 2.3283e-31)
(0.0140995 0.00222995 -2.01312e-31)
(0.0141416 0.00194683 -1.70499e-31)
(0.014176 0.00166136 2.96342e-31)
(0.014207 0.0013739 0)
(0.0142299 0.00108432 0)
(0.0142493 0.000792753 1.49459e-31)
(0.0142618 0.000499739 -1.78544e-32)
(0.0142695 0.000206684 -4.52162e-32)
(-0.000918387 -0.00313344 8.18502e-31)
(-0.00157514 0.00894893 -5.14322e-31)
(-0.00312274 0.0251574 3.86329e-29)
(0.000270981 0.00485424 -3.07211e-29)
(0.000562827 0.00689053 0)
(0.00062737 0.00566536 -1.60832e-38)
(0.000559688 0.00431491 0)
(0.000806059 0.00584695 0)
(-0.00162294 0.00713808 0)
(-0.00152677 0.00818665 -2.77632e-28)
(0.0015528 0.00779099 -4.0585e-28)
(0.00244798 0.00705853 -1.8962e-28)
(0.00451863 0.00482058 2.95032e-28)
(0.00240919 0.00183174 1.47246e-29)
(0.0123405 0.00835517 -6.00552e-29)
(0.00726532 -0.00123988 1.75908e-29)
(0.00645358 0.00275158 0)
(0.0148291 0.0132535 1.63354e-30)
(0.0222111 0.0201295 -7.73125e-30)
(0.0231664 0.0210768 -1.94996e-29)
(0.0197662 0.0188048 -3.61795e-30)
(0.0155484 0.0161534 -7.17479e-30)
(0.0123782 0.0142914 -6.7051e-30)
(0.0104295 0.0132378 -5.16765e-30)
(0.00932522 0.0126722 -3.73924e-30)
(0.00872226 0.0123447 -2.4384e-30)
(0.00840725 0.0121265 -9.36351e-33)
(0.00826263 0.0119577 1.10273e-30)
(0.00822378 0.0118106 3.01331e-38)
(0.00825362 0.0116717 3.69272e-31)
(0.00832961 0.0115343 -8.87375e-31)
(0.00843757 0.0113952 1.65003e-31)
(0.00856794 0.0112524 -6.17729e-31)
(0.00871428 0.0111053 6.76716e-31)
(0.00887188 0.0109532 1.14992e-31)
(0.00903746 0.0107962 -6.72885e-31)
(0.00920845 0.0106339 -1.857e-32)
(0.00938304 0.0104666 -8.6595e-31)
(0.00955971 0.0102942 6.33741e-31)
(0.00973742 0.0101169 -1.46794e-31)
(0.00991517 0.00993478 1.63646e-31)
(0.0100923 0.00974793 -4.72327e-31)
(0.0102683 0.00955643 2.39134e-31)
(0.0104425 0.00936044 2.46992e-31)
(0.0106146 0.00916001 5.58323e-31)
(0.0107843 0.00895531 3.10003e-31)
(0.0109512 0.00874637 -9.22108e-31)
(0.0111151 0.00853337 9.2931e-31)
(0.0112758 0.00831637 -1.27926e-30)
(0.0114332 0.00809546 1.86199e-30)
(0.011587 0.00787076 1.33566e-30)
(0.011737 0.00764234 1.90194e-30)
(0.0118832 0.00741043 4.0055e-31)
(0.0120252 0.0071751 1.88412e-32)
(0.0121629 0.00693647 7.70851e-32)
(0.0122964 0.00669465 -1.42559e-30)
(0.0124254 0.0064498 -1.42306e-30)
(0.0125498 0.00620208 -1.45944e-30)
(0.0126696 0.00595167 -9.39957e-31)
(0.0127846 0.0056987 5.59872e-31)
(0.0128948 0.00544339 1.22254e-30)
(0.0129998 0.00518579 3.44757e-31)
(0.0131002 0.00492618 -8.11555e-31)
(0.013195 0.00466455 0)
(0.0132853 0.00440119 4.16091e-31)
(0.0133697 0.00413593 -8.67141e-31)
(0.0134497 0.0038691 -5.27143e-32)
(0.0135232 0.00360044 8.71307e-31)
(0.0135928 0.00333026 -4.28929e-31)
(0.0136554 0.00305814 -3.73475e-31)
(0.0137142 0.00278436 6.37253e-32)
(0.0137657 0.00250854 0)
(0.0138136 0.00223094 0)
(0.0138541 0.00195112 0)
(0.0138908 0.00166934 2.4312e-31)
(0.0139204 0.00138526 0)
(0.0139455 0.00109928 -2.49371e-33)
(0.0139645 0.000810813 1.42674e-32)
(0.0139783 0.000521428 -3.3555e-32)
(0.0139864 0.000231863 -1.63137e-32)
(-0.00157564 -0.00215435 4.2379e-32)
(-0.00162286 0.00496021 5.19606e-32)
(0.000805384 0.0166775 0)
(0.00407893 0.0114734 -1.21027e-30)
(0.00355475 0.0198226 0)
(0.00399488 0.0210886 1.99872e-37)
(0.0032283 0.0149571 -1.02885e-29)
(0.00313517 0.0213387 0)
(0.0031053 0.033551 -1.97581e-28)
(0.000400602 0.00226765 -5.98156e-29)
(0.00125567 0.00626762 2.45529e-31)
(0.00107286 0.00453694 -1.18473e-28)
(0.000521826 0.00200327 5.28107e-29)
(0.00430185 0.00668775 3.89661e-29)
(0.00535172 0.00316973 0)
(0.00430273 -0.000967202 1.32639e-29)
(0.00474832 0.00224298 -3.28526e-30)
(0.00993669 0.0105772 1.31081e-29)
(0.0173337 0.0182738 3.3833e-29)
(0.0211268 0.0214553 1.0459e-29)
(0.0203116 0.0205695 -7.43437e-30)
(0.0171309 0.0180066 -5.68417e-30)
(0.0138695 0.0156065 3.95165e-30)
(0.0115021 0.0139904 0)
(0.0100329 0.0130401 0)
(0.00917812 0.0124853 1.12191e-30)
(0.00869572 0.0121367 -6.50125e-31)
(0.00843656 0.0118921 3.01811e-31)
(0.00831564 0.0117 7.12514e-31)
(0.00828392 0.0115342 3.39759e-31)
(0.00831218 0.011381 8.20342e-32)
(0.00838201 0.011233 -4.20142e-31)
(0.00848134 0.011086 -9.89494e-31)
(0.00860193 0.0109377 -4.52593e-31)
(0.00873792 0.0107866 -6.24087e-31)
(0.00888512 0.0106319 6.68579e-31)
(0.00904036 0.0104731 0)
(0.00920131 0.0103099 -8.09732e-31)
(0.0093661 0.0101422 7.42471e-31)
(0.00953334 0.00996989 9.40473e-31)
(0.00970188 0.00979298 -9.72398e-31)
(0.00987085 0.00961151 -8.25183e-31)
(0.0100395 0.00942549 1.06958e-30)
(0.0102071 0.00923501 0)
(0.0103733 0.00904013 -1.68787e-30)
(0.0105377 0.0088409 8.54607e-31)
(0.0106999 0.00863746 1.18084e-30)
(0.0108596 0.00842984 1.76078e-30)
(0.0110164 0.00821819 8.61394e-31)
(0.0111703 0.00800248 -1.26698e-30)
(0.011321 0.00778292 -5.18473e-31)
(0.0114683 0.00755963 2.21054e-30)
(0.0116118 0.00733265 9.0758e-31)
(0.0117516 0.00710217 -9.08335e-31)
(0.0118873 0.00686824 9.09296e-31)
(0.0120191 0.00663106 0)
(0.0121465 0.00639069 0)
(0.0122696 0.0061474 8.92674e-31)
(0.0123881 0.00590121 -8.86383e-31)
(0.0125023 0.00565244 -8.73851e-31)
(0.0126115 0.00540111 -5.87726e-31)
(0.0127161 0.00514752 -4.38393e-31)
(0.0128157 0.0048917 -7.09451e-31)
(0.0129105 0.00463389 4.11852e-31)
(0.013 0.00437416 0)
(0.0130847 0.0041126 -4.0165e-31)
(0.013164 0.00384934 8.61043e-31)
(0.0132381 0.00358428 8.98835e-31)
(0.0133071 0.00331765 -3.88616e-31)
(0.0133703 0.00304907 5.10807e-31)
(0.0134288 0.00277888 5.07808e-31)
(0.0134809 0.00250657 0)
(0.0135287 0.00223251 0)
(0.0135697 0.00195615 -2.27973e-31)
(0.0136069 0.0016778 0)
(0.0136368 0.00139721 0)
(0.0136631 0.00111438 0)
(0.0136822 0.00082947 0)
(0.0136974 0.000543203 3.45139e-32)
(0.0137064 0.000257125 5.16261e-32)
(-0.00234024 -0.000535348 -5.36476e-31)
(-0.00276904 0.00326514 8.34035e-31)
(0.000508209 0.00827094 -4.93881e-32)
(0.00258509 0.00598604 -1.17383e-30)
(0.00257351 0.0110325 1.90601e-30)
(0.00366451 0.0125629 -3.0869e-29)
(0.0033196 0.00929294 -1.0307e-30)
(0.00358571 0.0147129 -1.64789e-29)
(0.00536402 0.0239443 3.2569e-29)
(0.00318998 0.00742685 2.48794e-29)
(0.00210658 0.0163636 3.98189e-29)
(0.00189186 0.0137482 -4.21904e-29)
(-0.000623996 0.00561255 -7.26686e-30)
(-0.000100075 0.00249712 -1.66165e-29)
(0.00183863 0.000799167 -6.8938e-30)
(0.00282164 -0.000222537 -3.27871e-30)
(0.00363937 0.00228891 -6.78728e-31)
(0.00707166 0.00865973 2.38147e-32)
(0.0132468 0.0160542 -8.0139e-30)
(0.0182444 0.0206852 0)
(0.0195403 0.0213559 -5.25359e-30)
(0.0177927 0.0194597 -7.72794e-30)
(0.0149519 0.0169328 1.98949e-30)
(0.0124364 0.0148928 1.24757e-31)
(0.0106885 0.0135559 -3.85626e-31)
(0.00960229 0.0127398 0)
(0.00895872 0.0122314 -1.17522e-30)
(0.00858987 0.0118903 -1.14106e-31)
(0.00839167 0.0116389 1.14598e-31)
(0.00830282 0.011436 0)
(0.00828692 0.0112595 -2.17756e-31)
(0.00832137 0.0110968 1.74889e-31)
(0.0083917 0.0109412 -3.17771e-31)
(0.00848798 0.0107881 -4.97458e-31)
(0.00860341 0.0106351 -1.11239e-30)
(0.00873292 0.0104804 6.04344e-31)
(0.00887295 0.0103232 -7.13162e-31)
(0.00902052 0.0101625 -1.47012e-30)
(0.00917364 0.0099982 0)
(0.0093305 0.00982979 -3.37479e-40)
(0.00948989 0.00965724 -3.9067e-40)
(0.00965061 0.00948036 0)
(0.00981184 0.0092992 1.7963e-30)
(0.00997286 0.00911365 1.07172e-30)
(0.0101331 0.00892381 -8.02014e-31)
(0.0102922 0.0087297 1.62335e-30)
(0.0104495 0.0085313 8.23154e-31)
(0.0106048 0.00832881 1.1729e-30)
(0.0107577 0.00812211 -1.21516e-30)
(0.0109081 0.00791147 8.53631e-31)
(0.0110555 0.00769684 8.61472e-31)
(0.0111997 0.00747836 8.68906e-31)
(0.0113406 0.00725614 4.70061e-31)
(0.0114779 0.00703028 -1.30498e-30)
(0.0116116 0.00680094 0)
(0.0117414 0.00656818 -4.358e-31)
(0.0118672 0.0063322 -4.68148e-31)
(0.0119888 0.0060931 1.33254e-30)
(0.0121061 0.0058511 -3.35958e-31)
(0.012219 0.00560631 -8.39696e-31)
(0.0123274 0.00535893 0)
(0.0124312 0.00510914 1.42523e-30)
(0.0125301 0.00485707 1.56522e-32)
(0.0126245 0.00460296 2.78018e-32)
(0.0127134 0.00434678 3.85122e-31)
(0.0127982 0.0040889 8.02526e-31)
(0.0128767 0.00382907 9.35638e-31)
(0.0129515 0.00356774 4.95039e-31)
(0.0130193 0.00330441 1.29636e-31)
(0.0130841 0.00303964 8.84236e-31)
(0.0131409 0.0027727 3.92673e-31)
(0.0131953 0.00250422 0)
(0.0132411 0.00223337 2.09325e-31)
(0.0132849 0.00196074 -1.8384e-31)
(0.01332 0.00168554 -5.35998e-32)
(0.0133528 0.00140848 -1.67671e-31)
(0.0133778 0.00112872 -1.75535e-32)
(0.0133992 0.000847126 2.88654e-32)
(0.0134151 0.000563657 6.60583e-32)
(0.0134254 0.000281225 3.06184e-32)
(-0.0022466 0.000827097 -1.86511e-31)
(-0.0027707 0.00302602 5.14605e-31)
(-0.000719318 0.00592314 0)
(0.000435019 0.0057446 0)
(0.000989006 0.00858236 -1.16101e-30)
(0.0027352 0.00968515 -1.67433e-30)
(0.00278292 0.00886515 -2.52266e-30)
(0.00273225 0.0120828 -3.2366e-30)
(0.00560377 0.015794 0)
(0.00438352 0.00694614 0)
(0.00194099 0.00957581 1.69299e-29)
(0.00237313 0.0073937 0)
(0.00109928 0.00229527 0)
(0.000666371 0.000422424 0)
(0.00136405 -0.000212597 -3.45272e-30)
(0.00190539 -0.00026513 -2.69558e-30)
(0.00275719 0.00207095 -2.63347e-30)
(0.00536069 0.00730707 -5.78901e-30)
(0.0102813 0.0140456 -7.71724e-30)
(0.0153876 0.0193648 -2.51866e-30)
(0.0180193 0.0213496 6.4383e-30)
(0.0176619 0.0203888 -6.30205e-32)
(0.0155584 0.0180955 -1.739e-30)
(0.0131677 0.0158367 -8.45505e-31)
(0.0112674 0.0141697 0)
(0.00998939 0.0130849 8.9319e-31)
(0.00919509 0.0123968 -3.45649e-31)
(0.00872089 0.0119431 3.56981e-31)
(0.00844934 0.0116211 2.6665e-32)
(0.00830742 0.0113731 0)
(0.00825105 0.0111673 -3.01995e-31)
(0.00825335 0.0109856 -6.81876e-32)
(0.00829716 0.0108175 -2.18236e-32)
(0.00837117 0.0106568 4.22126e-31)
(0.00846748 0.0104994 2.07501e-39)
(0.00858052 0.0103428 -7.72164e-32)
(0.00870604 0.0101854 -6.90972e-31)
(0.00884094 0.010026 -6.05283e-31)
(0.00898276 0.00986373 0)
(0.00912963 0.00969824 -6.5805e-31)
(0.00927999 0.00952911 6.79318e-31)
(0.00943261 0.00935614 0)
(0.00958655 0.00917909 7.14132e-31)
(0.00974104 0.00899797 1.00855e-30)
(0.00989539 0.00881263 3.1273e-31)
(0.010049 0.00862316 1.37164e-38)
(0.0102014 0.00842946 0)
(0.0103524 0.0082316 4.29031e-31)
(0.0105013 0.00802971 4.10754e-31)
(0.0106479 0.00782371 8.00487e-31)
(0.0107919 0.00761373 8.08572e-31)
(0.0109331 0.00739983 -4.20326e-31)
(0.0110713 0.00718212 8.35579e-31)
(0.0112062 0.0069607 -8.35836e-31)
(0.0113376 0.0067357 3.87615e-31)
(0.0114654 0.0065072 0)
(0.0115894 0.00627537 4.42209e-31)
(0.0117094 0.00604033 1.74485e-30)
(0.0118254 0.00580229 1.57481e-32)
(0.011937 0.00556134 -5.28028e-31)
(0.0120445 0.00531776 0)
(0.0121471 0.00507162 -1.64949e-31)
(0.0122456 0.00482322 6.62147e-31)
(0.0123388 0.00457258 3.65442e-31)
(0.012428 0.00432004 3.56156e-31)
(0.0125113 0.0040655 7.03899e-31)
(0.0125909 0.00380931 0)
(0.0126638 0.00355125 0)
(0.0127336 0.00329163 0)
(0.012796 0.0030301 -3.48519e-31)
(0.0128557 0.00276692 3.46775e-31)
(0.0129075 0.00250165 0)
(0.0129567 0.00223456 1.83995e-31)
(0.012998 0.00196507 1.95939e-31)
(0.0130363 0.00169361 2.01076e-31)
(0.0130676 0.00141932 2.12211e-31)
(0.0130947 0.00114318 0)
(0.0131174 0.000863447 0)
(0.0131341 0.000583546 -2.37788e-32)
(0.013146 0.000304487 7.79146e-32)
(-0.00183868 0.00167758 0)
(-0.00217686 0.00287611 4.86668e-31)
(-0.00116469 0.00506854 2.97634e-31)
(-0.00036134 0.00619949 2.86474e-31)
(0.000412227 0.0086663 5.01385e-31)
(0.00193356 0.00994215 -2.61821e-31)
(0.00230792 0.0103 0)
(0.002417 0.0125152 3.90503e-30)
(0.00497921 0.0139916 0)
(0.0046418 0.0089728 0)
(0.00316395 0.00832012 -9.12733e-31)
(0.00369409 0.00591754 -1.0973e-30)
(0.00300605 0.00243538 0)
(0.00195667 0.000427439 1.43749e-30)
(0.00154372 -0.000464436 -1.8635e-30)
(0.00156241 -0.000265306 6.90126e-31)
(0.00223448 0.00187325 8.84177e-32)
(0.00430032 0.00632464 -3.78255e-30)
(0.00821937 0.0123496 1.15707e-30)
(0.012921 0.0178493 -6.84287e-31)
(0.0162173 0.0207881 1.88187e-30)
(0.0169737 0.0207977 0)
(0.0157091 0.0189839 1.94108e-30)
(0.0136507 0.0167213 -1.42457e-30)
(0.0117388 0.014825 -6.5543e-31)
(0.0103291 0.0134933 5.15551e-31)
(0.0094032 0.0126187 1.08082e-32)
(0.00882951 0.012041 3.67203e-31)
(0.00848796 0.0116395 -1.61106e-31)
(0.00829621 0.0113402 0)
(0.00820275 0.0111006 -1.05755e-31)
(0.00817597 0.0108964 -2.05773e-31)
(0.00819598 0.0107133 0)
(0.0082499 0.0105426 7.1601e-31)
(0.00832891 0.010379 4.15615e-31)
(0.00842679 0.0102189 0)
(0.00853894 0.0100599 1.46478e-31)
(0.00866194 0.0099004 7.17636e-31)
(0.00879313 0.00973928 0)
(0.00893043 0.00957576 -5.92275e-31)
(0.00907211 0.0094093 6.14494e-31)
(0.00921693 0.00923945 0)
(0.0093638 0.00906599 -9.25107e-31)
(0.00951188 0.00888864 -9.70715e-31)
(0.00966035 0.00870741 0)
(0.00980861 0.00852205 6.95902e-31)
(0.00995637 0.00833268 0)
(0.0101027 0.0081392 7.21589e-31)
(0.0102476 0.00794163 7.326e-31)
(0.0103904 0.00774001 0)
(0.0105311 0.00753437 0)
(0.0106692 0.00732481 -7.56858e-31)
(0.0108046 0.00711135 3.59241e-31)
(0.0109369 0.00689415 -1.50353e-32)
(0.0110661 0.00667325 1.19784e-30)
(0.0111918 0.00644882 4.23627e-31)
(0.0113139 0.00622093 4.48695e-31)
(0.0114323 0.00598979 7.59799e-31)
(0.0115467 0.00575549 0)
(0.0116571 0.00551828 7.43093e-31)
(0.0117632 0.00527826 0)
(0.0118652 0.00503571 -7.18206e-31)
(0.0119623 0.00479071 6.3023e-31)
(0.0120554 0.00454357 1.35126e-32)
(0.0121431 0.00429433 -7.73325e-31)
(0.012227 0.00404324 -8.11393e-32)
(0.0123049 0.00379032 -7.7939e-31)
(0.0123792 0.00353571 0)
(0.0124471 0.00327937 3.16822e-31)
(0.0125117 0.00302132 -6.36436e-31)
(0.0125694 0.00276142 -3.1961e-31)
(0.0126239 0.0024997 -3.26891e-31)
(0.0126714 0.00223587 3.33931e-31)
(0.0127153 0.00197004 0)
(0.0127528 0.0017015 1.51921e-31)
(0.0127857 0.00143092 2.9484e-31)
(0.0128147 0.00115618 -1.12322e-32)
(0.0128378 0.000879911 1.219e-31)
(0.0128567 0.000602727 -1.0034e-31)
(0.0128688 0.000327298 0)
(-0.00148371 0.00222779 -5.68195e-33)
(-0.00172248 0.00271097 -6.53119e-32)
(-0.00122175 0.00425698 -2.80366e-31)
(-0.000583858 0.00577445 0)
(0.000193844 0.00791345 5.35426e-31)
(0.00134741 0.00942525 1.89092e-31)
(0.00197679 0.0104328 0)
(0.00247035 0.012176 6.25341e-31)
(0.004334 0.0130879 0)
(0.00460898 0.0102479 0)
(0.00405937 0.00864769 -2.14184e-30)
(0.0041797 0.00609401 1.42436e-30)
(0.0035363 0.00301059 -2.59945e-32)
(0.00249721 0.000804615 1.52714e-30)
(0.00178032 -0.000273956 7.84584e-31)
(0.00153302 -8.77791e-05 1.55807e-30)
(0.00198989 0.00179858 3.06691e-30)
(0.00362859 0.00563004 5.20862e-30)
(0.0067894 0.0109803 3.35014e-32)
(0.0109315 0.0163617 -4.71828e-30)
(0.0144334 0.0199036 -4.07973e-30)
(0.0159662 0.0207731 -8.20985e-30)
(0.0154876 0.0195581 -7.12953e-30)
(0.0138774 0.0174709 -5.85196e-31)
(0.0120788 0.015465 0)
(0.0106086 0.0139336 0)
(0.00957946 0.0128803 -4.5176e-31)
(0.0089156 0.0121737 2.19347e-31)
(0.00850766 0.0116866 -2.77119e-33)
(0.0082687 0.0113312 -1.31824e-31)
(0.00814087 0.0110546 0)
(0.00808772 0.0108254 0)
(0.00808649 0.0106254 2.46747e-31)
(0.00812252 0.0104432 3.10194e-31)
(0.00818607 0.010272 0)
(0.0082703 0.0101071 0)
(0.00837029 0.0099455 2.63871e-31)
(0.00848234 0.009785 2.70775e-31)
(0.00860361 0.00962412 -5.09856e-31)
(0.00873188 0.00946182 -3.50042e-39)
(0.00886539 0.00929729 -3.75534e-39)
(0.00900276 0.00913003 5.77944e-31)
(0.00914284 0.0089595 -3.07942e-31)
(0.00928468 0.00878558 -9.0491e-31)
(0.00942739 0.00860782 0)
(0.00957064 0.00842633 0)
(0.00971337 0.00824084 0)
(0.00985537 0.00805137 -6.67482e-31)
(0.00999613 0.00785786 0)
(0.0101353 0.00766032 0)
(0.0102726 0.00745877 3.95598e-31)
(0.0104076 0.00725326 1.38226e-32)
(0.0105401 0.00704386 -4.19533e-31)
(0.0106698 0.00683062 -7.15049e-31)
(0.0107966 0.00661367 0)
(0.0109201 0.00639306 0)
(0.0110403 0.00616898 1.14468e-30)
(0.0111569 0.00594149 1.76769e-31)
(0.0112698 0.00571086 9.27426e-31)
(0.0113787 0.00547713 1.19965e-30)
(0.0114837 0.00524062 -1.79231e-31)
(0.0115843 0.0050014 1.34041e-32)
(0.0116809 0.00475979 -1.22417e-30)
(0.0117727 0.00451588 -1.35352e-30)
(0.0118604 0.00426993 -1.47576e-30)
(0.0119429 0.00402205 -1.63162e-30)
(0.0120215 0.00377234 -1.93793e-30)
(0.0120944 0.00352095 -5.8661e-33)
(0.0121635 0.00326779 4.98298e-31)
(0.0122268 0.003013 -2.89844e-31)
(0.0122862 0.00275633 -2.99321e-31)
(0.0123398 0.00249789 -2.88943e-31)
(0.012389 0.00223746 3.0655e-31)
(0.012433 0.00197471 0)
(0.0124718 0.00170983 -1.62476e-31)
(0.012507 0.00144083 -2.56256e-31)
(0.0125362 0.00116947 0)
(0.0125618 0.000895283 8.2663e-32)
(0.0125804 0.000621473 -2.91249e-32)
(0.0125937 0.000349881 -6.66414e-32)
(-0.00122569 0.00262941 0)
(-0.00144897 0.00266781 -1.72213e-31)
(-0.00121425 0.00373326 8.92558e-32)
(-0.000727089 0.00517091 -1.00685e-31)
(-2.35763e-05 0.00696023 9.87507e-31)
(0.000911101 0.0085045 -6.08123e-31)
(0.00168245 0.00976266 0)
(0.00244402 0.0111209 0)
(0.00383251 0.0117057 6.13455e-31)
(0.00440815 0.0100432 -6.37068e-31)
(0.00431793 0.0082612 -1.12499e-30)
(0.004204 0.00585119 1.08047e-30)
(0.00362501 0.00319975 -8.15765e-31)
(0.00275664 0.0011481 5.49264e-32)
(0.0020129 6.89749e-05 -3.22828e-30)
(0.00164108 0.000193432 -3.18022e-30)
(0.00191602 0.00182848 2.99089e-30)
(0.00321013 0.00515721 1.87965e-30)
(0.00579239 0.00991165 2.81519e-30)
(0.00937985 0.015022 -7.81577e-31)
(0.0128167 0.0188824 4.16715e-30)
(0.0148244 0.0204366 3.70346e-30)
(0.015 0.019837 -9.25722e-31)
(0.0138717 0.0180466 6.76478e-38)
(0.0122771 0.016045 -6.7243e-31)
(0.0108165 0.0143759 0)
(0.00971928 0.0131646 -3.4883e-31)
(0.00897881 0.0123313 -1.42578e-31)
(0.00850924 0.0117554 -2.80517e-31)
(0.00822551 0.0113408 2.37751e-31)
(0.00806542 0.0110248 2.1382e-31)
(0.00798814 0.010769 0)
(0.00796786 0.0105508 2.17258e-31)
(0.00798805 0.0103561 0)
(0.00803793 0.0101764 3.21949e-31)
(0.00811001 0.010006 -4.18537e-31)
(0.00819909 0.00984097 3.84322e-31)
(0.00830115 0.00967874 1.69685e-32)
(0.00841334 0.00951746 -5.06818e-31)
(0.00853326 0.00935575 -6.85764e-40)
(0.00865914 0.00919268 -7.26172e-40)
(0.00878946 0.00902736 5.75832e-31)
(0.00892308 0.00885948 2.13725e-32)
(0.00905882 0.00868831 1.86883e-30)
(0.00919624 0.00851387 6.96866e-31)
(0.00933415 0.00833571 -5.93532e-31)
(0.00947223 0.00815383 0)
(0.00960983 0.00796802 -6.17506e-31)
(0.00974661 0.00777828 -6.27475e-31)
(0.00988206 0.00758454 -3.94602e-31)
(0.0100159 0.00738683 -4.12969e-31)
(0.0101477 0.00718516 4.04786e-31)
(0.0102773 0.00697955 4.20563e-31)
(0.0104044 0.0067701 -6.66024e-31)
(0.0105288 0.00655684 0)
(0.0106501 0.00633994 -6.722e-31)
(0.0107683 0.00611941 1.49888e-38)
(0.0108831 0.00589551 -6.71624e-31)
(0.0109943 0.00566827 -4.47719e-31)
(0.0111019 0.005438 1.81186e-31)
(0.0112054 0.00520474 -2.76316e-38)
(0.0113051 0.00496883 -5.38982e-31)
(0.0114004 0.00473036 -6.02471e-31)
(0.0114917 0.00448962 -6.28081e-31)
(0.0115783 0.00424676 6.08237e-31)
(0.0116607 0.0040019 0)
(0.0117384 0.0037553 5.67951e-31)
(0.0118115 0.00350682 1.21974e-30)
(0.0118803 0.00325683 -2.71334e-31)
(0.0119438 0.00300488 -2.16324e-31)
(0.0120035 0.00275145 -2.50976e-31)
(0.0120573 0.00249595 0)
(0.0121079 0.00223867 0)
(0.012152 0.00197914 0)
(0.0121935 0.00171645 1.27995e-31)
(0.0122286 0.00145065 -1.67679e-31)
(0.0122605 0.00118125 1.81918e-32)
(0.0122855 0.000910341 1.73487e-32)
(0.0123053 0.000640386 -1.91923e-39)
(0.0123188 0.000372049 -2.07874e-32)
(-0.00102899 0.00295996 -4.80861e-33)
(-0.00125111 0.00272847 -1.0809e-31)
(-0.00116269 0.00347493 -8.65127e-32)
(-0.000806215 0.00473203 9.02651e-31)
(-0.000205828 0.00627644 8.49902e-31)
(0.000594467 0.00774947 6.40507e-31)
(0.00140813 0.00902271 1.57391e-30)
(0.00228172 0.0100961 1.7036e-32)
(0.00342289 0.0104437 7.9194e-31)
(0.00412238 0.00934452 2.26079e-32)
(0.00428246 0.00767744 -6.87692e-31)
(0.00416135 0.00553713 2.29066e-30)
(0.00367215 0.0032888 -6.63808e-31)
(0.00293378 0.00147529 2.46949e-30)
(0.00222262 0.000464687 2.16881e-31)
(0.00179845 0.000531393 -5.69058e-30)
(0.00193963 0.00194151 -9.48522e-31)
(0.00296176 0.0048541 0)
(0.0050936 0.00909397 0)
(0.00818581 0.013871 1.89086e-30)
(0.0114193 0.017847 3.3033e-30)
(0.013671 0.0199037 0)
(0.0143462 0.0198708 -5.86629e-31)
(0.0136754 0.0184408 -6.75088e-38)
(0.0123369 0.0165361 8.65037e-31)
(0.0109457 0.0147947 8.97309e-31)
(0.00981791 0.0134557 0)
(0.00901813 0.0125045 1.70797e-38)
(0.00849357 0.01184 -7.56176e-31)
(0.00816785 0.0113645 -6.50632e-31)
(0.00797724 0.0110074 5.73492e-31)
(0.00787763 0.0107241 6.74383e-31)
(0.00784006 0.0104869 5.0483e-31)
(0.00784623 0.0102793 7.45245e-31)
(0.00788399 0.0100905 2.86937e-31)
(0.00794543 0.00991404 0)
(0.00802472 0.00974514 0)
(0.00811791 0.00958077 -5.19697e-31)
(0.00822183 0.00941862 -1.39754e-31)
(0.00833415 0.00925708 -4.38828e-31)
(0.00845291 0.00909492 4.61581e-31)
(0.00857667 0.00893133 1.31244e-31)
(0.00870405 0.00876545 -6.59615e-31)
(0.00883426 0.00859694 0)
(0.00896617 0.00842524 0)
(0.00909918 0.00825022 -5.44309e-31)
(0.00923262 0.00807155 -1.30762e-30)
(0.00936598 0.00788916 -7.93428e-31)
(0.00949875 0.00770289 -1.94793e-30)
(0.00963053 0.00751272 -8.25124e-31)
(0.00976093 0.00731858 1.41004e-30)
(0.00988961 0.0071205 8.42032e-31)
(0.0100163 0.00691848 -6.14286e-31)
(0.0101407 0.00671258 0)
(0.0102626 0.00650287 -4.12611e-31)
(0.0103817 0.0062894 -1.05891e-30)
(0.0104979 0.00607234 -1.42627e-38)
(0.0106107 0.00585175 -6.34223e-31)
(0.0107204 0.00562785 0)
(0.0108263 0.00540075 -4.59689e-31)
(0.0109287 0.00517071 -5.0022e-31)
(0.0110271 0.00493785 0)
(0.0111214 0.00470244 0)
(0.0112118 0.00446468 3.45965e-32)
(0.0112976 0.00422472 1.87832e-30)
(0.0113797 0.00398283 -1.32101e-30)
(0.0114565 0.00373896 -1.40671e-30)
(0.0115301 0.00349348 1.15579e-30)
(0.0115977 0.00324608 6.89205e-31)
(0.0116626 0.0029972 7.36814e-31)
(0.011721 0.00274631 2.64908e-31)
(0.0117772 0.00249387 -4.60739e-33)
(0.0118264 0.00223917 4.87478e-33)
(0.0118737 0.00198239 -1.01869e-30)
(0.0119145 0.00172233 -4.70311e-31)
(0.0119525 0.00145899 -4.14043e-31)