/*--------------------------------*- C++ -*----------------------------------*\
  =========                 |
  \\      /  F ield         | OpenFOAM: The Open Source CFD Toolbox
   \\    /   O peration     | Website:  https://openfoam.org
    \\  /    A nd           | Version:  7
     \\/     M anipulation  |
\*---------------------------------------------------------------------------*/
FoamFile
{
    version     2.0;
    format      ascii;
    class       volVectorField;
    location    "35";
    object      Ur;
}
// * * * * * * * * * * * * * * * * * * * * * * * * * * * * * * * * * * * * * //

dimensions      [0 1 -1 0 0 0 0];

internalField   uniform (0 0 0);

boundaryField
{
    innerWall
    {
        type            calculated;
        value           nonuniform List<vector> 
320
(
(-0.00014963 -0.0152407 0)
(-0.000647486 -0.0219777 0)
(-0.00215678 -0.0439022 0)
(-0.00252519 -0.0366869 0)
(-0.00327333 -0.03695 0)
(-0.00340078 -0.0313684 0)
(-0.00444935 -0.0346725 0)
(-0.00728716 -0.049126 0)
(-0.0070854 -0.0420587 0)
(-0.00640916 -0.0339601 0)
(-0.0075098 -0.0359082 0)
(-0.00957148 -0.0416659 0)
(-0.00917554 -0.0366308 0)
(-0.0124995 -0.0460455 0)
(-0.00898838 -0.030713 0)
(-0.0049739 -0.0158354 0)
(-0.00479729 -0.0142858 0)
(-0.00505354 -0.0141237 0)
(-0.00532967 -0.0140212 0)
(-0.00560393 -0.0139139 0)
(-0.00587603 -0.0138012 0)
(-0.00614586 -0.0136831 0)
(-0.00641333 -0.0135598 0)
(-0.00667832 -0.0134313 0)
(-0.00694074 -0.0132976 0)
(-0.00720048 -0.0131588 0)
(-0.00745745 -0.0130149 0)
(-0.00771154 -0.0128659 0)
(-0.00796266 -0.012712 0)
(-0.00821071 -0.0125533 0)
(-0.0084556 -0.0123896 0)
(-0.00869722 -0.0122212 0)
(-0.00893549 -0.0120481 0)
(-0.00917032 -0.0118704 0)
(-0.00940161 -0.011688 0)
(-0.00962927 -0.0115012 0)
(-0.00985323 -0.0113099 0)
(-0.0100734 -0.0111143 0)
(-0.0102897 -0.0109143 0)
(-0.010502 -0.0107102 0)
(-0.0107102 -0.010502 0)
(-0.0109143 -0.0102897 0)
(-0.0111143 -0.0100734 0)
(-0.0113099 -0.00985323 0)
(-0.0115012 -0.00962927 0)
(-0.011688 -0.00940161 0)
(-0.0118704 -0.00917032 0)
(-0.0120481 -0.00893549 0)
(-0.0122212 -0.00869722 0)
(-0.0123896 -0.0084556 0)
(-0.0125533 -0.00821071 0)
(-0.012712 -0.00796266 0)
(-0.0128659 -0.00771154 0)
(-0.0130149 -0.00745745 0)
(-0.0131588 -0.00720048 0)
(-0.0132976 -0.00694074 0)
(-0.0134313 -0.00667832 0)
(-0.0135598 -0.00641333 0)
(-0.0136831 -0.00614586 0)
(-0.0138012 -0.00587603 0)
(-0.0139139 -0.00560393 0)
(-0.0140212 -0.00532967 0)
(-0.0141232 -0.00505335 0)
(-0.0142197 -0.00477509 0)
(-0.0143107 -0.00449498 0)
(-0.0143962 -0.00421314 0)
(-0.0144761 -0.00392968 0)
(-0.0145505 -0.00364471 0)
(-0.0146192 -0.00335832 0)
(-0.0146823 -0.00307065 0)
(-0.0147398 -0.00278179 0)
(-0.0147916 -0.00249185 0)
(-0.0148376 -0.00220096 0)
(-0.014878 -0.00190922 0)
(-0.0149126 -0.00161674 0)
(-0.0149415 -0.00132364 0)
(-0.0149646 -0.00103002 0)
(-0.0149819 -0.000736016 0)
(-0.0149935 -0.000441723 0)
(-0.0149993 -0.00014726 0)
(0.0149993 -0.00014726 0)
(0.0149935 -0.000441723 0)
(0.0149819 -0.000736016 0)
(0.0149646 -0.00103002 0)
(0.0149415 -0.00132364 0)
(0.0149126 -0.00161674 0)
(0.014878 -0.00190922 0)
(0.0148376 -0.00220096 0)
(0.0147916 -0.00249185 0)
(0.0147398 -0.00278179 0)
(0.0146823 -0.00307065 0)
(0.0146192 -0.00335832 0)
(0.0145505 -0.00364471 0)
(0.0144761 -0.00392968 0)
(0.0143962 -0.00421314 0)
(0.0143107 -0.00449498 0)
(0.0142197 -0.00477509 0)
(0.0141232 -0.00505335 0)
(0.0140212 -0.00532967 0)
(0.0139139 -0.00560395 0)
(0.0138249 -0.00588614 0)
(0.0141126 -0.00633874 0)
(0.0223824 -0.0105861 0)
(0.0465755 -0.0231583 0)
(0.0374109 -0.0195268 0)
(0.0374603 -0.0204983 0)
(0.0380952 -0.0218284 0)
(0.0140817 -0.00844022 0)
(0.0127129 -0.00796317 0)
(0.0125533 -0.00821071 0)
(0.0123896 -0.0084556 0)
(0.0122212 -0.00869722 0)
(0.0120481 -0.00893549 0)
(0.0118704 -0.00917032 0)
(0.011688 -0.00940161 0)
(0.0115012 -0.00962927 0)
(0.0113099 -0.00985323 0)
(0.0111143 -0.0100734 0)
(0.0109143 -0.0102897 0)
(0.0107102 -0.010502 0)
(0.0105021 -0.0107103 0)
(0.0113953 -0.0120871 0)
(0.0356908 -0.0393788 0)
(0.0279821 -0.0321189 0)
(0.0228224 -0.027259 0)
(0.0207337 -0.025776 0)
(0.0242421 -0.0313798 0)
(0.0287818 -0.0388077 0)
(0.0223499 -0.0314058 0)
(0.0212318 -0.0311101 0)
(0.0183345 -0.0280314 0)
(0.0276025 -0.0440662 0)
(0.0219316 -0.0365906 0)
(0.019581 -0.0341731 0)
(0.00773661 -0.0141385 0)
(0.00694102 -0.0132981 0)
(0.00667832 -0.0134313 0)
(0.00641333 -0.0135598 0)
(0.00614586 -0.0136831 0)
(0.00587603 -0.0138012 0)
(0.00560393 -0.0139139 0)
(0.00532967 -0.0140212 0)
(0.00505335 -0.0141232 0)
(0.00477509 -0.0142197 0)
(0.00449498 -0.0143107 0)
(0.00421314 -0.0143962 0)
(0.00392968 -0.0144761 0)
(0.00364471 -0.0145505 0)
(0.00335832 -0.0146192 0)
(0.00307065 -0.0146823 0)
(0.00278179 -0.0147398 0)
(0.00249185 -0.0147916 0)
(0.00220096 -0.0148376 0)
(0.00190922 -0.014878 0)
(0.00161674 -0.0149126 0)
(0.00132364 -0.0149415 0)
(0.00103002 -0.0149646 0)
(0.000736016 -0.0149819 0)
(0.000441723 -0.0149935 0)
(0.00014726 -0.0149993 0)
(0.00014726 0.0149993 0)
(0.000441723 0.0149935 0)
(0.000736016 0.0149819 0)
(0.00103002 0.0149646 0)
(0.00132364 0.0149415 0)
(0.00161674 0.0149126 0)
(0.00190922 0.014878 0)
(0.00220096 0.0148376 0)
(0.00249302 0.0147985 0)
(0.0029861 0.0158224 0)
(0.00847702 0.040533 0)
(0.0105019 0.0457162 0)
(0.00927092 0.0370116 0)
(0.010869 0.040039 0)
(0.0131913 0.0450742 0)
(0.0112854 0.0359292 0)
(0.012997 0.0387035 0)
(0.0140815 0.0393551 0)
(0.0135312 0.0355978 0)
(0.0124229 0.0308446 0)
(0.00926884 0.0217699 0)
(0.00631782 0.014066 0)
(0.00642574 0.0135861 0)
(0.00667836 0.0134314 0)
(0.00694074 0.0132976 0)
(0.00720048 0.0131588 0)
(0.00745745 0.0130149 0)
(0.00771154 0.0128659 0)
(0.00796266 0.012712 0)
(0.00821071 0.0125533 0)
(0.0084556 0.0123896 0)
(0.00869722 0.0122212 0)
(0.00893549 0.0120481 0)
(0.00917032 0.0118704 0)
(0.00940161 0.011688 0)
(0.00962927 0.0115012 0)
(0.00985323 0.0113099 0)
(0.0100734 0.0111143 0)
(0.0102897 0.0109143 0)
(0.010502 0.0107102 0)
(0.0107102 0.010502 0)
(0.0109143 0.0102897 0)
(0.0111143 0.0100734 0)
(0.0113099 0.00985323 0)
(0.0115012 0.00962927 0)
(0.011688 0.00940161 0)
(0.0118704 0.00917032 0)
(0.0120481 0.00893549 0)
(0.0122212 0.00869722 0)
(0.0123896 0.0084556 0)
(0.0125533 0.00821071 0)
(0.012712 0.00796266 0)
(0.0128659 0.00771154 0)
(0.0130149 0.00745745 0)
(0.0131588 0.00720048 0)
(0.0132976 0.00694074 0)
(0.0134313 0.00667832 0)
(0.0135598 0.00641333 0)
(0.0136831 0.00614586 0)
(0.0138012 0.00587603 0)
(0.0139139 0.00560393 0)
(0.0140212 0.00532967 0)
(0.0141232 0.00505335 0)
(0.0142197 0.00477509 0)
(0.0143107 0.00449498 0)
(0.0143962 0.00421314 0)
(0.0144761 0.00392968 0)
(0.0145505 0.00364471 0)
(0.0146192 0.00335832 0)
(0.0146823 0.00307065 0)
(0.0147398 0.00278179 0)
(0.0147916 0.00249185 0)
(0.0148376 0.00220096 0)
(0.014878 0.00190922 0)
(0.0149126 0.00161674 0)
(0.0149415 0.00132364 0)
(0.0149646 0.00103002 0)
(0.0149819 0.000736016 0)
(0.0149935 0.000441723 0)
(0.0149993 0.00014726 0)
(-0.0149993 0.00014726 0)
(-0.0149935 0.000441723 0)
(-0.0149819 0.000736016 0)
(-0.0149646 0.00103002 0)
(-0.0149415 0.00132364 0)
(-0.0149126 0.00161674 0)
(-0.014878 0.00190922 0)
(-0.0148376 0.00220096 0)
(-0.0147916 0.00249185 0)
(-0.0147398 0.00278179 0)
(-0.0146823 0.00307065 0)
(-0.0146192 0.00335832 0)
(-0.0145505 0.00364471 0)
(-0.0144761 0.00392968 0)
(-0.0143962 0.00421314 0)
(-0.0143107 0.00449498 0)
(-0.0142197 0.00477509 0)
(-0.0141232 0.00505335 0)
(-0.0140212 0.00532967 0)
(-0.0139139 0.00560393 0)
(-0.0138012 0.00587603 0)
(-0.0136831 0.00614586 0)
(-0.0135598 0.00641333 0)
(-0.0134313 0.00667832 0)
(-0.0132976 0.00694074 0)
(-0.0131588 0.00720048 0)
(-0.0130149 0.00745745 0)
(-0.0128659 0.00771154 0)
(-0.012712 0.00796266 0)
(-0.0125533 0.00821071 0)
(-0.0123896 0.0084556 0)
(-0.0127004 0.00903821 0)
(-0.0229878 0.0170489 0)
(-0.0339456 0.0262243 0)
(-0.0269808 0.0217028 0)
(-0.0266024 0.0222727 0)
(-0.0350705 0.0305535 0)
(-0.0416424 0.0377425 0)
(-0.0241756 0.0227919 0)
(-0.030435 0.0298432 0)
(-0.0261179 0.0266358 0)
(-0.0220035 0.0233394 0)
(-0.0107282 0.0118367 0)
(-0.00986467 0.011323 0)
(-0.00962937 0.0115013 0)
(-0.00940161 0.011688 0)
(-0.00917032 0.0118704 0)
(-0.00893549 0.0120481 0)
(-0.00869722 0.0122212 0)
(-0.0084556 0.0123896 0)
(-0.00821071 0.0125533 0)
(-0.00796266 0.012712 0)
(-0.00771154 0.0128659 0)
(-0.00745745 0.0130149 0)
(-0.00720048 0.0131588 0)
(-0.00694074 0.0132976 0)
(-0.00667832 0.0134313 0)
(-0.00641333 0.0135598 0)
(-0.00614586 0.0136831 0)
(-0.00587603 0.0138012 0)
(-0.00560393 0.0139139 0)
(-0.00532967 0.0140212 0)
(-0.00505335 0.0141232 0)
(-0.00477509 0.0142197 0)
(-0.00449498 0.0143107 0)
(-0.00421314 0.0143962 0)
(-0.00392968 0.0144761 0)
(-0.00364471 0.0145505 0)
(-0.00335832 0.0146192 0)
(-0.00307065 0.0146823 0)
(-0.00278179 0.0147398 0)
(-0.00249185 0.0147916 0)
(-0.00220096 0.0148376 0)
(-0.00190922 0.014878 0)
(-0.00161674 0.0149126 0)
(-0.00132364 0.0149415 0)
(-0.00103002 0.0149646 0)
(-0.000736016 0.0149819 0)
(-0.000441723 0.0149935 0)
(-0.00014726 0.0149993 0)
)
;
    }
    outerWall
    {
        type            calculated;
        value           uniform (0 0 0);
    }
    frontAndBack
    {
        type            empty;
    }
}


// ************************************************************************* //
