/*--------------------------------*- C++ -*----------------------------------*\
  =========                 |
  \\      /  F ield         | OpenFOAM: The Open Source CFD Toolbox
   \\    /   O peration     | Website:  https://openfoam.org
    \\  /    A nd           | Version:  7
     \\/     M anipulation  |
\*---------------------------------------------------------------------------*/
FoamFile
{
    version     2.0;
    format      ascii;
    class       volVectorField;
    location    "35";
    object      Us;
}
// * * * * * * * * * * * * * * * * * * * * * * * * * * * * * * * * * * * * * //

dimensions      [0 1 -1 0 0 0 0];

internalField   nonuniform List<vector> 
49920
(
(-1.1684e-10 -1.32404e-10 0)
(-7.25494e-11 -5.28751e-12 0)
(-4.90773e-11 3.04492e-11 0)
(-3.32325e-11 4.28033e-11 0)
(-1.95882e-11 4.68394e-11 0)
(-1.05103e-11 4.65423e-11 0)
(-3.72957e-12 4.66668e-11 0)
(2.20654e-12 4.58583e-11 0)
(7.96999e-12 4.75254e-11 0)
(1.56437e-11 4.94213e-11 0)
(2.47539e-11 4.8367e-11 0)
(3.59701e-11 4.33694e-11 0)
(4.84052e-11 3.20496e-11 0)
(5.9401e-11 1.14089e-11 0)
(6.06317e-11 -2.65817e-11 0)
(5.54115e-11 -1.20189e-10 0)
(-3.65579e-11 -2.17139e-10 0)
(1.85741e-10 1.06974e-09 0)
(7.33215e-09 8.11924e-09 0)
(2.60632e-08 2.09084e-08 0)
(5.53194e-08 3.69148e-08 0)
(9.28327e-08 5.41512e-08 0)
(1.36564e-07 7.12324e-08 0)
(1.84826e-07 8.71549e-08 0)
(2.36235e-07 1.01219e-07 0)
(2.89679e-07 1.12986e-07 0)
(3.4429e-07 1.22226e-07 0)
(3.99413e-07 1.28875e-07 0)
(4.54575e-07 1.32981e-07 0)
(5.09454e-07 1.34673e-07 0)
(5.6385e-07 1.34128e-07 0)
(6.17662e-07 1.31557e-07 0)
(6.70874e-07 1.27183e-07 0)
(7.23539e-07 1.21239e-07 0)
(7.75771e-07 1.13953e-07 0)
(8.27737e-07 1.05549e-07 0)
(8.79658e-07 9.6242e-08 0)
(9.31798e-07 8.6234e-08 0)
(9.84469e-07 7.5715e-08 0)
(1.03802e-06 6.48604e-08 0)
(1.09285e-06 5.38305e-08 0)
(1.14937e-06 4.27701e-08 0)
(1.20803e-06 3.18085e-08 0)
(1.2693e-06 2.10599e-08 0)
(1.33363e-06 1.06239e-08 0)
(1.4015e-06 5.87042e-10 0)
(1.47332e-06 -8.97626e-09 0)
(1.54947e-06 -1.80019e-08 0)
(1.63027e-06 -2.64343e-08 0)
(1.71594e-06 -3.42252e-08 0)
(1.80659e-06 -4.13318e-08 0)
(1.90219e-06 -4.77161e-08 0)
(2.00258e-06 -5.33448e-08 0)
(2.10741e-06 -5.81893e-08 0)
(2.21616e-06 -6.22268e-08 0)
(2.32812e-06 -6.54426e-08 0)
(2.44239e-06 -6.78319e-08 0)
(2.55789e-06 -6.94022e-08 0)
(2.67339e-06 -7.01771e-08 0)
(2.7875e-06 -7.01974e-08 0)
(2.89873e-06 -6.9524e-08 0)
(3.00549e-06 -6.82384e-08 0)
(3.10617e-06 -6.64427e-08 0)
(3.19918e-06 -6.42583e-08 0)
(3.28297e-06 -6.18233e-08 0)
(3.35611e-06 -5.9289e-08 0)
(3.41732e-06 -5.68154e-08 0)
(3.46552e-06 -5.4566e-08 0)
(3.49986e-06 -5.27023e-08 0)
(3.51975e-06 -5.1379e-08 0)
(3.52487e-06 -5.07387e-08 0)
(3.51521e-06 -5.09082e-08 0)
(3.49101e-06 -5.19945e-08 0)
(3.45278e-06 -5.40828e-08 0)
(3.40129e-06 -5.72348e-08 0)
(3.3375e-06 -6.14874e-08 0)
(3.26253e-06 -6.68534e-08 0)
(3.17765e-06 -7.33213e-08 0)
(3.08419e-06 -8.08569e-08 0)
(2.98354e-06 -8.94046e-08 0)
(-7.28815e-08 2.08667e-08 0)
(-1.88218e-10 4.94592e-11 0)
(-1.15374e-10 8.42164e-11 0)
(-8.0351e-11 1.04055e-10 0)
(-5.04646e-11 1.17986e-10 0)
(-2.55992e-11 1.1917e-10 0)
(-5.36956e-12 1.1919e-10 0)
(7.91001e-12 1.14899e-10 0)
(1.81789e-11 1.2054e-10 0)
(3.83671e-11 1.3086e-10 0)
(6.42142e-11 1.26643e-10 0)
(9.14284e-11 1.1095e-10 0)
(1.1796e-10 8.04696e-11 0)
(1.40408e-10 3.22757e-11 0)
(1.59527e-10 -3.09394e-11 0)
(1.83374e-10 -1.38338e-10 0)
(1.72943e-10 -2.10676e-10 0)
(1.41655e-08 1.30103e-08 0)
(6.0235e-08 4.92327e-08 0)
(1.39238e-07 1.02173e-07 0)
(2.42487e-07 1.60684e-07 0)
(3.61311e-07 2.17169e-07 0)
(4.89342e-07 2.67638e-07 0)
(6.22262e-07 3.10287e-07 0)
(7.5722e-07 3.44531e-07 0)
(8.92388e-07 3.70462e-07 0)
(1.02664e-06 3.88537e-07 0)
(1.15933e-06 3.99392e-07 0)
(1.29016e-06 4.03741e-07 0)
(1.41905e-06 4.02311e-07 0)
(1.54613e-06 3.95815e-07 0)
(1.67159e-06 3.84934e-07 0)
(1.79576e-06 3.70309e-07 0)
(1.91904e-06 3.52544e-07 0)
(2.04186e-06 3.322e-07 0)
(2.16474e-06 3.09804e-07 0)
(2.28823e-06 2.85845e-07 0)
(2.41293e-06 2.60781e-07 0)
(2.53947e-06 2.35035e-07 0)
(2.66851e-06 2.08999e-07 0)
(2.80075e-06 1.83035e-07 0)
(2.93685e-06 1.57471e-07 0)
(3.07748e-06 1.32603e-07 0)
(3.22328e-06 1.08693e-07 0)
(3.37479e-06 8.59703e-08 0)
(3.53248e-06 6.46281e-08 0)
(3.69667e-06 4.48251e-08 0)
(3.86753e-06 2.66837e-08 0)
(4.04502e-06 1.02908e-08 0)
(4.22889e-06 -4.30304e-09 0)
(4.41864e-06 -1.70829e-08 0)
(4.61349e-06 -2.80695e-08 0)
(4.81241e-06 -3.73186e-08 0)
(5.01412e-06 -4.49203e-08 0)
(5.21708e-06 -5.09979e-08 0)
(5.41952e-06 -5.57057e-08 0)
(5.61953e-06 -5.92274e-08 0)
(5.81503e-06 -6.17719e-08 0)
(6.00386e-06 -6.35694e-08 0)
(6.18386e-06 -6.48664e-08 0)
(6.35288e-06 -6.59191e-08 0)
(6.50884e-06 -6.69873e-08 0)
(6.64982e-06 -6.83271e-08 0)
(6.77408e-06 -7.01842e-08 0)
(6.88007e-06 -7.27878e-08 0)
(6.96651e-06 -7.63448e-08 0)
(7.03239e-06 -8.10355e-08 0)
(7.07696e-06 -8.70113e-08 0)
(7.09977e-06 -9.43928e-08 0)
(7.10066e-06 -1.0327e-07 0)
(7.07973e-06 -1.13704e-07 0)
(7.03735e-06 -1.25729e-07 0)
(6.97413e-06 -1.39354e-07 0)
(6.89091e-06 -1.54568e-07 0)
(6.78872e-06 -1.71343e-07 0)
(6.66878e-06 -1.89635e-07 0)
(6.53245e-06 -2.09385e-07 0)
(6.38121e-06 -2.30526e-07 0)
(6.21663e-06 -2.52974e-07 0)
(6.04034e-06 -2.76638e-07 0)
(-3.40676e-08 8.95185e-08 0)
(2.05163e-09 6.68116e-08 0)
(-2.1446e-10 2.61514e-10 0)
(-1.24292e-10 1.74884e-10 0)
(-7.49979e-11 1.98236e-10 0)
(-3.26402e-11 1.99439e-10 0)
(3.10521e-12 2.08663e-10 0)
(1.60175e-11 1.88053e-10 0)
(1.28394e-11 1.97832e-10 0)
(4.78399e-11 1.9625e-10 0)
(9.18081e-11 1.87843e-10 0)
(1.3378e-10 1.6345e-10 0)
(1.79612e-10 1.24684e-10 0)
(2.30815e-10 5.86129e-11 0)
(2.95728e-10 -1.42808e-11 0)
(2.93117e-10 -1.27192e-10 0)
(2.38667e-08 2.37983e-08 0)
(9.57592e-08 9.28181e-08 0)
(2.20059e-07 1.9629e-07 0)
(3.8297e-07 3.09204e-07 0)
(5.68371e-07 4.13925e-07 0)
(7.64463e-07 5.02933e-07 0)
(9.63967e-07 5.74458e-07 0)
(1.16278e-06 6.2922e-07 0)
(1.35877e-06 6.68837e-07 0)
(1.55098e-06 6.95141e-07 0)
(1.73916e-06 7.09903e-07 0)
(1.92343e-06 7.14737e-07 0)
(2.10417e-06 7.11076e-07 0)
(2.28185e-06 7.00188e-07 0)
(2.45706e-06 6.83193e-07 0)
(2.63042e-06 6.61089e-07 0)
(2.80257e-06 6.34773e-07 0)
(2.97419e-06 6.05058e-07 0)
(3.14598e-06 5.72685e-07 0)
(3.31863e-06 5.38337e-07 0)
(3.49286e-06 5.02646e-07 0)
(3.66939e-06 4.66194e-07 0)
(3.84893e-06 4.29521e-07 0)
(4.03215e-06 3.93122e-07 0)
(4.21969e-06 3.57449e-07 0)
(4.41215e-06 3.22905e-07 0)
(4.60999e-06 2.89845e-07 0)
(4.81358e-06 2.58568e-07 0)
(5.02313e-06 2.29318e-07 0)
(5.23867e-06 2.02277e-07 0)
(5.46001e-06 1.77564e-07 0)
(5.68673e-06 1.55233e-07 0)
(5.91816e-06 1.35274e-07 0)
(6.15334e-06 1.17611e-07 0)
(6.39109e-06 1.02109e-07 0)
(6.62996e-06 8.85768e-08 0)
(6.86828e-06 7.67722e-08 0)
(7.1042e-06 6.64118e-08 0)
(7.33573e-06 5.71788e-08 0)
(7.56079e-06 4.87325e-08 0)
(7.77726e-06 4.07193e-08 0)
(7.98307e-06 3.27825e-08 0)
(8.17618e-06 2.45728e-08 0)
(8.35472e-06 1.5758e-08 0)
(8.51694e-06 6.03119e-09 0)
(8.66134e-06 -4.88169e-09 0)
(8.78658e-06 -1.72162e-08 0)
(8.89161e-06 -3.11656e-08 0)
(8.97556e-06 -4.68785e-08 0)
(9.03786e-06 -6.44589e-08 0)
(9.07811e-06 -8.39675e-08 0)
(9.09616e-06 -1.05425e-07 0)
(9.09205e-06 -1.28815e-07 0)
(9.06601e-06 -1.54091e-07 0)
(9.01841e-06 -1.81182e-07 0)
(8.94981e-06 -2.09995e-07 0)
(8.86088e-06 -2.40427e-07 0)
(8.75242e-06 -2.72362e-07 0)
(8.62535e-06 -3.05682e-07 0)
(8.48067e-06 -3.40268e-07 0)
(8.3195e-06 -3.76e-07 0)
(8.14303e-06 -4.12764e-07 0)
(7.95249e-06 -4.50445e-07 0)
(7.74922e-06 -4.88928e-07 0)
(1.12479e-08 2.75023e-07 0)
(1.89653e-08 1.41531e-07 0)
(3.56019e-09 2.88335e-09 0)
(-4.97311e-11 4.43293e-10 0)
(-3.12927e-10 3.50363e-09 0)
(2.45525e-09 3.25034e-08 0)
(3.54312e-09 2.66913e-08 0)
(4.89828e-09 2.92992e-08 0)
(-2.65637e-10 4.71762e-09 0)
(4.05522e-11 2.74121e-10 0)
(1.14982e-10 2.54133e-10 0)
(1.79581e-10 2.21383e-10 0)
(2.97784e-10 2.12842e-10 0)
(4.68117e-10 1.73673e-10 0)
(4.51424e-10 2.25219e-11 0)
(4.39927e-08 4.81191e-08 0)
(1.56706e-07 1.69145e-07 0)
(3.35685e-07 3.39277e-07 0)
(5.59429e-07 5.17198e-07 0)
(8.05594e-07 6.7486e-07 0)
(1.05894e-06 8.022e-07 0)
(1.31104e-06 8.99295e-07 0)
(1.55789e-06 9.69836e-07 0)
(1.79803e-06 1.01812e-06 0)
(2.03131e-06 1.04803e-06 0)
(2.25819e-06 1.0628e-06 0)
(2.47944e-06 1.06506e-06 0)
(2.69592e-06 1.05697e-06 0)
(2.90854e-06 1.04029e-06 0)
(3.11817e-06 1.01651e-06 0)
(3.32567e-06 9.86894e-07 0)
(3.53187e-06 9.52533e-07 0)
(3.73758e-06 9.14402e-07 0)
(3.94356e-06 8.73374e-07 0)
(4.15057e-06 8.30241e-07 0)
(4.35935e-06 7.8573e-07 0)
(4.57057e-06 7.4051e-07 0)
(4.78487e-06 6.95196e-07 0)
(5.00285e-06 6.5035e-07 0)
(5.22498e-06 6.0648e-07 0)
(5.45168e-06 5.64034e-07 0)
(5.68319e-06 5.234e-07 0)
(5.91962e-06 4.84896e-07 0)
(6.1609e-06 4.48765e-07 0)
(6.40674e-06 4.15173e-07 0)
(6.65662e-06 3.84203e-07 0)
(6.9098e-06 3.55855e-07 0)
(7.16528e-06 3.30045e-07 0)
(7.42184e-06 3.06609e-07 0)
(7.67805e-06 2.85312e-07 0)
(7.93229e-06 2.65853e-07 0)
(8.18277e-06 2.47878e-07 0)
(8.42764e-06 2.30994e-07 0)
(8.66496e-06 2.14783e-07 0)
(8.8928e-06 1.98812e-07 0)
(9.1093e-06 1.82655e-07 0)
(9.31268e-06 1.65899e-07 0)
(9.50129e-06 1.48161e-07 0)
(9.67367e-06 1.29094e-07 0)
(9.82853e-06 1.084e-07 0)
(9.96481e-06 8.58281e-08 0)
(1.00816e-05 6.11853e-08 0)
(1.01784e-05 3.4332e-08 0)
(1.02546e-05 5.18301e-09 0)
(1.03099e-05 -2.62953e-08 0)
(1.03444e-05 -6.00898e-08 0)
(1.03579e-05 -9.61456e-08 0)
(1.03508e-05 -1.34372e-07 0)
(1.03233e-05 -1.74651e-07 0)
(1.02757e-05 -2.16839e-07 0)
(1.02085e-05 -2.60779e-07 0)
(1.01223e-05 -3.06304e-07 0)
(1.00177e-05 -3.53242e-07 0)
(9.89529e-06 -4.0142e-07 0)
(9.75583e-06 -4.50671e-07 0)
(9.60008e-06 -5.00833e-07 0)
(9.42886e-06 -5.51755e-07 0)
(9.24306e-06 -6.03292e-07 0)
(9.04359e-06 -6.55311e-07 0)
(8.83144e-06 -7.07685e-07 0)
(9.82387e-08 6.67123e-07 0)
(9.79317e-08 4.24584e-07 0)
(5.80767e-08 1.79599e-07 0)
(1.1642e-10 1.60159e-09 0)
(-1.51178e-08 9.55297e-09 0)
(-3.80513e-09 4.61877e-08 0)
(7.56427e-09 3.50556e-08 0)
(1.79561e-08 3.54103e-08 0)
(1.45342e-08 6.80116e-09 0)
(2.04919e-09 3.60672e-09 0)
(5.92708e-10 1.11705e-09 0)
(3.93843e-10 7.45923e-10 0)
(7.65505e-10 1.40634e-09 0)
(6.66522e-10 2.70218e-10 0)
(8.86332e-08 1.06948e-07 0)
(2.62572e-07 3.13852e-07 0)
(5.06493e-07 5.6644e-07 0)
(7.9028e-07 8.10167e-07 0)
(1.08838e-06 1.01436e-06 0)
(1.38567e-06 1.17131e-06 0)
(1.67524e-06 1.28525e-06 0)
(1.95484e-06 1.36383e-06 0)
(2.22449e-06 1.41437e-06 0)
(2.48514e-06 1.44279e-06 0)
(2.73803e-06 1.45366e-06 0)
(2.98449e-06 1.45048e-06 0)
(3.22574e-06 1.43593e-06 0)
(3.46293e-06 1.41212e-06 0)
(3.69709e-06 1.38078e-06 0)
(3.92918e-06 1.3433e-06 0)
(4.16009e-06 1.3009e-06 0)
(4.39063e-06 1.25464e-06 0)
(4.62157e-06 1.20543e-06 0)
(4.85362e-06 1.15413e-06 0)
(5.08745e-06 1.1015e-06 0)
(5.32364e-06 1.04825e-06 0)
(5.56274e-06 9.95012e-07 0)
(5.80517e-06 9.42376e-07 0)
(6.05127e-06 8.90862e-07 0)
(6.30122e-06 8.40927e-07 0)
(6.5551e-06 7.92955e-07 0)
(6.81275e-06 7.47252e-07 0)
(7.07388e-06 7.04041e-07 0)
(7.33795e-06 6.63452e-07 0)
(7.60422e-06 6.25528e-07 0)
(7.87173e-06 5.90213e-07 0)
(8.1393e-06 5.57367e-07 0)
(8.40559e-06 5.26759e-07 0)
(8.66908e-06 4.98088e-07 0)
(8.92811e-06 4.70985e-07 0)
(9.18097e-06 4.45035e-07 0)
(9.4259e-06 4.19788e-07 0)
(9.66115e-06 3.94778e-07 0)
(9.88504e-06 3.6954e-07 0)
(1.0096e-05 3.43621e-07 0)
(1.02925e-05 3.16602e-07 0)
(1.04734e-05 2.88101e-07 0)
(1.06374e-05 2.57788e-07 0)
(1.07838e-05 2.25387e-07 0)
(1.09118e-05 1.90683e-07 0)
(1.10208e-05 1.53521e-07 0)
(1.11104e-05 1.13805e-07 0)
(1.11806e-05 7.1493e-08 0)
(1.12311e-05 2.65974e-08 0)
(1.12622e-05 -2.0825e-08 0)
(1.12739e-05 -7.06774e-08 0)
(1.12664e-05 -1.2283e-07 0)
(1.12401e-05 -1.77126e-07 0)
(1.11954e-05 -2.3339e-07 0)
(1.11326e-05 -2.9143e-07 0)
(1.10522e-05 -3.51048e-07 0)
(1.09547e-05 -4.12042e-07 0)
(1.08404e-05 -4.74211e-07 0)
(1.07101e-05 -5.37359e-07 0)
(1.05641e-05 -6.01297e-07 0)
(1.04031e-05 -6.65846e-07 0)
(1.02277e-05 -7.30839e-07 0)
(1.00385e-05 -7.96119e-07 0)
(9.83615e-06 -8.61542e-07 0)
(9.62147e-06 -9.26971e-07 0)
(2.1263e-07 1.32211e-06 0)
(2.30574e-07 1.04798e-06 0)
(2.0559e-07 7.62474e-07 0)
(1.33363e-07 4.97996e-07 0)
(7.44111e-08 3.82842e-07 0)
(7.18211e-08 3.27854e-07 0)
(8.43228e-08 2.72182e-07 0)
(9.13724e-08 2.15582e-07 0)
(8.1672e-08 1.44622e-07 0)
(4.32205e-08 6.74446e-08 0)
(2.63989e-09 1.09543e-09 0)
(7.26439e-10 1.27419e-09 0)
(4.85859e-08 5.36022e-08 0)
(2.09362e-07 2.7846e-07 0)
(4.55689e-07 5.99241e-07 0)
(7.59718e-07 9.2982e-07 0)
(1.08898e-06 1.2191e-06 0)
(1.42051e-06 1.44702e-06 0)
(1.74298e-06 1.61429e-06 0)
(2.05277e-06 1.73053e-06 0)
(2.35002e-06 1.8067e-06 0)
(2.63622e-06 1.85215e-06 0)
(2.91315e-06 1.874e-06 0)
(3.18253e-06 1.87748e-06 0)
(3.44588e-06 1.86649e-06 0)
(3.70451e-06 1.84391e-06 0)
(3.95955e-06 1.81198e-06 0)
(4.21202e-06 1.77248e-06 0)
(4.4628e-06 1.72685e-06 0)
(4.7127e-06 1.67633e-06 0)
(4.96245e-06 1.62196e-06 0)
(5.21273e-06 1.56471e-06 0)
(5.46415e-06 1.50541e-06 0)
(5.71726e-06 1.44483e-06 0)
(5.97251e-06 1.38368e-06 0)
(6.23031e-06 1.3226e-06 0)
(6.49094e-06 1.26217e-06 0)
(6.75457e-06 1.20291e-06 0)
(7.02123e-06 1.14526e-06 0)
(7.29078e-06 1.08958e-06 0)
(7.56295e-06 1.03617e-06 0)
(7.83722e-06 9.85212e-07 0)
(8.11293e-06 9.36809e-07 0)
(8.38919e-06 8.90967e-07 0)
(8.66494e-06 8.47595e-07 0)
(8.93893e-06 8.06511e-07 0)
(9.20979e-06 7.67448e-07 0)
(9.476e-06 7.30069e-07 0)
(9.73601e-06 6.93975e-07 0)
(9.98818e-06 6.58725e-07 0)
(1.02309e-05 6.23852e-07 0)
(1.04627e-05 5.8888e-07 0)
(1.06821e-05 5.53341e-07 0)
(1.08877e-05 5.16792e-07 0)
(1.10784e-05 4.78823e-07 0)
(1.12532e-05 4.39073e-07 0)
(1.14112e-05 3.97235e-07 0)
(1.15518e-05 3.53062e-07 0)
(1.16744e-05 3.06364e-07 0)
(1.17788e-05 2.57017e-07 0)
(1.18648e-05 2.0495e-07 0)
(1.19322e-05 1.5015e-07 0)
(1.19813e-05 9.26497e-08 0)
(1.2012e-05 3.25272e-08 0)
(1.20246e-05 -3.01038e-08 0)
(1.20194e-05 -9.5099e-08 0)
(1.19967e-05 -1.6229e-07 0)
(1.19567e-05 -2.31489e-07 0)
(1.19e-05 -3.02497e-07 0)
(1.18267e-05 -3.75106e-07 0)
(1.17374e-05 -4.49105e-07 0)
(1.16323e-05 -5.24284e-07 0)
(1.15119e-05 -6.00435e-07 0)
(1.13766e-05 -6.77357e-07 0)
(1.12269e-05 -7.54858e-07 0)
(1.1063e-05 -8.32755e-07 0)
(1.08855e-05 -9.10878e-07 0)
(1.06948e-05 -9.89065e-07 0)
(1.04915e-05 -1.06717e-06 0)
(1.02762e-05 -1.14504e-06 0)
(3.19268e-07 2.17309e-06 0)
(3.73163e-07 1.9379e-06 0)
(3.92808e-07 1.69149e-06 0)
(3.71406e-07 1.4496e-06 0)
(3.3949e-07 1.24975e-06 0)
(3.3611e-07 1.09193e-06 0)
(3.52533e-07 9.58084e-07 0)
(3.71004e-07 8.29915e-07 0)
(3.82076e-07 7.04387e-07 0)
(3.74754e-07 5.85684e-07 0)
(3.65937e-07 5.21609e-07 0)
(4.15827e-07 5.90759e-07 0)
(5.60494e-07 8.09328e-07 0)
(8.17646e-07 1.15e-06 0)
(1.13209e-06 1.48748e-06 0)
(1.46657e-06 1.76789e-06 0)
(1.79983e-06 1.98009e-06 0)
(2.12315e-06 2.13066e-06 0)
(2.43471e-06 2.2314e-06 0)
(2.7355e-06 2.29371e-06 0)
(3.02731e-06 2.32675e-06 0)
(3.31191e-06 2.33736e-06 0)
(3.59082e-06 2.3305e-06 0)
(3.86529e-06 2.30982e-06 0)
(4.13636e-06 2.27805e-06 0)
(4.40493e-06 2.2373e-06 0)
(4.67177e-06 2.18922e-06 0)
(4.93758e-06 2.13522e-06 0)
(5.20297e-06 2.07645e-06 0)
(5.46853e-06 2.01393e-06 0)
(5.73476e-06 1.94859e-06 0)
(6.00213e-06 1.88124e-06 0)
(6.27104e-06 1.81262e-06 0)
(6.54182e-06 1.74344e-06 0)
(6.81472e-06 1.67431e-06 0)
(7.08989e-06 1.60581e-06 0)
(7.36734e-06 1.53842e-06 0)
(7.64698e-06 1.47257e-06 0)
(7.92854e-06 1.40861e-06 0)
(8.2116e-06 1.34681e-06 0)
(8.49556e-06 1.28733e-06 0)
(8.77966e-06 1.23026e-06 0)
(9.06295e-06 1.17558e-06 0)
(9.34434e-06 1.12317e-06 0)
(9.62258e-06 1.07283e-06 0)
(9.89632e-06 1.02429e-06 0)
(1.01641e-05 9.77194e-07 0)
(1.04245e-05 9.31143e-07 0)
(1.06761e-05 8.85693e-07 0)
(1.09173e-05 8.40385e-07 0)
(1.11469e-05 7.94753e-07 0)
(1.13636e-05 7.48345e-07 0)
(1.15662e-05 7.00737e-07 0)
(1.17538e-05 6.51541e-07 0)
(1.19256e-05 6.0042e-07 0)
(1.20809e-05 5.4709e-07 0)
(1.22192e-05 4.91325e-07 0)
(1.23401e-05 4.3296e-07 0)
(1.24436e-05 3.71884e-07 0)
(1.25293e-05 3.08046e-07 0)
(1.25975e-05 2.4144e-07 0)
(1.26482e-05 1.7211e-07 0)
(1.26815e-05 1.00137e-07 0)
(1.26977e-05 2.56357e-08 0)
(1.2697e-05 -5.12496e-08 0)
(1.26797e-05 -1.30354e-07 0)
(1.26461e-05 -2.11496e-07 0)
(1.25966e-05 -2.9448e-07 0)
(1.25315e-05 -3.79105e-07 0)
(1.24509e-05 -4.65165e-07 0)
(1.23554e-05 -5.52453e-07 0)
(1.22452e-05 -6.40765e-07 0)
(1.21205e-05 -7.29899e-07 0)
(1.19817e-05 -8.19663e-07 0)
(1.18292e-05 -9.09868e-07 0)
(1.16632e-05 -1.00034e-06 0)
(1.14841e-05 -1.0909e-06 0)
(1.12923e-05 -1.1814e-06 0)
(1.10881e-05 -1.27169e-06 0)
(1.0872e-05 -1.36162e-06 0)
(4.0535e-07 3.08994e-06 0)
(5.0069e-07 2.90995e-06 0)
(5.74786e-07 2.72185e-06 0)
(6.26168e-07 2.52995e-06 0)
(6.6593e-07 2.33922e-06 0)
(7.11222e-07 2.16154e-06 0)
(7.67346e-07 2.00251e-06 0)
(8.30697e-07 1.86132e-06 0)
(8.97601e-07 1.74498e-06 0)
(9.65603e-07 1.67172e-06 0)
(1.04558e-06 1.67935e-06 0)
(1.17028e-06 1.7972e-06 0)
(1.36481e-06 2.00643e-06 0)
(1.62033e-06 2.24251e-06 0)
(1.90909e-06 2.44683e-06 0)
(2.20947e-06 2.60232e-06 0)
(2.51054e-06 2.71106e-06 0)
(2.80823e-06 2.78083e-06 0)
(3.10171e-06 2.8197e-06 0)
(3.39133e-06 2.8344e-06 0)
(3.67775e-06 2.83007e-06 0)
(3.9616e-06 2.81056e-06 0)
(4.24348e-06 2.77876e-06 0)
(4.52388e-06 2.73691e-06 0)
(4.80324e-06 2.68677e-06 0)
(5.08201e-06 2.62978e-06 0)
(5.36056e-06 2.56717e-06 0)
(5.63928e-06 2.49999e-06 0)
(5.91852e-06 2.42918e-06 0)
(6.19863e-06 2.35561e-06 0)
(6.47988e-06 2.28003e-06 0)
(6.76254e-06 2.20317e-06 0)
(7.04678e-06 2.12569e-06 0)
(7.33271e-06 2.04818e-06 0)
(7.62036e-06 1.9712e-06 0)
(7.90963e-06 1.89522e-06 0)
(8.20031e-06 1.82064e-06 0)
(8.49203e-06 1.74779e-06 0)
(8.7843e-06 1.67694e-06 0)
(9.07646e-06 1.60822e-06 0)
(9.36769e-06 1.54172e-06 0)
(9.65705e-06 1.4774e-06 0)
(9.94344e-06 1.41515e-06 0)
(1.02257e-05 1.35477e-06 0)
(1.05024e-05 1.29598e-06 0)
(1.07724e-05 1.23844e-06 0)
(1.10342e-05 1.18175e-06 0)
(1.12866e-05 1.12551e-06 0)
(1.15282e-05 1.06925e-06 0)
(1.17578e-05 1.01255e-06 0)
(1.19743e-05 9.54969e-07 0)
(1.21768e-05 8.96109e-07 0)
(1.23644e-05 8.35606e-07 0)
(1.25365e-05 7.73147e-07 0)
(1.26924e-05 7.08466e-07 0)
(1.28319e-05 6.41356e-07 0)
(1.29546e-05 5.71663e-07 0)
(1.30604e-05 4.99289e-07 0)
(1.31492e-05 4.24186e-07 0)
(1.32211e-05 3.46352e-07 0)
(1.32762e-05 2.65828e-07 0)
(1.33147e-05 1.82691e-07 0)
(1.33368e-05 9.70476e-08 0)
(1.33427e-05 9.03075e-09 0)
(1.33326e-05 -8.12068e-08 0)
(1.33069e-05 -1.73497e-07 0)
(1.32657e-05 -2.67659e-07 0)
(1.32095e-05 -3.63507e-07 0)
(1.31383e-05 -4.60848e-07 0)
(1.30526e-05 -5.5949e-07 0)
(1.29525e-05 -6.59237e-07 0)
(1.28383e-05 -7.59901e-07 0)
(1.27103e-05 -8.61294e-07 0)
(1.25686e-05 -9.63234e-07 0)
(1.24135e-05 -1.06555e-06 0)
(1.22454e-05 -1.16806e-06 0)
(1.20644e-05 -1.27061e-06 0)
(1.18709e-05 -1.37305e-06 0)
(1.16651e-05 -1.47522e-06 0)
(1.14474e-05 -1.57698e-06 0)
(4.77616e-07 3.98234e-06 0)
(6.12988e-07 3.8432e-06 0)
(7.37453e-07 3.69866e-06 0)
(8.51729e-07 3.54987e-06 0)
(9.59905e-07 3.39852e-06 0)
(1.0683e-06 3.25169e-06 0)
(1.18171e-06 3.11827e-06 0)
(1.30196e-06 3.00679e-06 0)
(1.42964e-06 2.92791e-06 0)
(1.56629e-06 2.89523e-06 0)
(1.71795e-06 2.91946e-06 0)
(1.89564e-06 2.99572e-06 0)
(2.10661e-06 3.10033e-06 0)
(2.34611e-06 3.2021e-06 0)
(2.60567e-06 3.28279e-06 0)
(2.87712e-06 3.33786e-06 0)
(3.15522e-06 3.36888e-06 0)
(3.43709e-06 3.37916e-06 0)
(3.72125e-06 3.37207e-06 0)
(4.00688e-06 3.3505e-06 0)
(4.29355e-06 3.31678e-06 0)
(4.58098e-06 3.27281e-06 0)
(4.86905e-06 3.22016e-06 0)
(5.15771e-06 3.16013e-06 0)
(5.44697e-06 3.09385e-06 0)
(5.73692e-06 3.02235e-06 0)
(6.02767e-06 2.94652e-06 0)
(6.31935e-06 2.86719e-06 0)
(6.61209e-06 2.78514e-06 0)
(6.90601e-06 2.70109e-06 0)
(7.20122e-06 2.61569e-06 0)
(7.49776e-06 2.52958e-06 0)
(7.79562e-06 2.44333e-06 0)
(8.09471e-06 2.35745e-06 0)
(8.39482e-06 2.2724e-06 0)
(8.69568e-06 2.18857e-06 0)
(8.99685e-06 2.10629e-06 0)
(9.29778e-06 2.02578e-06 0)
(9.59778e-06 1.94722e-06 0)
(9.89604e-06 1.87065e-06 0)
(1.01916e-05 1.79606e-06 0)
(1.04834e-05 1.72334e-06 0)
(1.07704e-05 1.65231e-06 0)
(1.10512e-05 1.58269e-06 0)
(1.13247e-05 1.51418e-06 0)
(1.15896e-05 1.4464e-06 0)
(1.18447e-05 1.37895e-06 0)
(1.20889e-05 1.31142e-06 0)
(1.2321e-05 1.2434e-06 0)
(1.25401e-05 1.17448e-06 0)
(1.27453e-05 1.10428e-06 0)
(1.29359e-05 1.03247e-06 0)
(1.31113e-05 9.58756e-07 0)
(1.32709e-05 8.82882e-07 0)
(1.34146e-05 8.04653e-07 0)
(1.35421e-05 7.23925e-07 0)
(1.36531e-05 6.40604e-07 0)
(1.37478e-05 5.5464e-07 0)
(1.38261e-05 4.66028e-07 0)
(1.38881e-05 3.74801e-07 0)
(1.3934e-05 2.81024e-07 0)
(1.3964e-05 1.8479e-07 0)
(1.39783e-05 8.62176e-08 0)
(1.3977e-05 -1.45597e-08 0)
(1.39604e-05 -1.17392e-07 0)
(1.39287e-05 -2.22119e-07 0)
(1.38822e-05 -3.28573e-07 0)
(1.38211e-05 -4.36582e-07 0)
(1.37456e-05 -5.45971e-07 0)
(1.36559e-05 -6.56564e-07 0)
(1.35521e-05 -7.68185e-07 0)
(1.34346e-05 -8.80663e-07 0)
(1.33034e-05 -9.93826e-07 0)
(1.31589e-05 -1.10751e-06 0)
(1.30011e-05 -1.22154e-06 0)
(1.28304e-05 -1.33577e-06 0)
(1.26468e-05 -1.45004e-06 0)
(1.24508e-05 -1.5642e-06 0)
(1.22425e-05 -1.67811e-06 0)
(1.20221e-05 -1.79161e-06 0)
(5.4421e-07 4.82231e-06 0)
(7.15377e-07 4.70659e-06 0)
(8.81604e-07 4.58761e-06 0)
(1.04384e-06 4.46669e-06 0)
(1.20402e-06 4.34606e-06 0)
(1.3648e-06 4.23008e-06 0)
(1.52887e-06 4.12505e-06 0)
(1.6983e-06 4.03809e-06 0)
(1.8747e-06 3.97591e-06 0)
(2.05986e-06 3.94297e-06 0)
(2.25634e-06 3.93793e-06 0)
(2.46698e-06 3.95191e-06 0)
(2.69335e-06 3.97211e-06 0)
(2.93476e-06 3.98754e-06 0)
(3.18947e-06 3.99267e-06 0)
(3.45499e-06 3.98587e-06 0)
(3.729e-06 3.96725e-06 0)
(4.00961e-06 3.9376e-06 0)
(4.29533e-06 3.89791e-06 0)
(4.58504e-06 3.84917e-06 0)
(4.8779e-06 3.79231e-06 0)
(5.17327e-06 3.72825e-06 0)
(5.4707e-06 3.65782e-06 0)
(5.76988e-06 3.58183e-06 0)
(6.07059e-06 3.50105e-06 0)
(6.3727e-06 3.41623e-06 0)
(6.67614e-06 3.32806e-06 0)
(6.98086e-06 3.23721e-06 0)
(7.28682e-06 3.14435e-06 0)
(7.59398e-06 3.05008e-06 0)
(7.90227e-06 2.95497e-06 0)
(8.21156e-06 2.85958e-06 0)
(8.52167e-06 2.76438e-06 0)
(8.83234e-06 2.66982e-06 0)
(9.14319e-06 2.57628e-06 0)
(9.45376e-06 2.48407e-06 0)
(9.76347e-06 2.39342e-06 0)
(1.00716e-05 2.30448e-06 0)
(1.03774e-05 2.21734e-06 0)
(1.06799e-05 2.13197e-06 0)
(1.09781e-05 2.0483e-06 0)
(1.1271e-05 1.96614e-06 0)
(1.15573e-05 1.88527e-06 0)
(1.1836e-05 1.8054e-06 0)
(1.21059e-05 1.72618e-06 0)
(1.23658e-05 1.64725e-06 0)
(1.26148e-05 1.56822e-06 0)
(1.28518e-05 1.48871e-06 0)
(1.3076e-05 1.40835e-06 0)
(1.32865e-05 1.32678e-06 0)
(1.34827e-05 1.24369e-06 0)
(1.36641e-05 1.15879e-06 0)
(1.38302e-05 1.07185e-06 0)
(1.39807e-05 9.82679e-07 0)
(1.41155e-05 8.91139e-07 0)
(1.42343e-05 7.97134e-07 0)
(1.43372e-05 7.00608e-07 0)
(1.44241e-05 6.0155e-07 0)
(1.44951e-05 4.99978e-07 0)
(1.45504e-05 3.95944e-07 0)
(1.45901e-05 2.89526e-07 0)
(1.46143e-05 1.80819e-07 0)
(1.46232e-05 6.99391e-08 0)
(1.4617e-05 -4.29859e-08 0)
(1.45959e-05 -1.57818e-07 0)
(1.45601e-05 -2.74413e-07 0)
(1.45097e-05 -3.9262e-07 0)
(1.44449e-05 -5.12285e-07 0)
(1.43659e-05 -6.33254e-07 0)
(1.42728e-05 -7.55371e-07 0)
(1.41659e-05 -8.78479e-07 0)
(1.40452e-05 -1.00243e-06 0)
(1.39109e-05 -1.12705e-06 0)
(1.37632e-05 -1.25221e-06 0)
(1.36023e-05 -1.37775e-06 0)
(1.34284e-05 -1.50353e-06 0)
(1.32416e-05 -1.62938e-06 0)
(1.30421e-05 -1.75518e-06 0)
(1.28302e-05 -1.88077e-06 0)
(1.26062e-05 -2.00601e-06 0)
(6.09362e-07 5.61534e-06 0)
(8.12098e-07 5.51088e-06 0)
(1.01292e-06 5.40444e-06 0)
(1.21258e-06 5.29755e-06 0)
(1.41221e-06 5.19233e-06 0)
(1.61322e-06 5.09163e-06 0)
(1.81712e-06 4.99906e-06 0)
(2.0253e-06 4.9183e-06 0)
(2.23905e-06 4.85203e-06 0)
(2.4595e-06 4.80065e-06 0)
(2.68773e-06 4.76138e-06 0)
(2.92467e-06 4.729e-06 0)
(3.17103e-06 4.69795e-06 0)
(3.42715e-06 4.6642e-06 0)
(3.69291e-06 4.62554e-06 0)
(3.9676e-06 4.5809e-06 0)
(4.25016e-06 4.52985e-06 0)
(4.53944e-06 4.47225e-06 0)
(4.83434e-06 4.40823e-06 0)
(5.13388e-06 4.33804e-06 0)
(5.43726e-06 4.26204e-06 0)
(5.74379e-06 4.18069e-06 0)
(6.05296e-06 4.09448e-06 0)
(6.36436e-06 4.00397e-06 0)
(6.67768e-06 3.90971e-06 0)
(6.99268e-06 3.81228e-06 0)
(7.30915e-06 3.71225e-06 0)
(7.62694e-06 3.61019e-06 0)
(7.94587e-06 3.50666e-06 0)
(8.26578e-06 3.40217e-06 0)
(8.58644e-06 3.29724e-06 0)
(8.9076e-06 3.19232e-06 0)
(9.22893e-06 3.08784e-06 0)
(9.55001e-06 2.98417e-06 0)
(9.87035e-06 2.88159e-06 0)
(1.01894e-05 2.78036e-06 0)
(1.05063e-05 2.68063e-06 0)
(1.08205e-05 2.58248e-06 0)
(1.11309e-05 2.48593e-06 0)
(1.14367e-05 2.39091e-06 0)
(1.17368e-05 2.29727e-06 0)
(1.20302e-05 2.20482e-06 0)
(1.23158e-05 2.11329e-06 0)
(1.25925e-05 2.02237e-06 0)
(1.28593e-05 1.93174e-06 0)
(1.31152e-05 1.84104e-06 0)
(1.33594e-05 1.74993e-06 0)
(1.35908e-05 1.65804e-06 0)
(1.3809e-05 1.56506e-06 0)
(1.40132e-05 1.47068e-06 0)
(1.42029e-05 1.37464e-06 0)
(1.43777e-05 1.27672e-06 0)
(1.45373e-05 1.17673e-06 0)
(1.46815e-05 1.07453e-06 0)
(1.48102e-05 9.70016e-07 0)
(1.49233e-05 8.63134e-07 0)
(1.50207e-05 7.53856e-07 0)
(1.51026e-05 6.42189e-07 0)
(1.51689e-05 5.28166e-07 0)
(1.52198e-05 4.11846e-07 0)
(1.52555e-05 2.93306e-07 0)
(1.52759e-05 1.72637e-07 0)
(1.52813e-05 4.99448e-08 0)
(1.52718e-05 -7.46559e-08 0)
(1.52475e-05 -2.01044e-07 0)
(1.52086e-05 -3.29092e-07 0)
(1.51553e-05 -4.58671e-07 0)
(1.50875e-05 -5.89646e-07 0)
(1.50056e-05 -7.21885e-07 0)
(1.49095e-05 -8.5525e-07 0)
(1.47994e-05 -9.89605e-07 0)
(1.46756e-05 -1.12481e-06 0)
(1.4538e-05 -1.26074e-06 0)
(1.43868e-05 -1.39724e-06 0)
(1.42223e-05 -1.53418e-06 0)
(1.40445e-05 -1.67142e-06 0)
(1.38537e-05 -1.80882e-06 0)
(1.365e-05 -1.94624e-06 0)
(1.34336e-05 -2.08354e-06 0)
(1.32049e-05 -2.22058e-06 0)
(6.74716e-07 6.3753e-06 0)
(9.05914e-07 6.27466e-06 0)
(1.13675e-06 6.17244e-06 0)
(1.36777e-06 6.07e-06 0)
(1.5997e-06 5.96896e-06 0)
(1.83342e-06 5.87114e-06 0)
(2.06985e-06 5.77843e-06 0)
(2.30987e-06 5.69244e-06 0)
(2.55433e-06 5.61398e-06 0)
(2.80393e-06 5.5426e-06 0)
(3.05931e-06 5.47654e-06 0)
(3.32106e-06 5.41331e-06 0)
(3.58973e-06 5.35049e-06 0)
(3.86571e-06 5.28621e-06 0)
(4.14912e-06 5.2192e-06 0)
(4.4397e-06 5.14861e-06 0)
(4.73692e-06 5.07389e-06 0)
(5.04009e-06 4.9947e-06 0)
(5.34844e-06 4.91091e-06 0)
(5.66124e-06 4.82254e-06 0)
(5.97782e-06 4.72975e-06 0)
(6.2976e-06 4.63279e-06 0)
(6.62009e-06 4.53201e-06 0)
(6.94487e-06 4.42782e-06 0)
(7.27159e-06 4.32065e-06 0)
(7.59996e-06 4.21098e-06 0)
(7.92969e-06 4.0993e-06 0)
(8.26054e-06 3.98607e-06 0)
(8.59224e-06 3.8718e-06 0)
(8.92451e-06 3.75693e-06 0)
(9.25703e-06 3.6419e-06 0)
(9.58942e-06 3.5271e-06 0)
(9.92124e-06 3.4129e-06 0)
(1.0252e-05 3.29959e-06 0)
(1.0581e-05 3.18739e-06 0)
(1.09077e-05 3.0765e-06 0)
(1.12312e-05 2.967e-06 0)
(1.15507e-05 2.85892e-06 0)
(1.18654e-05 2.75223e-06 0)
(1.21742e-05 2.64682e-06 0)
(1.24762e-05 2.5425e-06 0)
(1.27703e-05 2.43906e-06 0)
(1.30556e-05 2.33623e-06 0)
(1.33311e-05 2.23372e-06 0)
(1.35958e-05 2.1312e-06 0)
(1.3849e-05 2.02835e-06 0)
(1.40898e-05 1.92485e-06 0)
(1.43176e-05 1.8204e-06 0)
(1.45318e-05 1.71472e-06 0)
(1.47318e-05 1.60755e-06 0)
(1.49173e-05 1.49867e-06 0)
(1.5088e-05 1.38791e-06 0)
(1.52435e-05 1.27513e-06 0)
(1.53839e-05 1.16021e-06 0)
(1.55089e-05 1.04309e-06 0)
(1.56185e-05 9.23735e-07 0)
(1.57127e-05 8.0213e-07 0)
(1.57916e-05 6.78291e-07 0)
(1.58551e-05 5.52259e-07 0)
(1.59035e-05 4.24088e-07 0)
(1.59366e-05 2.93847e-07 0)
(1.59547e-05 1.6162e-07 0)
(1.59579e-05 2.74959e-08 0)
(1.59461e-05 -1.08427e-07 0)
(1.59196e-05 -2.46047e-07 0)
(1.58784e-05 -3.85256e-07 0)
(1.58226e-05 -5.25945e-07 0)
(1.57523e-05 -6.68001e-07 0)
(1.56676e-05 -8.1131e-07 0)
(1.55687e-05 -9.55756e-07 0)
(1.54555e-05 -1.10122e-06 0)
(1.53284e-05 -1.24758e-06 0)
(1.51872e-05 -1.39471e-06 0)
(1.50323e-05 -1.5425e-06 0)
(1.48636e-05 -1.69081e-06 0)
(1.46815e-05 -1.83951e-06 0)
(1.4486e-05 -1.98847e-06 0)
(1.42774e-05 -2.13757e-06 0)
(1.40557e-05 -2.28665e-06 0)
(1.38214e-05 -2.43558e-06 0)
(7.40739e-07 7.11445e-06 0)
(9.98389e-07 7.01311e-06 0)
(1.25656e-06 6.91003e-06 0)
(1.51562e-06 6.80629e-06 0)
(1.77607e-06 6.70301e-06 0)
(2.03848e-06 6.60136e-06 0)
(2.30345e-06 6.50235e-06 0)
(2.57159e-06 6.40672e-06 0)
(2.84344e-06 6.31471e-06 0)
(3.11952e-06 6.22595e-06 0)
(3.40028e-06 6.13954e-06 0)
(3.6862e-06 6.0543e-06 0)
(3.97766e-06 5.96901e-06 0)
(4.27495e-06 5.88262e-06 0)
(4.57817e-06 5.79428e-06 0)
(4.88718e-06 5.70331e-06 0)
(5.20167e-06 5.60924e-06 0)
(5.52118e-06 5.51175e-06 0)
(5.84519e-06 5.41067e-06 0)
(6.17315e-06 5.30597e-06 0)
(6.50454e-06 5.19774e-06 0)
(6.83886e-06 5.08616e-06 0)
(7.17569e-06 4.9715e-06 0)
(7.51461e-06 4.85409e-06 0)
(7.85528e-06 4.73429e-06 0)
(8.19735e-06 4.61251e-06 0)
(8.5405e-06 4.48916e-06 0)
(8.88441e-06 4.36467e-06 0)
(9.22875e-06 4.23946e-06 0)
(9.57314e-06 4.11392e-06 0)
(9.91718e-06 3.98844e-06 0)
(1.02604e-05 3.86335e-06 0)
(1.06023e-05 3.73894e-06 0)
(1.09422e-05 3.61544e-06 0)
(1.12795e-05 3.49306e-06 0)
(1.16135e-05 3.37189e-06 0)
(1.19433e-05 3.25199e-06 0)
(1.22681e-05 3.13335e-06 0)
(1.2587e-05 3.01588e-06 0)
(1.2899e-05 2.89946e-06 0)
(1.32033e-05 2.7839e-06 0)
(1.34988e-05 2.66896e-06 0)
(1.37846e-05 2.55438e-06 0)
(1.40599e-05 2.43988e-06 0)
(1.43239e-05 2.32517e-06 0)
(1.45759e-05 2.20995e-06 0)
(1.48151e-05 2.09395e-06 0)
(1.5041e-05 1.97689e-06 0)
(1.52531e-05 1.85854e-06 0)
(1.54509e-05 1.73869e-06 0)
(1.56343e-05 1.61716e-06 0)
(1.58028e-05 1.49381e-06 0)
(1.59564e-05 1.36852e-06 0)
(1.60949e-05 1.24122e-06 0)
(1.62181e-05 1.11184e-06 0)
(1.63261e-05 9.8038e-07 0)
(1.64189e-05 8.46823e-07 0)
(1.64963e-05 7.11191e-07 0)
(1.65586e-05 5.73516e-07 0)
(1.66056e-05 4.33848e-07 0)
(1.66375e-05 2.92244e-07 0)
(1.66543e-05 1.48772e-07 0)
(1.6656e-05 3.50426e-09 0)
(1.66428e-05 -1.4348e-07 0)
(1.66146e-05 -2.92097e-07 0)
(1.65715e-05 -4.4226e-07 0)
(1.65137e-05 -5.93881e-07 0)
(1.64411e-05 -7.46866e-07 0)
(1.63539e-05 -9.0112e-07 0)
(1.62521e-05 -1.05655e-06 0)
(1.61358e-05 -1.21304e-06 0)
(1.60052e-05 -1.3705e-06 0)
(1.58602e-05 -1.52882e-06 0)
(1.57012e-05 -1.68788e-06 0)
(1.5528e-05 -1.84757e-06 0)
(1.53411e-05 -2.00777e-06 0)
(1.51404e-05 -2.16835e-06 0)
(1.49261e-05 -2.32919e-06 0)
(1.46986e-05 -2.49015e-06 0)
(1.44579e-05 -2.65109e-06 0)
(8.07344e-07 7.84164e-06 0)
(1.09019e-06 7.73682e-06 0)
(1.37412e-06 7.62986e-06 0)
(1.65937e-06 7.52156e-06 0)