/*--------------------------------*- C++ -*----------------------------------*\
  =========                 |
  \\      /  F ield         | OpenFOAM: The Open Source CFD Toolbox
   \\    /   O peration     | Website:  https://openfoam.org
    \\  /    A nd           | Version:  7
     \\/     M anipulation  |
\*---------------------------------------------------------------------------*/
FoamFile
{
    version     2.0;
    format      ascii;
    class       surfaceScalarField;
    location    "40";
    object      alphaPhi;
}
// * * * * * * * * * * * * * * * * * * * * * * * * * * * * * * * * * * * * * //

dimensions      [0 3 -1 0 0 0 0];

internalField   nonuniform List<scalar> 
99520
(
0
0
0
0
0
0
0
0
0
0
0
0
0
0
0
0
0
0
0
0
0
0
0
0
0
0
0
0
0
0
0
0
0
0
0
0
0
0
0
0
0
0
0
0
0
0
0
0
0
0
0
0
0
0
0
0
0
0
0
0
0
0
0
0
0
0
0
0
0
0
0
0
0
0
0
0
0
0
0
0
0
0
0
0
0
0
0
0
0
0
0
0
0
0
0
0
0
0
0
0
0
0
0
0
0
0
0
0
0
0
0
0
0
0
0
0
0
0
0
0
0
0
0
0
0
0
0
0
0
0
0
0
0
0
0
0
0
0
0
0
0
0
0
0
0
0
0
0
0
0
0
0
0
0
0
0
0
0
0
0
0
0
0
0
0
0
0
0
0
0
0
0
0
0
0
0
0
0
0
0
0
0
0
0
0
0
0
0
0
0
0
0
0
0
0
0
0
0
0
0
0
0
0
0
0
0
0
0
0
0
0
0
0
0
0
0
0
0
0
0
0
0
0
0
0
0
0
0
0
0
0
0
0
0
0
0
0
0
0
0
0
0
0
0
0
0
0
0
0
0
0
0
0
0
0
0
0
0
0
0
0
0
0
0
0
0
0
0
0
0
0
0
0
0
0
0
0
0
0
0
0
0
0
0
0
0
0
0
0
0
0
0
0
0
0
0
0
0
0
0
0
0
0
0
0
0
0
0
0
0
0
0
0
0
0
0
0
0
0
0
0
0
0
0
0
0
0
0
0
0
0
0
0
0
0
0
0
0
0
0
0
0
0
0
0
0
0
0
0
0
0
0
0
0
0
0
0
0
0
0
0
0
0
0
0
0
0
0
0
0
0
0
0
0
0
0
0
0
0
0
0
0
0
0
0
0
0
0
0
0
0
0
0
0
0
0
0
0
0
0
0
0
0
0
0
0
0
0
0
0
0
0
0
0
0
0
0
0
0
0
0
0
0
0
0
0
0
0
0
0
0
0
0
0
0
0
0
0
0
0
0
0
0
0
0
0
0
0
0
0
0
0
0
0
0
0
0
0
0
0
0
0
0
0
0
0
0
0
0
0
0
0
0
0
0
0
0
0
0
0
0
0
0
0
0
0
0
0
0
0
0
0
0
0
0
0
0
0
0
0
0
0
0
0
0
0
0
0
0
0
0
0
0
0
0
0
0
0
0
0
0
0
0
0
0
0
0
0
0
0
0
0
0
0
0
0
0
0
0
0
0
0
0
0
0
0
0
0
0
0
0
0
0
0
0
0
0
0
0
0
0
0
0
0
0
0
0
0
0
0
0
0
0
0
0
0
0
0
0
0
0
0
0
0
0
0
0
0
0
0
0
0
0
0
0
0
0
0
0
0
0
0
0
0
0
0
0
0
0
0
0
0
0
0
0
0
0
0
0
0
0
0
0
0
0
0
0
0
0
0
0
0
0
0
0
0
0
0
0
0
0
0
0
0
0
0
0
0
0
0
0
0
0
0
0
0
0
0
0
0
0
0
0
0
0
0
0
0
0
0
0
0
0
0
0
0
0
0
0
0
0
0
0
0
0
0
0
0
0
0
0
0
0
0
0
0
0
0
0
0
0
0
0
0
0
0
0
0
0
0
0
0
0
0
0
0
0
0
0
0
0
0
0
0
0
0
0
0
0
0
0
0
0
0
0
0
0
0
0
0
0
0
0
0
0
0
0
0
0
0
0
0
0
0
0
0
0
0
0
0
0
0
0
0
0
0
0
0
0
0
0
0
0
0
0
0
0
0
0
0
0
0
0
0
0
0
0
0
0
0
0
0
0
0
0
0
0
0
0
0
0
0
0
0
0
0
0
0
0
0
0
0
0
0
0
0
0
0
0
0
0
0
0
0
0
0
0
0
0
0
0
0
0
0
0
0
0
0
0
0
0
0
0
0
0
0
0
0
0
0
0
0
0
0
0
0
0
0
0
0
0
0
0
0
0
0
0
0
0
0
0
0
0
0
0
0
0
0
0
0
0
0
0
0
0
0
0
0
0
0
0
0
0
0
0
0
0
0
0
0
0
0
0
0
0
0
0
0
0
0
0
0
0
0
0
0
0
0
0
0
0
0
0
0
0
0
0
0
0
0
0
0
0
0
0
0
0
0
0
0
0
0
0
0
0
0
0
0
0
0
0
0
0
0
0
0
0
0
0
0
0
0
0
0
0
0
0
0
0
0
0
0
0
0
0
0
0
0
0
0
0
0
0
0
0
0
0
0
0
0
0
0
0
0
0
0
0
0
0
0
0
0
0
0
0
0
0
0
0
0
0
0
0
0
0
0
0
0
0
0
0
0
0
0
0
0
0
0
0
0
0
0
0
0
0
0
0
0
0
0
0
0
0
0
0
0
0
0
0
0
0
0
0
0
0
0
0
0
0
0
0
0
0
0
0
0
0
0
0
0
0
0
0
0
0
0
0
0
0
0
0
0
0
0
0
0
0
0
0
0
0
0
0
0
0
0
0
0
0
0
0
0
0
0
0
0
0
0
0
0
0
0
0
0
0
0
0
0
0
0
0
0
0
0
0
0
0
0
0
0
0
0
0
0
0
0
0
0
0
0
0
0
0
0
0
0
0
0
0
0
0
0
0
0
0
0
0
0
0
0
0
0
0
0
0
0
0
0
0
0
0
0
0
0
0
0
0
0
0
0
0
0
0
0
0
0
0
0
0
0
0
0
0
0
0
0
0
0
0
0
0
0
0
0
0
0
0
0
0
0
0
0
0
0
0
0
0
0
0
0
0
0
0
0
0
0
0
0
0
0
0
0
0
0
0
0
0
0
0
0
0
0
0
0
0
0
0
0
0
0
0
0
0
0
0
0
0
0
0
0
0
0
0
0
0
0
0
0
0
0
0
0
0
0
0
0
0
0
0
0
0
0
0
0
0
0
0
0
0
0
0
0
0
0
0
0
0
0
0
0
0
0
0
0
0
0
0
0
0
0
0
0
0
0
0
0
0
0
0
0
0
0
0
0
0
0
0
0
0
0
0
0
0
0
0
0
0
0
0
0
0
0
0
0
0
0
0
0
0
0
0
0
0
0
0
0
0
0
0
0
0
0
0
0
0
0
0
0
0
0
0
0
0
0
0
0
0
0
0
0
0
0
0
0
0
0
0
0
0
0
0
0
0
0
0
0
0
0
0
0
0
0
0
0
0
0
0
0
0
0
0
0
0
0
0
0
0
0
0
0
0
0
0
0
0
0
0
0
0
0
0
0
0
0
0
0
0
0
0
0
0
0
0
0
0
0
0
0
0
0
0
0
0
0
0
0
0
0
0
0
0
0
0
0
0
0
0
0
0
0
0
0
0
0
0
0
0
0
0
0
0
0
0
0
0
0
0
0
0
0
0
0
0
0
0
0
0
0
0
0
0
0
0
0
0
0
0
0
0
0
0
0
0
0
0
0
0
0
0
0
0
0
0
0
0
0
0
0
0
0
0
0
0
0
0
0
0
0
0
0
0
0
0
0
0
0
0
0
0
0
0
0
0
0
0
0
0
0
0
0
0
0
0
0
0
0
0
0
0
0
0
0
0
0
0
0
0
0
0
0
0
0
0
0
0
0
0
0
0
0
0
0
0
0
0
0
0
0
0
0
0
0
0
0
0
0
0
0
0
0
0
0
0
0
0
0
0
0
0
0
0
0
0
0
0
0
0
0
0
0
0
0
0
0
0
0
0
0
0
0
0
0
0
0
0
0
0
0
0
0
0
0
0
0
0
0
0
0
0
0
0
0
0
0
0
0
0
0
0
0
0
0
0
0
0
0
0
0
0
0
0
0
0
0
0
0
0
0
0
0
0
0
0
0
0
0
0
0
0
0
0
0
0
0
0
0
0
0
0
0
0
0
0
0
0
0
0
0
0
0
0
0
0
0
0
0
0
0
0
0
0
0
0
0
0
0
0
0
0
0
0
0
0
0
0
0
0
0
0
0
0
0
0
0
0
0
0
0
0
0
0
0
0
0
0
0
0
0
0
0
0
0
0
0
0
0
0
0
0
0
0
0
0
0
0
0
0
0
0
0
0
0
0
0
0
0
0
0
0
0
0
0
0
0
0
0
0
0
0
0
0
0
0
0
0
0
0
0
0
0
0
0
0
0
0
0
0
0
0
0
0
0
0
0
0
0
0
0
0
0
0
0
0
0
0
0
0
0
0
0
0
0
0
0
0
0
0
0
0
0
0
0
0
0
0
0
0
0
0
0
0
0
0
0
0
0
0
0
0
0
0
0
0
0
0
0
0
0
0
0
0
0
0
0
0
0
0
0
0
0
0
0
0
0
0
0
0
0
0
0
0
0
0
0
0
0
0
0
0
0
0
0
0
0
0
0
0
0
0
0
0
0
0
0
0
0
0
0
0
0
0
0
0
0
0
0
0
0
0
0
0
0
0
0
0
0
0
0
0
0
0
0
0
0
0
0
0
0
0
0
0
0
0
0
0
0
0
0
0
0
0
0
0
0
0
0
0
0
0
0
0
0
0
0
0
0
0
0
0
0
0
0
0
0
0
0
0
0
0
0
0
0
0
0
0
0
0
0
0
0
0
0
0
0
0
0
0
0
0
0
0
0
0
0
0
0
0
0
0
0
0
0
0
0
0
0
0
0
0
0
0
0
0
0
0
0
0
0
0
0
0
0
0
0
0
0
0
0
0
0
0
0
0
0
0
0
0
0
0
0
0
0
0
0
0
0
0
0
0
0
0
0
0
0
0
0
0
0
0
0
0
0
0
0
0
0
0
0
0
0
0
0
0
0
0
0
0
0
0
0
0
0
0
0
0
0
0
0
0
0
0
0
0
0
0
0
0
0
0
0
0
0
0
0
0
0
0
0
0
0
0
0
0
0
0
0
0
0
0
0
0
0
0
0
0
0
0
0
0
0
0
0
0
0
0
0
0
0
0
0
0
0
0
0
0
0
0
0
0
0
0
0
0
0
0
0
0
0
0
0
0
0
0
0
0
0
0
0
0
0
0
0
0
0
0
0
0
0
0
0
0
0
0
0
0
0
0
0
0
0
0
0
0
0
0
0
0
0
0
0
0
0
0
0
0
0
0
0
0
0
0
0
0
0
0
0
0
0
0
0
0
0
0
0
0
0
0
0
0
0
0
0
0
0
0
0
0
0
0
0
0
0
0
0
0
0
0
0
0
0
0
0
0
0
0
0
0
0
0
0
0
0
0
0
0
0
0
0
0
0
0
0
0
0
0
0
0
0
0
0
0
0
0
0
0
0
0
0
0
0
0
0
0
0
0
0
0
0
0
0
0
0
0
0
0
0
0
0
0
0
0
0
0
0
0
0
0
0
0
0
0
0
0
0
0
0
0
0
0
0
0
0
0
0
0
0
0
0
0
0
0
0
0
0
0
0
0
0
0
0
0
0
0
0
0
0
0
0
0
0
0
0
0
0
0
0
0
0
0
0
0
0
0
0
0
0
0
0
0
0
0
0
0
0
0
0
0
0
0
0
0
0
0
0
0
0
0
0
0
0
0
0
0
0
0
0
0
0
0
0
0
0
0
0
0
0
0
0
0
0
0
0
0
0
0
0
0
0
0
0
0
0
0
0
0
0
0
0
0
0
0
0
0
0
0
0
0
0
0
0
0
0
0
0
0
0
0
0
0
0
0
0
0
0
0
0
0
0
0
0
0
0
0
0
0
0
0
0
0
0
0
0
0
0
0
0
0
0
0
0
0
0
0
0
0
0
0
0
0
0
0
0
0
0
0
0
0
0
0
0
0
0
0
0
0
0
0
0
0
0
0
0
-4.94066e-324
4.94066e-324
-6.42285e-323
7.90505e-323
-8.10268e-322
9.68369e-322
-1.10918e-320
1.31076e-320
-1.64642e-319
1.91268e-319
-2.66122e-318
3.03085e-318
5.25225e-317
-4.70812e-317
0
-2.24539e-315
-2.26241e-316
0
0
0
0
0
0
0
0
0
0
0
0
0
0
0
0
0
0
0
0
0
0
0
0
0
0
0
0
0
0
0
0
0
0
0
0
0
0
0
0
0
0
0
0
0
0
0
0
0
0
0
0
0
0
0
0
0
0
0
0
0
0
0
0
0
0
0
0
0
0
0
0
0
0
0
0
0
0
0
0
0
0
0
0
0
0
0
0
4.94066e-324
-4.94066e-324
1.4822e-323
-1.97626e-323
1.03754e-322
-1.33398e-322
6.27463e-322
-8.15208e-322
3.80925e-321
-4.96042e-321
2.2979e-320
-2.99354e-320
1.37825e-319
-1.7938e-319
8.24457e-319
-1.0714e-318
4.94285e-318
-6.40121e-318
2.98083e-317
-3.84141e-317
1.81848e-316
-2.32556e-316
1.12694e-315
-1.42717e-315
7.13663e-315
-8.92261e-315
4.63539e-314
-5.71184e-314
3.10252e-313
-3.76102e-313
2.14347e-312
-2.557e-312
1.53177e-311
-1.79951e-311
1.13148e-310
-1.31257e-310
8.63799e-310
-9.92311e-310
6.80391e-309
-7.7693e-309
5.52554e-308
-6.29237e-308
4.62201e-307
-5.26581e-307
3.98223e-306
-4.55005e-306
3.53559e-305
-4.05903e-305
3.23895e-304
-3.74042e-304
3.06793e-303
-3.56558e-303
3.01414e-302
-3.52358e-302
3.08335e-301
-3.62163e-301
3.30349e-300
-3.8878e-300
3.72946e-299
-4.38391e-299
4.4774e-298
-5.22817e-298
5.755e-297
-6.65062e-297
8.01224e-296
-9.10736e-296
1.21613e-294
-1.35587e-294
-2.21276e-293
2.0249e-293
0
-2.02731e-261
-1.68858e-262
0
0
0
0
0
0
0
0
0
0
0
0
0
0
0
0
0
0
0
0
0
0
0
0
0
0
0
0
0
0
0
0
0
0
0
0
0
0
0
0
0
0
0
0
0
0
0
0
0
0
0
0
0
0
0
0
0
0
0
0
-2.47033e-323
3.45846e-323
-4.84184e-322
6.12641e-322
-6.81811e-321
8.6165e-321
-8.08143e-320
1.02395e-319
-8.49279e-319
1.06493e-318
-8.07768e-318
1.00981e-317
-7.07205e-317
8.82476e-317
-5.77945e-316
7.20033e-316
-4.4491e-315
5.5399e-315
-3.2542e-314
4.05066e-314
-2.27449e-313
2.8328e-313
-1.52836e-312
1.90493e-312
-9.91308e-312
1.23748e-311
-6.23577e-311
7.79704e-311
-3.8158e-310
4.78247e-310
-2.28061e-309
2.86499e-309
-1.33453e-308
1.6815e-308
-7.67461e-308
9.69646e-308
-4.34618e-307
5.50941e-307
-2.43306e-306
3.09272e-306
-1.34898e-305
1.72004e-305
-7.43919e-305
9.50422e-305
-4.08936e-304
5.23389e-304
-2.25246e-303
2.88206e-303
-1.24697e-302
1.59308e-302
-6.98433e-302
8.87841e-302
-3.97556e-301
5.0148e-301
-2.31799e-300
2.88761e-300
-1.39168e-299
1.70614e-299
-8.66661e-299
1.04121e-298
-5.61777e-298
6.603e-298
-3.80338e-297
4.37129e-297
-2.68841e-296
3.02867e-296
-1.9817e-295
2.1967e-295
-1.51911e-294
1.66533e-294
-1.2075e-293
1.31607e-293
-9.93188e-293
1.08127e-292
-8.43674e-292
9.21287e-292
-7.40095e-291
8.13019e-291
-6.70519e-290
7.42636e-290
-6.28528e-289
7.02732e-289
-6.11226e-288
6.8989e-288
-6.18897e-287
7.04864e-287
-6.56684e-286
7.52429e-286
-7.3434e-285
8.44235e-285
-8.75383e-284
1.00297e-283
-1.1211e-282
1.27423e-282
-1.56939e-281
1.75151e-281
2.63911e-280
-2.41801e-280
0
-7.31182e-239
-4.90037e-240
0
0
0
0
0
0
0
0
0
0
0
0
0
0
0
0
0
0
0
0
0
0
0
0
0
0
0
0
0
0
0
0
0
0
0
0
0
0
0
0
0
0
0
0
0
0
0
0
0
0
0
0
0
0
-3.02236e-315
3.43651e-315
-3.60717e-313
4.14528e-313
-1.25694e-311
1.43141e-311
-2.69402e-310
3.03754e-310
-4.33593e-309
4.84905e-309
-5.73852e-308
6.39546e-308
-6.62266e-307
7.30786e-307
-6.86091e-306
7.5338e-306
-6.50831e-305
7.12291e-305
-5.74064e-304
6.26607e-304
-4.7559e-303
5.18373e-303
-3.7336e-302
4.06566e-302
-2.79415e-301
3.04299e-301
-2.0053e-300
2.18507e-300
-1.3857e-299
1.5122e-299
-9.26055e-299
1.01254e-298
-6.00299e-298
6.58239e-298
-3.78809e-297
4.16712e-297
-2.33229e-296
2.57629e-296
-1.40556e-295
1.55942e-295
-8.30681e-295
9.26431e-295
-4.82986e-294
5.41452e-294
-2.76778e-293
3.12069e-293
-1.56896e-292
1.7781e-292
-8.81745e-292
1.00431e-291
-4.93615e-291
5.64067e-291
-2.76217e-290
3.16196e-290
-1.55539e-289
1.77705e-289
-8.86326e-289
1.00688e-288
-5.15759e-288
5.79066e-288
-3.08751e-287
3.40704e-287
-1.91898e-286
2.06838e-286
-1.24495e-285
1.30622e-285
-8.465e-285
8.63526e-285
-6.02706e-284
5.99551e-284
-4.48196e-283
4.37088e-283
-3.46432e-282
3.33567e-282
-2.77048e-281
2.65268e-281
-2.28388e-280
2.1882e-280
-1.93503e-279
1.86504e-279
-1.68343e-278
1.63841e-278
-1.5027e-277
1.48134e-277
-1.37798e-276
1.3785e-276
-1.29967e-275
1.32117e-275
-1.2642e-274
1.30671e-274
-1.27263e-273
1.33697e-273
-1.33164e-272
1.42062e-272
-1.45901e-271
1.57507e-271
-1.68409e-270
1.83454e-270
-2.07641e-269
2.26472e-269
-2.77127e-268
2.9986e-268
4.32423e-267
-4.0772e-267
-1.02928e-251
-6.36167e-189
-3.26599e-190
0
8.47584e-251
0
0
0
0
0
0
0
0
0
0
0
0
0
0
0
0
0
0
0
0
0
0
0
0
0
0
0
0
0
0
0
0
0
0
0
0
0
0
0
0
0
0
0
0
0
0
0
0
0
0
-4.18334e-300
4.85999e-300
-1.67268e-297
2.08122e-297
-6.72904e-296
8.39572e-296
-1.43072e-294
1.79503e-294
-2.14237e-293
2.6678e-293
-2.5257e-292
3.15889e-292
-2.53663e-291
3.14628e-291
-2.24912e-290
2.78461e-290
-1.80686e-289
2.23379e-289
-1.33959e-288
1.65394e-288
-9.28445e-288
1.14511e-287
-6.07549e-287
7.48635e-287
-3.7819e-286
4.65706e-286
-2.25355e-285
2.77375e-285
-1.29188e-284
1.58993e-284
-7.15632e-284
8.80948e-284
-3.84437e-283
4.7361e-283
-2.00942e-282
2.47867e-282
-1.02468e-281
1.26648e-281
-5.11103e-281
6.33391e-281
-2.49873e-280
3.1076e-280
-1.19995e-279
1.49882e-279
-5.6693e-279
7.11947e-279
-2.64025e-278
3.33632e-278
-1.21357e-277
1.54487e-277
-5.5152e-277
7.07912e-277
-2.48094e-276
3.21472e-276
-1.10659e-275
1.44879e-275
-4.89929e-275
6.48864e-275
-2.15696e-274
2.89211e-274
-9.45417e-274
1.2847e-273
-4.13388e-273
5.69642e-273
-1.8063e-272
2.52541e-272
-7.91166e-272
1.12173e-271
-3.49326e-271
5.0062e-271
-1.58335e-270
2.25799e-270
-7.89786e-270
1.04805e-269
-5.39494e-269
5.36678e-269
-6.60915e-268
3.77332e-268
-1.26832e-266
4.76949e-267
-2.88392e-265
9.47013e-266
-6.94128e-264
2.23346e-264
-1.72325e-262
5.59242e-263
-4.39401e-261
1.44813e-261
-1.1522e-259
3.86395e-260
-3.11344e-258
1.0634e-258
-8.69387e-257
3.02655e-257
-2.51595e-255
8.93224e-256
-7.56599e-254
2.74232e-254
-2.37099e-252
8.78701e-253
-7.767e-251
2.94842e-251
-2.6736e-249
1.04051e-249
3.87677e-248
-9.99721e-248
2.06197e-249
-9.45557e-177
-3.39289e-178
0
-2.08799e-248
0
0
0
0
0
0
0
0
0
0
0
0
0
0
0
0
0
0
0
0
0
0
0
0
0
0
0
0
0
0
0
0
0
0
0
0
0
0
0
0
0
0
0
0
0
0
0
0
-2.09736e-298
1.96633e-298
-4.25065e-295
5.12068e-295
-2.1936e-293
2.65793e-293
-5.43893e-292
6.59589e-292
-8.87755e-291
1.07683e-290
-1.0957e-289
1.3352e-289
-1.11999e-288
1.35548e-288
-9.92333e-288
1.19981e-287
-7.87047e-287
9.50776e-287
-5.70921e-286
6.89466e-286
-3.84772e-285
4.64544e-285
-2.43525e-284
2.94066e-284
-1.4603e-283
1.76369e-283
-8.34936e-283
1.00895e-282
-4.57834e-282
5.53556e-282
-2.41814e-281
2.92638e-281
-1.23549e-280
1.49665e-280
-6.12614e-280
7.43174e-280
-2.95797e-279
3.59426e-279
-1.39429e-278
1.69797e-278
-6.43394e-278
7.85542e-278
-2.91222e-277
3.56745e-277
-1.29603e-276
1.59374e-276
-5.6797e-276
7.01788e-276
-2.45604e-275
3.05134e-275
-1.04922e-274
1.31219e-274
-4.43624e-274
5.58947e-274
-1.85816e-273
2.36178e-273
-7.7237e-273
9.91221e-273
-3.18838e-272
4.13741e-272
-1.30937e-271
1.71964e-271
-5.35322e-271
7.12594e-271
-2.18277e-270
2.94761e-270
-8.88444e-270
1.2187e-269
-3.61735e-269
5.04341e-269
-1.47573e-268
2.09254e-268
-6.05465e-268
8.7228e-268
-2.51556e-267
3.66543e-267
-1.08312e-266
1.56402e-266
-5.25867e-266
6.93297e-266
-3.67671e-265
3.475e-265
-4.70032e-264
2.51483e-264
-9.1108e-263
3.33709e-263
-2.05788e-261
6.733e-262
-4.91901e-260
1.58776e-260
-1.2167e-258
3.97467e-259
-3.1039e-257
1.03303e-257
-8.17401e-256
2.77868e-256
-2.22778e-254
7.74469e-255
-6.29599e-253
2.2425e-253
-1.85038e-251
6.76449e-252
-5.67265e-250
2.13349e-250
-1.82249e-248
7.05985e-249
2.46204e-247
-6.35238e-247
3.31631e-218
-2.50069e-172
-5.09651e-174
2.08117e-299
-4.34509e-217
0
-1.51815e-298
0
0
0
0
0
0
0
0
0
0
0
0
0
0
0
0
0
0
0
0
0
0
0
0
0
0
0
0
0
0
0
0
4.39373e-320
4.51239e-318
4.00495e-319
1.21898e-316
4.5835e-319
1.31577e-316
1.41043e-318
2.69359e-316
5.80809e-317
1.05427e-314
1.5609e-312
5.84752e-310
-2.93087e-295
3.35162e-295
-5.8872e-293
6.86426e-293
-3.19647e-291
3.74947e-291
-8.88737e-290
1.0453e-289
-1.59647e-288
1.87947e-288
-2.1032e-287
2.4882e-287
-2.23335e-286
2.6261e-286
-2.01382e-285
2.36583e-285
-1.59237e-284
1.8804e-284
-1.14635e-283
1.34569e-283
-7.61233e-283
8.93582e-283
-4.72077e-282
5.54483e-282
-2.7612e-281
3.24587e-281
-1.5341e-280
1.80556e-280
-8.14513e-280
9.59967e-280
-4.15186e-279
4.90164e-279
-2.04053e-278
2.41356e-278
-9.70279e-278
1.15019e-277
-4.47887e-277
5.32212e-277
-2.0126e-276
2.39818e-276
-8.82878e-276
1.05522e-275
-3.7896e-275
4.54524e-275
-1.59559e-274
1.9211e-274
-6.6026e-274
7.98501e-274
-2.69118e-273
3.27062e-273
-1.08215e-272
1.32265e-272
-4.30147e-272
5.29069e-272
-1.69234e-271
2.09678e-271
-6.60207e-271
8.24632e-271
-2.55645e-270
3.22296e-270
-9.84169e-270
1.25356e-269
-3.77e-269
4.85817e-269
-1.43917e-268
1.87838e-268
-5.47915e-268
7.25385e-268
-2.08342e-267
2.80118e-267
-7.91929e-267
1.08288e-266
-3.01364e-266
4.1959e-266
-1.14967e-265
1.63162e-265
-4.40613e-265
6.37741e-265
-1.70231e-264
2.51067e-264
-6.68531e-264
9.99057e-264
-2.74553e-263
4.05222e-263
-1.31238e-262
1.72341e-262
-9.71127e-262
8.55644e-262
-1.34518e-260
6.59494e-261
-2.69432e-259
9.54564e-260
-6.13131e-258
2.00407e-258
-1.4699e-256
4.79721e-257
-3.653e-255
1.21404e-255
-9.39166e-254
3.19732e-254
-2.50121e-252
8.74745e-253
-6.91175e-251
2.49059e-251
-1.98839e-249
7.40047e-250
-5.98062e-248
2.30333e-248
7.53625e-247
-1.94767e-246
5.199e-202
-6.60898e-156
-3.08019e-158
1.68807e-246
-9.62051e-201
0
-1.53682e-245
0
0
0
0
0
0
0
0
0
0
0
0
0
0
0
0
0
0
0
0
0
0
0
0
0
0
0
0
0
0
7.91559e-311
6.8472e-309
-2.08369e-302
2.55397e-302
-2.94755e-300
3.50442e-300
-2.24646e-298
2.58396e-298
-1.66765e-296
1.88639e-296
-1.3647e-294
1.53495e-294
-1.11676e-292
1.25776e-292
-7.20169e-291
8.14488e-291
-3.0879e-289
3.50789e-289
-8.60555e-288
9.81098e-288
-1.64755e-286
1.88126e-286
-2.3176e-285
2.6603e-285
-2.58786e-284
2.95291e-284
-2.40772e-283
2.74488e-283
-1.94628e-282
2.21626e-282
-1.40782e-281
1.60199e-281
-9.26032e-281
1.05924e-280
-5.68533e-280
6.46937e-280
-3.27645e-279
3.73127e-279
-1.78748e-278
2.03776e-278
-9.28667e-278
1.06049e-277
-4.61996e-277
5.28541e-277
-2.20917e-276
2.53343e-276
-1.01942e-275
1.17203e-275
-4.55248e-275
5.25013e-275
-1.97373e-274
2.28367e-274
-8.32707e-274
9.67159e-274
-3.42806e-273
3.99773e-273
-1.37987e-272
1.61663e-272
-5.44418e-272
6.40958e-272
-2.10916e-271
2.49694e-271
-8.04202e-271
9.57646e-271
-3.02263e-270
3.62319e-270
-1.12229e-269
1.35473e-269
-4.12213e-269
5.01537e-269
-1.50077e-268
1.84143e-268
-5.42219e-268
6.71674e-268
-1.94772e-267
2.43755e-267
-6.9626e-267
8.81485e-267
-2.48122e-266
3.18062e-266
-8.8214e-266
1.1467e-265
-3.1339e-265
4.13552e-265
-1.11324e-264
1.49382e-264
-3.96021e-264
5.41023e-264
-1.41175e-263
1.96697e-263
-5.05134e-263
7.18642e-263
-1.8159e-262
2.64192e-262
-6.57396e-262
9.78651e-262
-2.40454e-261
3.66041e-261
-8.97595e-261
1.38741e-260
-3.54572e-260
5.38198e-260
-1.7098e-259
2.21631e-259
-1.40258e-258
1.11753e-258
-2.15878e-257
9.61912e-258
-4.50588e-256
1.5588e-256
-1.04068e-254
3.43909e-255
-2.51953e-253
8.42769e-254
-6.33179e-252
2.17482e-252
-1.64925e-250
5.8525e-251
-4.46689e-249
1.64268e-249
-1.26107e-247
4.82099e-248
1.48472e-246
-3.8499e-246
2.3623e-167
-4.76075e-152
4.57137e-152
9.29808e-208
-7.42582e-166
3.00501e-274
-1.11539e-206
0
-2.39477e-273
0
0
0
0
0
0
0
0
0
0
0
0
0
0
0
0
0
0
0
0
0
0
0
0
0
0
0
0
-1.14578e-298
1.41857e-298
-1.5263e-296
1.88207e-296
-6.481e-295
7.555e-295
-2.21797e-293
2.50138e-293
-7.38737e-292
8.19144e-292
-2.50768e-290
2.76227e-290
-8.35866e-289
9.20051e-289
-2.49708e-287
2.75427e-287
-6.08718e-286
6.73485e-286
-1.15261e-284
1.27763e-284
-1.69043e-283
1.8758e-283
-1.96775e-282
2.19116e-282
-1.90174e-281
2.10581e-281
-1.57734e-280
1.74349e-280
-1.15711e-279
1.27705e-279
-7.68947e-279
8.47643e-279
-4.71139e-278
5.19007e-278
-2.69589e-277
2.96974e-277
-1.44708e-276
1.60319e-276
-7.41227e-276
8.18018e-276
-3.62715e-275
4.00822e-275
-1.7019e-274
1.88476e-274
-7.68991e-274
8.53548e-274
-3.35464e-273
3.73483e-273
-1.41761e-272
1.58335e-272
-5.81472e-272
6.52046e-272
-2.32165e-271
2.61439e-271
-9.03851e-271
1.02291e-270
-3.43991e-270
3.91344e-270
-1.28171e-269
1.46702e-269
-4.68695e-269
5.39854e-269
-1.68427e-268
1.95403e-268
-5.96215e-268
6.96894e-268
-2.0814e-267
2.45357e-267
-7.18327e-267
8.54197e-267
-2.45314e-266
2.94604e-266
-8.30995e-266
1.00818e-265
-2.7945e-265
3.42942e-265
-9.35102e-265
1.1613e-264
-3.11568e-264
3.92136e-264
-1.03597e-263
1.32223e-263
-3.43942e-263
4.45884e-263
-1.14247e-262
1.5057e-262
-3.79872e-262
5.09874e-262
-1.26663e-261
1.7334e-261
-4.23726e-261
5.92368e-261
-1.42449e-260
2.0371e-260
-4.81571e-260
7.05811e-260
-1.64e-259
2.46673e-259
-5.63528e-259
8.70862e-259
-1.96174e-258
3.11188e-258
-7.00196e-258
1.13002e-257
-2.69548e-257
4.2213e-257
-1.36329e-256
1.70657e-256
-1.30561e-255
9.09833e-256
-2.2516e-254
9.21954e-255
-4.8999e-253
1.6897e-253
-1.15233e-251
3.92443e-252
-2.8321e-250
9.90385e-251
-7.23239e-249
2.62624e-249
-1.923e-247
7.28529e-248
2.11742e-246
-5.51778e-246
4.20914e-161
-1.38625e-150
1.48496e-150
3.98127e-198
-4.33513e-159
-1.95725e-257
-7.27252e-197
4.1427e-284
2.03818e-256
1.56786e-284
-3.46373e-283
8.23503e-285
-1.34491e-283
1.81832e-285
-9.48941e-284
-1.34764e-285
-5.00442e-284
-2.46305e-285
-2.58406e-284
-3.15761e-285
-1.97201e-284
-3.51028e-285
-1.64397e-284
-3.47281e-285
-1.40237e-284
-2.94322e-285
-1.15406e-284
-1.95241e-285
-8.43089e-285
-8.80516e-286
-4.86936e-285
-2.21468e-286
-1.91755e-285
-2.22389e-287
-4.25598e-286
-1.269e-289
-3.87156e-287
-8.63106e-294
-2.55119e-289
-3.29525e-292
3.95971e-292
-8.27058e-291
9.41582e-291
-1.83863e-289
2.02834e-289
-3.99022e-288
4.32969e-288
-8.66147e-287
9.33158e-287
-1.839e-285
1.97796e-285
-3.62083e-284
3.89903e-284
-6.23142e-283
6.72038e-283
-8.98496e-282
9.70346e-282
-1.06868e-280
1.15801e-280
-1.06609e-279
1.1494e-279
-9.09913e-279
9.78666e-279
-6.81017e-278
7.30777e-278
-4.57744e-277
4.90023e-277
-2.8153e-276
3.00839e-276
-1.60819e-275
1.71623e-275
-8.62502e-275
9.19905e-275
-4.37864e-274
4.67088e-274
-2.10812e-273
2.26063e-273
-9.75718e-273
1.04284e-272
-4.34203e-272
4.64718e-272
-1.86224e-271
1.99772e-271
-7.72338e-271
8.30649e-271
-3.10354e-270
3.34927e-270
-1.21165e-269
1.31248e-269
-4.60325e-269
5.00935e-269
-1.70598e-268
1.86572e-268
-6.17589e-268
6.79411e-268
-2.18893e-267
2.42322e-267
-7.60499e-267
8.48037e-267
-2.59576e-266
2.91683e-266
-8.7137e-266
9.87733e-266
-2.88326e-265
3.29827e-265
-9.41316e-265
1.08793e-264
-3.03912e-264
3.55017e-264
-9.71203e-264
1.1481e-263
-3.07911e-263
3.68516e-263
-9.69292e-263
1.17603e-262
-3.03668e-262
3.737e-262
-9.47555e-262
1.1844e-261
-2.95141e-261
3.74962e-261
-9.18357e-261
1.18764e-260
-2.86041e-260
3.76896e-260
-8.92507e-260
1.20016e-259
-2.79479e-259
3.83998e-259
-8.78916e-259
1.23618e-258
-2.78032e-258
4.00901e-258
-8.85423e-258
1.31142e-257
-2.84245e-257
4.33227e-257
-9.21002e-257
1.44712e-256
-3.01783e-256
4.89483e-256
-1.0045e-255
1.68002e-255
-3.45263e-255
5.87829e-255
-1.3213e-254
2.13191e-254
-7.43245e-254
8.64397e-254
-8.66687e-253
5.17369e-253
-1.66136e-251
6.45024e-252
-3.75239e-250
1.32878e-250
-9.01569e-249
3.2451e-249
-2.26015e-247
8.48352e-248
2.3313e-246
-6.11629e-246
-1.97386e-151
-2.0439e-149
2.35843e-149
2.12337e-176
-1.5039e-151
3.76379e-220
-7.72482e-175
1.44529e-255
-5.69693e-219
2.27175e-255
-1.57835e-254
2.01249e-255
-2.40293e-254
7.76885e-256
-2.77525e-254
-6.97587e-256
-2.62011e-254
-1.48029e-255
-1.67194e-254
-1.90847e-255
-1.29875e-254
-1.99371e-255
-1.03218e-254
-1.73873e-255
-7.93353e-255
-1.21517e-255
-5.55365e-255
-6.20652e-256
-3.25889e-255
-2.00064e-256
-1.43147e-255
-3.19815e-257
-4.04009e-256
-1.3078e-258
-5.78667e-257
5.75867e-291
-2.186e-258
-7.15628e-290
-3.56211e-289
-1.60833e-288
1.88108e-288
-2.87653e-287
3.19961e-287
-4.75772e-286
5.13757e-286
-7.70696e-285
8.18997e-285
-1.23952e-283
1.30745e-283
-1.94735e-282
2.04951e-282
-2.88378e-281
3.03524e-281
-3.85785e-280
4.06419e-280
-4.49948e-279
4.75635e-279
-4.53669e-278
4.77452e-278
-3.95502e-277
4.15255e-277
-3.0218e-276
3.16332e-276
-2.06144e-275
2.15082e-275
-1.27827e-274
1.32958e-274
-7.31857e-274
7.59143e-274
-3.91589e-273
4.05352e-273
-1.97674e-272
2.04341e-272
-9.48208e-272
9.79436e-272
-4.34479e-271
4.48804e-271
-1.90252e-270
1.97433e-270
-8.0515e-270
8.3294e-270
-3.29158e-269
3.40961e-269
-1.30204e-268
1.35181e-268
-4.99693e-268
5.20199e-268
-1.86353e-267
1.94703e-267
-6.76886e-267
7.10111e-267
-2.39784e-266
2.52826e-266
-8.30154e-266
8.80192e-266
-2.81215e-265
3.00138e-265
-9.33956e-265
1.00397e-264
-3.04428e-264
3.29967e-264
-9.75812e-264
1.06711e-263
-3.07892e-263
3.40103e-263
-9.58176e-263
1.0698e-262
-2.9438e-262
3.32625e-262
-8.94684e-262
1.02374e-261
-2.69224e-261
3.12378e-261
-8.03791e-261
9.4636e-261
-2.38313e-260
2.85105e-260
-7.03136e-260
8.55382e-260
-2.06652e-259
2.55983e-259
-6.06125e-259
7.65281e-259
-1.77643e-258
2.28908e-258
-5.2111e-258
6.86141e-258
-1.53201e-257
2.06411e-257
-4.52082e-257
6.24145e-257
-1.34073e-256
1.8998e-256
-4.00169e-256
5.8294e-256
-1.20347e-255
1.80571e-255
-3.65109e-255
5.65418e-255
-1.10969e-254
1.79206e-254
-3.43604e-254
5.71e-254
-1.07816e-253
1.86029e-253
-3.44712e-253
6.16586e-253
-1.14982e-252
2.09107e-252
-4.49215e-252
7.43241e-252
-2.97815e-251
3.10928e-251
-4.23234e-250
2.21947e-250
-8.81475e-249
3.41586e-249
-2.0599e-247
7.7597e-248
1.99259e-246
-5.26387e-246
-5.47547e-150
-2.05192e-148
2.53634e-148
3.93268e-158
-3.69552e-150
5.31753e-175
-4.54787e-155
-1.41778e-233
-1.46603e-173
5.66621e-234
2.26683e-232
4.50729e-234
-8.04971e-233
4.00394e-235
-8.09275e-233
-5.35752e-235
-1.93092e-233
-7.6929e-235
-9.35815e-234
-8.02137e-235
-6.02302e-234
-6.79956e-235
-3.96738e-234
-4.62891e-235
-2.44839e-234
-2.39422e-235
-1.31911e-234
-8.48494e-236
-5.68328e-235
-1.7257e-236
-1.73447e-235
-1.36267e-237
-3.11854e-236
1.77779e-260
-2.23402e-237
-8.31484e-288
-3.3667e-258
-1.94e-286
2.36256e-286
-3.11804e-285
3.5454e-285
-4.35182e-284
4.72821e-284
-5.75441e-283
6.08361e-283
-7.47255e-282
7.7807e-282
-9.59945e-281
9.92179e-281
-1.20445e-279
1.24145e-279
-1.43731e-278
1.48065e-278
-1.5757e-277
1.62842e-277
-1.5562e-276
1.60197e-276
-1.36116e-275
1.39877e-275
-1.05414e-274
1.08002e-274
-7.2915e-274
7.44332e-274
-4.56745e-273
4.64342e-273
-2.62743e-272
2.6608e-272
-1.40609e-271
1.41877e-271
-7.07114e-271
7.11419e-271
-3.36966e-270
3.38201e-270
-1.53063e-269
1.53383e-269
-6.66176e-269
6.66787e-269
-2.7875e-268
2.78899e-268
-1.12081e-267
1.12581e-267
-4.37324e-267
4.3789e-267
-1.65411e-266
1.65826e-266
-6.07367e-266
6.10177e-266
-2.16947e-265
2.18559e-265
-7.54973e-265
7.63353e-265
-2.56416e-264
2.60398e-264
-8.51099e-264
8.68898e-264
-2.76525e-263
2.84037e-263
-8.80546e-263
9.10915e-263
-2.75233e-262
2.87012e-262
-8.45462e-262
8.89694e-262
-2.5562e-261
2.71709e-261
-7.61546e-261
8.18603e-261
-2.23905e-260
2.4364e-260
-6.50399e-260
7.17319e-260
-1.86948e-259
2.09197e-259
-5.32301e-259
6.05177e-259
-1.50386e-258
1.73893e-258
-4.22063e-258
4.97016e-258
-1.17839e-257
1.41501e-257
-3.27787e-257
4.01852e-257
-9.09527e-257
1.14011e-256
-2.52189e-256
3.23606e-256
-6.99577e-256
9.20384e-256
-1.94481e-255
2.62687e-255
-5.38613e-255
7.5355e-255
-1.50897e-254
2.16023e-254
-4.25379e-254
6.28454e-254
-1.2085e-253
1.84587e-253
-3.46341e-253
5.48201e-253
-1.0038e-252
1.64854e-252
-2.9424e-252
5.03177e-252
-8.73905e-252
1.55988e-251
-2.63479e-251
4.91994e-251
-8.13176e-251
1.58303e-250
-2.6707e-250
5.23946e-250
-1.13279e-249
1.85629e-249
-9.76259e-249
8.54334e-249
-1.68832e-247
8.04977e-248
1.53367e-246
-3.90563e-246
-6.74514e-149
-1.56394e-147
2.05471e-147
-8.45621e-151
-4.24786e-149
2.17659e-158
-4.12412e-151
8.64632e-172
-2.95804e-156
1.06464e-183
-2.58251e-170
1.77179e-184
-2.3592e-182
1.99642e-185
-4.76347e-183
-5.72725e-185
-1.93314e-183
-7.73156e-185
-1.02148e-183
-6.99407e-185
-5.91732e-184
-4.95771e-185
-3.35688e-184
-2.66253e-185
-1.69618e-184
-1.01028e-185
-7.06771e-185
-2.37466e-186
-2.1986e-185
-2.62993e-187
-4.39062e-186
-3.80772e-189
-4.22533e-187
1.30316e-259
-5.66659e-189
-1.55059e-284
-4.63215e-258
-2.43234e-283
2.85141e-283
-3.0757e-282
3.391e-282
-3.54125e-281
3.75195e-281
-3.91997e-280
4.05301e-280
-4.26907e-279
4.35286e-279
-4.5898e-278
4.6472e-278
-4.82034e-277
4.86559e-277
-4.84178e-276
4.88292e-276
-4.5281e-275
4.57635e-275
-3.88067e-274
3.90651e-274
-3.00395e-273
3.01675e-273
-2.09493e-272
2.097e-272
-1.32466e-271
1.32027e-271
-7.66914e-271
7.60964e-271
-4.11359e-270
4.06258e-270
-2.06491e-269
2.0308e-269
-9.79011e-269
9.59071e-269
-4.41302e-268
4.30959e-268
-1.90231e-267
1.85264e-267
-7.873e-267
7.65195e-267
-3.13985e-266
3.04674e-266
-1.20969e-265
1.17267e-265
-4.49639e-265
4.37331e-265
-1.62731e-264
1.57744e-264
-5.72411e-264
5.55509e-264
-1.96039e-263
1.90594e-263
-6.54541e-263
6.38154e-263
-2.13419e-262
2.08808e-262
-6.80326e-262
6.68696e-262
-2.12364e-261
2.09863e-261
-6.49787e-261
6.4638e-261
-1.95187e-260
1.95622e-260
-5.76159e-260
5.82537e-260
-1.67379e-259
1.70892e-259
-4.78999e-259
4.94533e-259
-1.35234e-258
1.41339e-258
-3.77043e-258
3.99469e-258
-1.03946e-257
1.11788e-257
-2.83707e-257
3.10125e-257
-7.67549e-257
8.54025e-257
-2.06089e-256
2.33738e-256
-5.49892e-256
6.36623e-256
-1.45961e-255
1.72779e-255
-3.83628e-255
4.67869e-255
-1.01137e-254
1.25789e-254
-2.66388e-254
3.40312e-254
-7.01715e-254
9.22407e-254
-1.85174e-253
2.50851e-253
-4.9041e-253
6.85486e-253
-1.30492e-252
1.88632e-252
-3.49299e-252
5.23249e-252
-9.42144e-252
1.46548e-251
-2.5637e-251
4.15074e-251
-7.04878e-251
1.19085e-250
-1.96022e-250
3.46614e-250
-5.52225e-250
1.02516e-249
-1.57781e-249
3.08598e-249
-4.58807e-249
9.47329e-249
-1.37453e-248
2.97619e-248
-4.56092e-248
9.6987e-248
-2.30369e-247
3.52575e-247
1.96795e-246
-2.80378e-246
-5.63806e-148
-9.57974e-147
1.32625e-146
-1.32245e-149
-3.36519e-148
-1.03692e-151
-6.23408e-150
8.91304e-158
-3.84938e-152
2.38152e-170
-1.70847e-155
4.40534e-170
-1.20515e-168
-1.81373e-171
-2.44899e-168
-1.85402e-171
-5.8881e-170
-2.05329e-171
-3.00816e-170
-1.43534e-171
-1.41644e-170
-7.40685e-172
-6.09467e-171
-2.72782e-172
-2.22501e-171
-6.55317e-173
-6.36183e-172
-8.11982e-174
-1.22086e-172
-2.55952e-175
-1.22607e-173
1.28328e-190
-3.05874e-175
2.90248e-259
-6.42966e-189
-1.37699e-281
-5.71554e-258
-1.668e-280
1.86888e-280
-1.75887e-279
1.87403e-279
-1.73636e-278
1.78923e-278
-1.66289e-277
1.67801e-277
-1.56817e-276
1.56333e-276
-1.45819e-275
1.4443e-275
-1.32409e-274
1.30771e-274
-1.15203e-273
1.13911e-273
-9.46112e-273
9.32263e-273
-7.19372e-272
7.07677e-272
-5.00885e-271
4.91489e-271
-3.18575e-270
3.11449e-270
-1.85779e-269
1.80825e-269
-1.0013e-268
9.69835e-269
-5.03295e-268
4.85098e-268
-2.38039e-267
2.28335e-267
-1.06716e-266
1.0192e-266
-4.56339e-266
4.34092e-266
-1.87004e-265
1.77275e-265
-7.373e-265
6.96833e-265
-2.80544e-264
2.64458e-264
-1.03264e-263
9.71513e-264
-3.6855e-263
3.46201e-263
-1.27733e-262
1.19908e-262
-4.29212e-262
4.04324e-262
-1.40977e-261
1.3247e-261
-4.51962e-261
4.25316e-261
-1.41532e-260
1.33553e-260
-4.33705e-260
4.10643e-260
-1.30149e-259
1.23811e-259
-3.83121e-259
3.66475e-259
-1.10706e-258
1.06636e-258
-3.14539e-258
3.05364e-258
-8.79281e-258
8.61688e-258
-2.42212e-257
2.39877e-257
-6.58056e-257
6.59573e-257
-1.76542e-256
1.7934e-256
-4.68224e-256
4.82755e-256
-1.22883e-255
1.28807e-255
-3.19576e-255
3.41026e-255
-8.19805e-255
8.97054e-255
-2.09882e-254
2.33427e-254
-5.34121e-254
6.07884e-254
-1.35278e-253
1.57821e-253
-3.41528e-253
4.09001e-253
-8.60315e-253
1.05979e-252
-2.16445e-252
2.74818e-252
-5.44712e-252
7.14094e-252
-1.37265e-251
1.86191e-251
-3.46905e-251
4.87809e-251
-8.80216e-251
1.28609e-250
-2.24613e-250
3.41711e-250
-5.7705e-250
9.16482e-250
-1.49518e-249
2.48513e-249
-3.91118e-249
6.82468e-249
-1.03473e-248
1.90126e-248
-2.7709e-248
5.38274e-248
-7.52428e-248
1.55131e-247
-2.07388e-247
4.5599e-247
-5.83088e-247
1.37012e-246
-1.71183e-246
4.231e-246
1.37649e-245
-6.05003e-246
2.20155e-148
3.46734e-145
-3.5953e-145
1.0857e-151
1.89562e-150
-1.83752e-151
-4.88903e-150
-4.53909e-153
-2.49817e-151
-3.67687e-155
-8.68906e-153
-1.14542e-157
-1.21469e-154
-6.73322e-159
-6.14642e-157
-1.90613e-160
-5.85869e-159
-5.47778e-162
-9.25131e-161
-1.46033e-163
-1.78071e-162
-1.23796e-158
-1.3377e-157
-6.41911e-160
-7.48061e-159
-1.45726e-161
-2.17851e-160
5.9419e-163
2.43674e-161
4.13351e-177
7.49053e-163
2.76544e-190
-2.90147e-175
4.68672e-259
-5.93853e-189