/*--------------------------------*- C++ -*----------------------------------*\
  =========                 |
  \\      /  F ield         | OpenFOAM: The Open Source CFD Toolbox
   \\    /   O peration     | Website:  https://openfoam.org
    \\  /    A nd           | Version:  7
     \\/     M anipulation  |
\*---------------------------------------------------------------------------*/
FoamFile
{
    version     2.0;
    format      ascii;
    class       volScalarField;
    location    "40";
    object      alpha.wetting;
}
// * * * * * * * * * * * * * * * * * * * * * * * * * * * * * * * * * * * * * //

dimensions      [0 0 0 0 0 0 0];

internalField   nonuniform List<scalar> 
49920
(
-6.60367e-317
9.34131e-317
1.74199e-316
1.52519e-316
1.56755e-316
1.31343e-316
1.47495e-316
2.00698e-316
1.77136e-316
1.45881e-316
1.54122e-316
1.76531e-316
1.55566e-316
9.25993e-317
1.28687e-316
-7.10331e-317
-6.22458e-317
-6.35851e-317
-6.51753e-317
-9.97768e-317
-1.0101e-316
-1.01586e-316
1.01839e-316
-1.01965e-316
3.06112e-316
3.06247e-316
3.06335e-316
3.06397e-316
3.06442e-316
3.06476e-316
3.06502e-316
3.06522e-316
3.06537e-316
3.0655e-316
3.06561e-316
3.06567e-316
3.06566e-316
3.06561e-316
3.06557e-316
3.06553e-316
3.0655e-316
3.06547e-316
3.06545e-316
-3.06543e-316
-3.06541e-316
-3.06539e-316
-3.06538e-316
-3.06537e-316
-3.06536e-316
-3.06535e-316
-3.06534e-316
-3.06534e-316
-3.06534e-316
-3.06535e-316
-3.06534e-316
-3.06535e-316
-3.06535e-316
-3.06536e-316
-3.06536e-316
-3.06537e-316
-3.06537e-316
-3.06538e-316
-3.06538e-316
-3.06538e-316
-3.06539e-316
-3.06539e-316
-3.06539e-316
-3.06538e-316
-3.06539e-316
-3.06537e-316
-3.06537e-316
-3.06536e-316
-3.06536e-316
-3.06535e-316
-3.06534e-316
-3.06536e-316
-3.06534e-316
-3.06538e-316
-3.06536e-316
-3.0654e-316
-4.35837e-316
1.03307e-316
1.20035e-316
1.33393e-316
1.35336e-316
1.02627e-316
1.55243e-316
1.12207e-316
1.45614e-316
1.34857e-316
1.27189e-316
1.4074e-316
1.59534e-316
1.10533e-316
1.11149e-316
1.02147e-316
6.14799e-317
5.91489e-317
5.97517e-317
6.13889e-317
6.29078e-317
9.58194e-317
9.66085e-317
9.70297e-317
-2.91805e-316
-2.92241e-316
-2.92524e-316
-2.92717e-316
2.92855e-316
2.92957e-316
3.25594e-316
3.25661e-316
3.25713e-316
3.25756e-316
3.2579e-316
3.25817e-316
3.2582e-316
3.25806e-316
3.25793e-316
3.25782e-316
3.25773e-316
3.25765e-316
3.25758e-316
3.25753e-316
3.25748e-316
3.25744e-316
3.2574e-316
3.25737e-316
3.25735e-316
3.25732e-316
3.25731e-316
3.25729e-316
3.2573e-316
3.25729e-316
3.2573e-316
3.2573e-316
3.25731e-316
3.25732e-316
3.25734e-316
3.25736e-316
3.25738e-316
3.2574e-316
3.25742e-316
3.25745e-316
3.25746e-316
3.25749e-316
3.2575e-316
3.25752e-316
3.25753e-316
3.25754e-316
3.25755e-316
3.25755e-316
3.25756e-316
3.25756e-316
3.25757e-316
3.25756e-316
3.25759e-316
3.25758e-316
3.25762e-316
3.25761e-316
-3.53472e-316
9.6373e-317
9.67796e-317
1.06308e-316
1.06722e-316
1.01848e-316
1.46878e-316
1.04101e-316
1.06568e-316
1.53935e-316
1.55906e-316
1.52467e-316
1.25149e-316
1.04656e-316
9.59731e-317
1.27359e-316
9.20359e-317
5.80405e-317
5.69282e-317
5.76283e-317
5.90007e-317
9.0321e-317
9.15268e-317
-9.22375e-317
-2.77957e-316
-2.78715e-316
-2.79202e-316
-2.79533e-316
3.10853e-316
3.11045e-316
3.11189e-316
3.113e-316
3.11388e-316
3.11457e-316
3.11514e-316
3.11559e-316
3.11568e-316
3.11548e-316
3.1153e-316
3.11515e-316
3.11502e-316
3.11491e-316
3.11482e-316
3.11473e-316
3.11467e-316
3.11461e-316
3.11456e-316
3.11452e-316
3.11448e-316
3.11445e-316
3.11443e-316
3.11442e-316
3.11441e-316
3.11441e-316
3.11442e-316
3.11443e-316
3.11445e-316
3.11447e-316
3.11449e-316
3.11452e-316
3.11456e-316
3.11459e-316
3.11463e-316
3.11466e-316
3.1147e-316
3.11473e-316
3.11477e-316
3.1148e-316
3.11483e-316
3.11486e-316
3.11488e-316
3.11491e-316
3.11493e-316
3.11495e-316
3.11497e-316
3.115e-316
3.11502e-316
3.11504e-316
3.11508e-316
3.11511e-316
-8.937e-316
1.21994e-316
8.89945e-317
1.24624e-316
9.29945e-317
9.18045e-317
1.25446e-316
9.21306e-317
9.0112e-317
1.30159e-316
1.33202e-316
1.33686e-316
1.29325e-316
1.25544e-316
9.05996e-317
1.5271e-316
9.01051e-317
5.72196e-317
5.52475e-317
5.49584e-317
5.57789e-317
5.68959e-317
8.6729e-317
1.75308e-316
-2.35264e-316
-2.65729e-316
-2.6641e-316
-2.96521e-316
-2.96881e-316
2.97144e-316
2.97342e-316
2.97494e-316
2.97614e-316
2.9771e-316
3.27566e-316
3.27629e-316
2.97856e-316
2.97832e-316
2.97812e-316
2.97795e-316
2.9778e-316
2.97766e-316
2.97755e-316
2.97746e-316
2.97738e-316
2.97731e-316
2.97726e-316
2.97721e-316
2.97717e-316
2.97714e-316
2.97712e-316
2.9771e-316
2.9771e-316
2.97711e-316
2.97711e-316
2.97714e-316
2.97715e-316
2.97719e-316
2.97722e-316
2.97726e-316
2.9773e-316
2.97735e-316
2.9774e-316
2.97744e-316
2.9775e-316
2.97755e-316
2.9776e-316
2.97764e-316
2.9777e-316
2.97774e-316
2.97778e-316
2.97782e-316
2.97786e-316
2.9779e-316
2.97793e-316
2.97798e-316
2.978e-316
2.97806e-316
2.97809e-316
2.97815e-316
-1.20724e-315
2.91323e-316
8.51893e-317
1.16481e-316
8.627e-317
8.57846e-317
1.16151e-316
-3.14773e-316
-1.95501e-316
-8.28442e-316
-1.18748e-316
-1.48399e-316
-9.50617e-316
-7.34513e-316
-5.52349e-316
-8.19649e-316
-4.92375e-316
-1.95681e-316
-1.34612e-316
-1.05825e-316
-1.06269e-316
-1.34899e-316
-1.64548e-316
-1.94385e-316
-2.23991e-316
-2.53307e-316
-2.54158e-316
2.83033e-316
-2.83479e-316
2.83804e-316
3.12453e-316
3.1266e-316
3.12822e-316
3.12952e-316
3.13056e-316
3.13127e-316
3.13135e-316
3.13109e-316
3.13086e-316
3.13066e-316
3.13049e-316
3.13034e-316
3.13021e-316
3.1301e-316
3.13e-316
3.12993e-316
3.12986e-316
3.12981e-316
3.12977e-316
3.12973e-316
3.12971e-316
3.1297e-316
3.1297e-316
3.12971e-316
3.12973e-316
3.12976e-316
3.12979e-316
3.12983e-316
3.12988e-316
3.12994e-316
3.12999e-316
3.13006e-316
3.13012e-316
3.1302e-316
3.13027e-316
3.13034e-316
3.13041e-316
3.13048e-316
3.13055e-316
3.13062e-316
3.13068e-316
3.13074e-316
3.13081e-316
3.13087e-316
3.13093e-316
3.13098e-316
3.13104e-316
3.13109e-316
3.13116e-316
3.13121e-316
-1.43477e-315
6.1233e-316
1.09566e-316
1.10732e-316
8.20071e-317
8.15404e-317
1.09702e-316
-2.71042e-316
-1.86024e-316
6.68252e-316
4.14858e-316
4.70647e-316
9.25424e-316
1.23611e-315
1.20739e-315
1.20739e-315
6.39748e-316
2.7093e-316
1.5711e-316
1.27879e-316
1.01805e-316
1.28441e-316
1.56371e-316
1.84837e-316
2.13265e-316
2.41443e-316
2.4244e-316
2.70121e-316
2.7064e-316
2.98117e-316
-2.98427e-316
2.98665e-316
2.98853e-316
2.99002e-316
2.99124e-316
2.99192e-316
2.99193e-316
2.99167e-316
2.99146e-316
2.99126e-316
2.99109e-316
2.99094e-316
2.99082e-316
2.99071e-316
2.99062e-316
2.99054e-316
2.99048e-316
2.99043e-316
2.99039e-316
2.99036e-316
2.99035e-316
2.99034e-316
2.99035e-316
2.99036e-316
2.9904e-316
2.99042e-316
2.99048e-316
2.99052e-316
2.99059e-316
2.99065e-316
2.99072e-316
2.9908e-316
2.99088e-316
2.99096e-316
2.99105e-316
2.99114e-316
2.99122e-316
2.99131e-316
2.99139e-316
2.99148e-316
2.99155e-316
2.99164e-316
2.99171e-316
2.99179e-316
2.99187e-316
2.99193e-316
2.99201e-316
2.99206e-316
2.99214e-316
2.9922e-316
1.15362e-315
6.916e-316
5.01787e-316
6.09944e-316
3.93473e-316
3.12542e-316
3.39605e-316
-2.84667e-316
-2.03546e-316
3.93282e-316
3.93439e-316
5.01317e-316
-1.12428e-315
-2.17902e-315
-2.20613e-315
-1.80027e-315
-8.26024e-316
-3.65554e-316
-1.77559e-316
-1.23685e-316
-1.22319e-316
-1.22708e-316
-1.48904e-316
-1.50775e-316
-2.03093e-316
-2.3013e-316
-2.31242e-316
-2.5777e-316
-2.84184e-316
-2.84642e-316
-2.84984e-316
-2.85247e-316
-3.11403e-316
-3.11583e-316
-3.11729e-316
3.11793e-316
3.11778e-316
3.11754e-316
3.11733e-316
3.11714e-316
3.11697e-316
3.11683e-316
3.1167e-316
3.11659e-316
3.11649e-316
3.11642e-316
3.11635e-316
3.11631e-316
3.11627e-316
3.11625e-316
3.11624e-316
3.11625e-316
3.11626e-316
3.11629e-316
3.11632e-316
3.11638e-316
3.11643e-316
3.11651e-316
3.11657e-316
3.11667e-316
3.11675e-316
3.11685e-316
3.11695e-316
3.11706e-316
3.11717e-316
3.11727e-316
3.11739e-316
3.11749e-316
3.11761e-316
3.1177e-316
3.11782e-316
3.11791e-316
3.11802e-316
3.11812e-316
3.11821e-316
3.11831e-316
3.11838e-316
3.11848e-316
3.11856e-316
3.11864e-316
1.0472e-315
7.88205e-316
6.07241e-316
5.81309e-316
4.52007e-316
3.74868e-316
3.49293e-316
-2.9718e-316
-2.2052e-316
3.23219e-316
3.49026e-316
4.26255e-316
-7.10398e-316
-1.38106e-315
-2.20682e-315
-2.05205e-315
-9.68088e-316
-4.26206e-316
-2.20272e-316
-1.43354e-316
-1.17729e-316
-1.1751e-316
-1.42068e-316
-1.43635e-316
-1.69292e-316
-2.19358e-316
-2.20549e-316
-2.45959e-316
-2.71246e-316
-2.7174e-316
-2.96843e-316
2.97149e-316
-2.97389e-316
-2.9758e-316
-2.97721e-316
-2.97766e-316
-2.97745e-316
-2.97726e-316
-2.97709e-316
-2.97693e-316
-2.97678e-316
-2.97665e-316
-2.97654e-316
-2.97644e-316
-2.97637e-316
-2.97629e-316
-2.97625e-316
-2.9762e-316
2.97618e-316
2.97617e-316
2.97617e-316
2.97618e-316
2.97621e-316
2.97624e-316
2.9763e-316
2.97635e-316
2.97643e-316
2.9765e-316
2.97659e-316
2.97668e-316
2.97679e-316
2.9769e-316
2.97701e-316
2.97714e-316
2.97725e-316
2.97738e-316
2.9775e-316
2.97763e-316
2.97774e-316
2.97788e-316
2.97798e-316
2.97811e-316
2.97822e-316
2.97834e-316
2.97844e-316
2.97854e-316
3.22686e-316
3.22696e-316
3.22707e-316
3.22716e-316
9.97842e-316
8.74228e-316
7.01724e-316
6.03272e-316
4.80508e-316
4.06797e-316
3.57594e-316
3.07996e-316
2.58939e-316
3.0794e-316
3.32985e-316
4.06753e-316
-6.27779e-316
-1.07067e-315
-1.78421e-315
-1.90727e-315
-1.02157e-315
-4.80265e-316
-2.58931e-316
-1.61199e-316
-1.35969e-316
-1.12683e-316
-1.35754e-316
-1.36974e-316
-1.61351e-316
-2.09116e-316
-2.33715e-316
-2.3467e-316
-2.58868e-316
-2.82971e-316
-2.8339e-316
2.83709e-316
-3.07621e-316
-3.07837e-316
-3.07961e-316
-3.07982e-316
-3.07967e-316
-3.07952e-316
-3.07937e-316
-3.07923e-316
-3.07911e-316
-3.079e-316
-3.07889e-316
-3.07881e-316
-3.07873e-316
-3.07868e-316
-3.07864e-316
-3.07861e-316
-3.07859e-316
-3.0786e-316
-3.07861e-316
-3.07864e-316
-3.07867e-316
-3.07873e-316
-3.07878e-316
-3.07887e-316
-3.07895e-316
-3.07905e-316
-3.07915e-316
-3.07927e-316
3.07939e-316
3.07953e-316
3.07967e-316
3.07981e-316
3.07996e-316
3.0801e-316
3.08026e-316
3.08039e-316
3.08055e-316
3.08069e-316
3.08084e-316
3.08097e-316
3.08112e-316
3.08124e-316
3.08138e-316
3.08149e-316
3.08161e-316
3.08173e-316
3.08185e-316
3.08196e-316
9.74167e-316
9.03762e-316
7.39529e-316
6.22082e-316
5.05006e-316
4.57543e-316
3.87368e-316
3.1727e-316
2.70725e-316
2.94043e-316
3.4061e-316
4.11073e-316
5.75188e-316
-9.03446e-316
-1.41945e-315
-1.63047e-315
-1.02078e-315
-5.28111e-316
-2.93596e-316
-1.77192e-316
-1.52556e-316
-1.29732e-316
-1.29856e-316
-1.52529e-316
-1.53859e-316
-1.99388e-316
-2.22901e-316
-2.46269e-316
-2.47029e-316
-2.70077e-316
2.7051e-316
-2.93406e-316
2.93682e-316
2.93894e-316
2.93982e-316
2.93977e-316
2.93969e-316
2.9396e-316
2.9395e-316
2.93941e-316
2.93931e-316
2.93923e-316
2.93915e-316
2.93909e-316
2.93904e-316
2.939e-316
2.93897e-316
2.93896e-316
2.93896e-316
2.93897e-316
2.93899e-316
2.93903e-316
2.93908e-316
2.93914e-316
2.93922e-316
2.93931e-316
2.9394e-316
2.93951e-316
2.93963e-316
2.93976e-316
2.9399e-316
2.94004e-316
2.94019e-316
2.94035e-316
2.94051e-316
2.94067e-316
2.94083e-316
2.94099e-316
3.16739e-316
3.16756e-316
3.16773e-316
3.16789e-316
3.16805e-316
3.16821e-316
3.16836e-316
3.1685e-316
3.16864e-316
3.16879e-316
3.16893e-316
3.16905e-316
9.06282e-316
9.06157e-316
7.71946e-316
6.37796e-316
5.26129e-316
4.59101e-316
4.13882e-316
3.46837e-316
3.02395e-316
3.0264e-316
3.46942e-316
4.14044e-316
5.48192e-316
-7.94099e-316
-1.17403e-315
1.35295e-315
9.72986e-316
5.48235e-316
3.24431e-316
2.12634e-316
1.46554e-316
1.2446e-316
1.24288e-316
1.45687e-316
1.67753e-316
1.9015e-316
2.12591e-316
2.34931e-316
2.57134e-316
2.57738e-316
2.79694e-316
2.80053e-316
3.01895e-316
3.02074e-316
3.02125e-316
3.02128e-316
3.02128e-316
3.02124e-316
3.02119e-316
3.02112e-316
3.02106e-316
3.021e-316
3.02095e-316
3.0209e-316
3.02087e-316
3.02084e-316
3.02084e-316
3.02083e-316
3.02085e-316
3.02088e-316
3.02092e-316
3.02097e-316
3.02104e-316
3.02112e-316
3.02122e-316
3.02132e-316
3.02144e-316
3.02157e-316
3.02171e-316
3.02186e-316
3.02202e-316
3.02219e-316
3.02236e-316
3.02254e-316
3.02272e-316
3.02291e-316
3.0231e-316
3.02329e-316
3.02346e-316
3.02365e-316
3.02382e-316
3.02401e-316
3.02417e-316
3.02434e-316
3.0245e-316
3.02465e-316
3.02481e-316
3.02497e-316
3.02513e-316
3.02526e-316
8.63629e-316
8.85012e-316
7.78467e-316
6.71616e-316
5.65087e-316
5.01043e-316
4.37077e-316
3.73151e-316
3.30683e-316
3.30656e-316
3.52098e-316
4.15912e-316
5.43473e-316
-7.35316e-316
1.01225e-315
1.16143e-315
9.27058e-316
5.65013e-316
3.30968e-316
2.24192e-316
1.60713e-316
1.39246e-316
1.38817e-316
1.39218e-316
1.60103e-316
1.81378e-316
2.02767e-316
2.24102e-316
2.45322e-316
2.66427e-316
2.66908e-316
2.87828e-316
2.88107e-316
2.88234e-316
2.88255e-316
2.88267e-316
2.88273e-316
2.88276e-316
2.88274e-316
2.88273e-316
2.8827e-316
2.88268e-316
2.88265e-316
2.88263e-316
2.88261e-316
2.88261e-316
2.88262e-316
2.88264e-316
2.88266e-316
2.88271e-316
2.88276e-316
2.88283e-316
2.88291e-316
2.88301e-316
2.88311e-316
2.88323e-316
2.88335e-316
2.8835e-316
2.88365e-316
2.88382e-316
2.88398e-316
2.88417e-316
3.09037e-316
3.09058e-316
3.09079e-316
3.091e-316
3.09122e-316
3.09142e-316
3.09164e-316
3.09184e-316
3.09205e-316
3.09224e-316
3.09244e-316
3.09262e-316
3.09281e-316
3.09299e-316
3.09316e-316
3.09335e-316
3.09353e-316
3.09368e-316
8.22905e-316
8.83736e-316
8.02548e-316
6.80784e-316
5.7928e-316
5.18209e-316
4.77164e-316
3.96357e-316
3.55775e-316
3.55593e-316
3.7591e-316
4.16791e-316
5.18176e-316
-6.80482e-316
8.83504e-316
1.00526e-315
8.63025e-316
5.58817e-316
3.55744e-316
2.34126e-316
1.73292e-316
1.52519e-316
1.3289e-316
1.33071e-316
1.52847e-316
1.73041e-316
1.93406e-316
2.13763e-316
2.34029e-316
-2.5419e-316
2.74262e-316
2.74647e-316
2.945e-316
2.94575e-316
2.94609e-316
2.94629e-316
2.94643e-316
2.9465e-316
2.94655e-316
2.94656e-316
2.94658e-316
2.94658e-316
2.94658e-316
2.94658e-316
2.94659e-316
2.9466e-316
2.94663e-316
2.94666e-316
2.94672e-316
2.94677e-316
2.94685e-316
2.94693e-316
2.94704e-316
2.94714e-316
2.94728e-316
2.94741e-316
2.94757e-316
2.94772e-316
2.94791e-316
2.94808e-316
2.94828e-316
2.94848e-316
2.9487e-316
2.94891e-316
2.94913e-316
2.94936e-316
2.94957e-316
2.9498e-316
2.95002e-316
2.95024e-316
2.95045e-316
3.14738e-316
3.14759e-316
3.14781e-316
3.14801e-316
3.14821e-316
3.14842e-316
3.14862e-316
3.14882e-316
3.14899e-316
8.41389e-316
8.99601e-316
-8.03364e-316
6.8749e-316
6.09887e-316
5.32653e-316
4.93654e-316
4.35562e-316
3.96751e-316
3.77584e-316
3.96839e-316
4.35668e-316
5.32121e-316
6.48369e-316
8.03114e-316
8.99728e-316
8.02882e-316
5.51763e-316
3.58501e-316
2.42554e-316
1.84363e-316
1.46077e-316
1.45356e-316
1.45379e-316
1.45948e-316
1.65112e-316
1.84485e-316
2.22427e-316
2.41838e-316
2.61139e-316
2.61651e-316
2.80706e-316
2.80874e-316
2.80935e-316
2.80975e-316
2.81004e-316
2.81022e-316
2.81036e-316
2.81044e-316
2.8105e-316
2.81054e-316
2.81057e-316
2.81059e-316
2.81062e-316
2.81064e-316
2.81068e-316
2.81072e-316
2.81078e-316
2.81084e-316
2.81092e-316
2.811e-316
2.81111e-316
2.81121e-316
2.99877e-316
2.99891e-316
2.99908e-316
2.99924e-316
2.99944e-316
2.99963e-316
2.99984e-316
3.00005e-316
3.00029e-316
3.00052e-316
3.00076e-316
3.00101e-316
3.00125e-316
3.00151e-316
3.00175e-316
3.002e-316
3.00224e-316
3.00249e-316
3.00272e-316
3.00295e-316
3.00317e-316
3.1911e-316
3.19133e-316
3.19154e-316
3.19178e-316
3.19198e-316
3.19218e-316
-8.01551e-316
8.75393e-316
7.83943e-316
7.10149e-316
6.1811e-316
5.62706e-316
5.25649e-316
4.88392e-316
4.33217e-316
4.14821e-316
4.33088e-316
4.69993e-316
5.25549e-316
6.36013e-316
7.649e-316
8.20275e-316
7.4646e-316
5.43997e-316
3.7808e-316
2.67422e-316
1.94011e-316
1.57289e-316
1.3907e-316
1.38966e-316
1.56796e-316
1.75068e-316
1.9358e-316
2.12148e-316
2.30663e-316
-2.49085e-316
2.67414e-316
2.67705e-316
2.85662e-316
2.85736e-316
2.85788e-316
2.85823e-316
2.8585e-316
2.85867e-316
2.8588e-316
2.85889e-316
2.85897e-316
2.85902e-316
2.85908e-316
2.85912e-316
2.85918e-316
2.85923e-316
2.8593e-316
2.85937e-316
2.85945e-316
2.85954e-316
2.85966e-316
2.85977e-316
2.85991e-316
2.86005e-316
2.86022e-316
2.86038e-316
2.86057e-316
2.86076e-316
2.86098e-316
2.86119e-316
3.04026e-316
3.04051e-316
3.04077e-316
3.04104e-316
3.04131e-316
3.04159e-316
3.04186e-316
3.04214e-316
3.04241e-316
3.04268e-316
3.04294e-316
3.04321e-316
3.04346e-316
3.04371e-316
3.04395e-316
3.04418e-316
3.2235e-316
3.22373e-316
3.22397e-316
3.22418e-316
-7.63525e-316
-8.51348e-316
7.81805e-316
7.11687e-316
6.41451e-316
5.88723e-316
5.70836e-316
5.18116e-316
4.65437e-316
4.47806e-316
4.47908e-316
4.8295e-316
5.52989e-316
6.40738e-316
7.28573e-316
7.63769e-316
6.93569e-316
5.35636e-316
3.77769e-316
2.72387e-316
2.02325e-316
1.67163e-316
1.49629e-316
1.49419e-316
1.49734e-316
1.6707e-316
1.8466e-316
2.02335e-316
2.36906e-316
2.54526e-316
2.71978e-316
2.72211e-316
2.72329e-316
2.72411e-316
2.72468e-316
2.72509e-316
2.89572e-316
2.89595e-316
2.89612e-316
2.89625e-316
2.89635e-316
2.89644e-316
2.89652e-316
2.89659e-316
2.89666e-316
2.89674e-316
2.89682e-316
2.89691e-316
2.89702e-316
2.89713e-316
2.89726e-316
2.8974e-316
2.89756e-316
2.89772e-316
2.8979e-316
2.8981e-316
2.89831e-316
2.89853e-316
2.89876e-316
2.899e-316
2.89926e-316
2.89952e-316
3.07036e-316
3.07065e-316
3.07095e-316
3.07125e-316
3.07155e-316
3.07185e-316
3.07215e-316
3.07244e-316
3.07274e-316
3.07302e-316
3.07331e-316
9.56224e-316
1.0656e-314
1.34714e-313
1.82261e-312
2.65821e-311
4.20976e-310
7.28966e-309
-7.68162e-307
-8.27516e-316
-8.44216e-316
-7.27927e-316
6.77665e-316
6.27494e-316
-5.94088e-316
-5.76892e-316
-5.10126e-316
-4.93238e-316
-4.93239e-316
-5.10091e-316
-5.60224e-316
-6.27115e-316
-7.10533e-316
7.27354e-316
6.60523e-316
5.26776e-316
3.76553e-316
2.76214e-316
2.09398e-316
1.75777e-316
1.58936e-316
1.42777e-316
1.58869e-316
1.59437e-316
1.76149e-316
-2.09048e-316
2.25919e-316
-2.42699e-316
-2.5927e-316
-2.59452e-316
-2.75801e-316
-2.75894e-316
-2.75959e-316
-2.76007e-316
-2.76041e-316
-2.76067e-316
-2.76087e-316
-2.76102e-316
-2.76115e-316
-2.76125e-316
-2.76135e-316
-2.92388e-316
-2.92397e-316
-8.77221e-316
-2.81045e-315
-1.76269e-314
-1.09097e-313
-6.66975e-313
-4.03601e-312
-2.42539e-311
-1.45242e-310
-8.69998e-310
-5.23339e-309
-3.1757e-308
-1.95313e-307
-1.22371e-306
-7.84911e-306
-5.17834e-305
-3.52684e-304
-2.48633e-303
-1.81639e-302
-1.37525e-301
-1.07822e-300
-8.74346e-300
-7.32533e-299
-6.33593e-298
-5.6572e-297
-5.21694e-296
-4.97613e-295
-4.91972e-294
-5.05819e-293
-5.43082e-292
-6.12375e-291
-7.30204e-290
-9.28539e-289
-1.27099e-287
-1.89088e-286
-3.08342e-285
-6.57139e-253
-8.03938e-316
-8.3578e-316
7.25172e-316
6.93193e-316
6.61235e-316
6.29468e-316
6.28919e-316
5.65275e-316
5.33419e-316
5.33334e-316
5.49288e-316
5.81229e-316
6.44785e-316
6.92575e-316
6.9269e-316
6.29039e-316
5.01811e-316
3.74531e-316
2.79006e-316
2.15319e-316
1.83209e-316
1.51876e-316
1.51551e-316
1.51688e-316
1.67362e-316
1.833e-316
1.99357e-316
2.30809e-316
2.46765e-316
2.47067e-316
3.89425e-315
7.10922e-314
1.023e-312
1.23944e-311
1.30925e-310
1.25749e-309
1.11075e-308
9.14639e-308
7.09322e-307
5.22291e-306
3.6754e-305
2.4855e-304
1.62289e-303
1.02738e-302
6.32905e-302
3.80701e-301
2.24291e-300
1.2981e-299
7.40079e-299
4.16817e-298
2.32534e-297
1.28878e-296
7.11729e-296
3.9301e-295
2.17802e-294
1.21695e-293
6.88996e-293
3.97662e-292
2.35462e-291
1.43997e-290
9.14932e-290
6.06816e-289
4.21145e-288
3.05938e-287
2.32268e-286
1.83793e-285
1.51178e-284
1.28939e-283
1.13886e-282
1.04099e-281
9.85594e-281
9.67947e-280
9.89156e-279
1.05595e-277
1.18459e-276
1.40692e-275
1.78641e-274
2.4539e-273
3.69392e-272
-2.2542e-230
-7.95662e-316
-8.41157e-316
-8.26071e-316
-7.0563e-316
-6.90298e-316
-6.75095e-316
-6.8968e-316
-6.29045e-316
-5.83648e-316
-5.6853e-316
-5.83631e-316
-6.13938e-316
-6.59352e-316
-6.897e-316
-6.74669e-316
-6.14013e-316
-4.92917e-316
-3.7179e-316
-2.80856e-316
-2.20176e-316
-1.89537e-316
-1.59577e-316
-1.59212e-316
-1.5929e-316
-1.59697e-316
1.74836e-316
2.04727e-316
3.21011e-307
4.15245e-305
1.51723e-303
3.36482e-302
5.55668e-301
7.52355e-300
8.77511e-299
9.19666e-298
8.81317e-297
7.84132e-296
6.54995e-295
5.18071e-294
3.9065e-293
2.82391e-292
1.96613e-291
1.32379e-290
8.64972e-290
5.50206e-289
3.41678e-288
2.07693e-287
1.2388e-286
7.26797e-286
4.20417e-285
2.40388e-284
1.36231e-283
7.67625e-283
4.31628e-282
2.43308e-281
1.38249e-280
7.97275e-280
4.70303e-279
2.86231e-278
1.81181e-277
1.20044e-276
8.35195e-276
6.1006e-275
4.66407e-274
3.71516e-273
3.06921e-272
2.61939e-271
2.30379e-270
2.08498e-269
1.94182e-268
1.86224e-267
1.8427e-266
1.88587e-265
2.00398e-264
2.22163e-263
2.58666e-262
3.19156e-261
4.22242e-260
6.08315e-259
-1.87163e-180
3.12015e-242
-8.29724e-316
-8.44126e-316
-7.29525e-316
-7.15023e-316
-7.14907e-316
-7.2892e-316
-6.85478e-316
-6.42162e-316
-6.2768e-316
-6.27714e-316
-6.42201e-316
-6.7104e-316
-6.85499e-316
-6.5677e-316
-5.84701e-316
-4.83687e-316
-3.82577e-316
-2.8185e-316
-2.24053e-316
-1.94841e-316
-1.6622e-316
-1.52012e-316
-1.5204e-316
1.66218e-316
1.80647e-316
4.11805e-292
1.91197e-289
8.2803e-288
1.87662e-286
2.92008e-285
3.58298e-284
3.66826e-283
3.31747e-282
2.70767e-281
2.03343e-280
1.42469e-279
9.40946e-279
5.90564e-278
3.54523e-277
2.0466e-276
1.14131e-275
6.1724e-275
3.24823e-274
1.66829e-273
8.38413e-273
4.13256e-272
2.00197e-271
9.54972e-271
4.49335e-270
2.08876e-269
9.60739e-269
4.37866e-268
1.98022e-267
8.89856e-267
3.97903e-266
1.77299e-265
7.88462e-265
3.50535e-264
1.56114e-263
6.98476e-263
3.15781e-262
1.46894e-261
7.53727e-261
5.30927e-260
6.72224e-259
1.33676e-257
3.15682e-256
7.91339e-255
2.05105e-253
5.4767e-252
1.50804e-250
4.29343e-249
1.26726e-247
3.89021e-246
1.24609e-244
4.17871e-243
1.47349e-241
5.48403e-240
-2.66243e-168
-7.36754e-240
-8.71863e-316
-8.4485e-316
8.44831e-316
-8.4473e-316
-8.31059e-316
-8.1725e-316
-7.4867e-316
-7.0736e-316
-6.79898e-316
-6.79841e-316
-6.79931e-316
-6.93665e-316
-6.93686e-316
-6.52603e-316
-5.83914e-316
-4.8772e-316
-3.77951e-316
-2.95497e-316
-2.27029e-316
1.99194e-316
1.71876e-316
1.58286e-316
1.58281e-316
-1.71782e-316
1.51507e-290
4.27677e-287
2.40522e-285
6.41227e-284
1.11119e-282
1.44492e-281
1.52217e-280
1.38668e-279
1.12398e-278
8.29919e-278
5.67525e-277
3.63745e-276
2.205e-275
1.27322e-274
7.04377e-274
3.75171e-273
1.93199e-272
9.65447e-272
4.69707e-271
2.23137e-270
1.0378e-269
4.73689e-269
2.12647e-268
9.40731e-268
4.10869e-267
1.77454e-266
7.59071e-266
3.22033e-265
1.35685e-264
5.68479e-264
2.37138e-263
9.86064e-263
4.09243e-262
1.69736e-261
7.04547e-261
2.93146e-260
1.22525e-259
5.16142e-259
2.20741e-258
9.80564e-258
4.92423e-257
3.56971e-256
4.74396e-255
9.58382e-254
2.26243e-252
5.66834e-251
1.47411e-249
3.96663e-248
1.10573e-246
3.20132e-245
9.65344e-244
3.0428e-242
1.006e-240
3.50435e-239
-6.75591e-164
-1.47211e-208
-6.082e-290
-8.69421e-316
8.82506e-316
8.82514e-316
8.95521e-316
8.8245e-316
8.17166e-316
7.64825e-316
7.38608e-316
7.25517e-316
7.25495e-316
7.25493e-316
7.12421e-316
6.60232e-316
5.81823e-316
4.77319e-316
3.85703e-316
5.71781e-310
1.22389e-308
1.10075e-308
1.99219e-308
7.32493e-307
4.03233e-302
2.39588e-287
5.2348e-285
3.0923e-283
9.33238e-282
1.80319e-280
2.53658e-279
2.81108e-278
2.63137e-277
2.15488e-276
1.57872e-275
1.06823e-274
6.73141e-274
3.99174e-273
2.24529e-272
1.20546e-271
6.20903e-271
3.0816e-270
1.47928e-269
6.89137e-269
3.12512e-268
1.38339e-267
5.99314e-267
2.54706e-266
1.06431e-265
4.38171e-265
1.78078e-264
7.15748e-264
2.84984e-263
1.12585e-262
4.41944e-262
1.72616e-261
6.71692e-261
2.60717e-260
1.01059e-259
3.91639e-259
1.51913e-258
5.90496e-258
2.3031e-257
9.02708e-257
3.56302e-256
1.42116e-255
5.77669e-255
2.46153e-254
1.22417e-253
9.44893e-253
1.3693e-251
2.87751e-250
6.89278e-249
1.74513e-247
4.59679e-246
1.2575e-244
3.57906e-243
1.06277e-241
3.30482e-240
1.07999e-238
-1.71691e-147
-3.13599e-192
-5.98823e-237
-8.77239e-316
9.14527e-316
-9.26991e-316
-9.51809e-316
-9.51792e-316
-8.89655e-316
-8.27437e-316
-7.90077e-316
-7.65194e-316
-7.52735e-316
-7.40277e-316
-7.15371e-316
-6.5325e-316
-5.78542e-316
-4.79031e-316
1.10185e-300
3.18317e-294
3.49155e-292
2.15729e-290
1.39565e-288
1.06637e-286
8.65225e-285
5.78979e-283
2.65213e-281
8.00382e-280
1.65964e-278
2.52195e-277
2.97659e-276
2.90821e-275
2.4424e-274
1.82068e-273
1.23342e-272
7.68108e-272
4.50129e-271
2.49151e-270
1.31165e-269
6.60404e-269
3.19442e-268
1.4902e-267
6.72686e-267
2.94722e-266
1.25668e-265
5.22836e-265
2.12743e-264
8.48559e-264
3.32482e-263
1.28237e-262
4.87817e-262
1.83371e-261
6.82349e-261
2.51793e-260
9.22865e-260
3.36497e-259
1.22235e-258
4.42991e-258
1.60373e-257
5.80698e-257
2.10546e-256
7.6529e-256
2.7916e-255
1.02314e-254
3.77217e-254
1.40106e-253
5.25287e-253
1.99529e-252
7.75458e-252
3.19853e-251
1.61496e-250
1.39155e-249
2.25679e-248
4.98155e-247
1.22099e-245
3.15061e-244
8.47486e-243
2.37717e-241
6.96966e-240
2.1437e-238
-1.19144e-143
-2.33239e-157
-4.28033e-198
-1.03564e-264
-9.41323e-316
-9.76817e-316
-1.01228e-315
-1.04764e-315
-1.01204e-315
-9.40996e-316
-8.81846e-316
-8.4632e-316
-8.10854e-316
-7.7538e-316
-7.39805e-316
-6.68819e-316
-5.74181e-316
-4.79432e-316
2.2172e-290
2.30123e-288
7.44795e-287
2.07884e-285
6.05203e-284
1.91744e-282
6.31535e-281
1.9489e-279
5.05533e-278
1.03269e-276
1.6376e-275
2.0551e-274
2.1008e-273
1.82954e-272
1.39502e-271
9.55663e-271
5.99927e-270
3.50215e-269
1.92193e-268
9.94274e-268
4.93057e-267
2.34298e-266
1.07123e-265
4.72833e-265
2.02094e-264
8.38625e-264
3.38709e-263
1.33447e-262
5.13993e-262
1.93931e-261
7.18196e-261
2.61552e-260
9.38445e-260
3.32327e-259
1.16363e-258
4.03539e-258
1.38848e-257
4.74755e-257
1.61585e-256
5.48255e-256
1.85733e-255
6.29097e-255
2.13345e-254
7.25315e-254
2.47514e-253
8.48786e-253
2.9284e-252
1.01762e-251
3.56603e-251
1.26197e-250
4.51894e-250
1.64392e-249
6.15023e-249
2.48934e-248
1.32833e-247
1.34677e-246
2.46888e-245
5.73357e-244
1.44637e-242
3.83254e-241
1.06206e-239
3.08248e-238
-3.34721e-142
-1.31349e-150
-2.67796e-188
8.70207e-248
-1.6266e-274
-6.62595e-275
-4.73908e-275
-2.48334e-275
-1.26311e-275
-9.4706e-276
-7.73977e-276
-6.42449e-276
-5.05476e-276
-3.42305e-276
-1.75528e-276
-5.84577e-277
-1.05062e-277
-7.5212e-279
-3.86714e-281
4.7387e-284
9.16111e-283
1.67423e-281
3.18934e-280
6.46755e-279
1.35494e-277
2.74862e-276
5.01501e-275
7.78247e-274
1.00193e-272
1.0678e-271
9.67189e-271
7.59986e-270
5.30822e-269
3.36545e-268
1.96949e-267
1.0775e-266
5.56398e-266
2.73149e-265
1.27559e-264
5.74717e-264
2.49509e-263
1.04701e-262
4.25787e-262
1.68216e-261
6.47017e-261
2.42794e-260
8.90551e-260
3.19883e-259
1.12717e-258
3.90319e-258
1.33044e-257
4.47147e-257
1.48416e-256
4.87314e-256
1.58532e-255
5.11828e-255
1.64249e-254
5.24768e-254
1.67178e-253
5.31899e-253
1.69263e-252
5.39556e-252
1.72528e-251
5.5417e-251
1.7904e-250
5.82556e-250
1.91132e-249
6.33088e-249
2.11967e-248
7.18403e-248
2.46983e-247
8.65319e-247
3.14136e-246
1.27449e-245
7.63031e-245
9.51229e-244
1.95871e-242
4.77982e-241
1.24813e-239
3.42473e-238
-4.76719e-141
-4.39892e-143
-2.76272e-166
-2.39427e-210
-7.43632e-246
-1.21258e-245
-1.44562e-245
-1.37332e-245
-8.6805e-246
-6.61224e-246
-5.10446e-246
-3.75852e-246
-2.46521e-246
-1.31247e-246
-5.02471e-247
-1.18527e-247
-1.36954e-248
-4.08355e-250
-5.22883e-281
2.19872e-280
3.06542e-279
4.20326e-278
6.00624e-277
9.0416e-276
1.40123e-274
2.13334e-273
3.01875e-272
3.79068e-271
4.09958e-270
3.82581e-269
3.09974e-268
2.21823e-267
1.42882e-266
8.4284e-266
4.61847e-265
2.37727e-264
1.15923e-263
5.38972e-263
2.40127e-262
1.02451e-261
4.23745e-261
1.69611e-260
6.58613e-260
2.48633e-259
9.14346e-259
3.28156e-258
1.15142e-257
3.95629e-257
1.33337e-256
4.41452e-256
1.43802e-255
4.61566e-255
1.462e-254
4.57651e-254
1.41791e-253
4.35432e-253
1.32742e-252
4.02299e-252
1.21399e-251
3.65301e-251
1.09783e-250
3.30006e-250
9.93769e-250
3.00249e-249
9.11516e-249
2.78466e-248
8.57285e-248
2.66336e-247
8.3612e-247
2.65594e-246
8.47814e-246
2.76622e-245
9.1784e-245
3.11494e-244
1.1075e-243
4.63279e-243
3.30543e-242
5.08286e-241
1.15321e-239
2.95639e-238
-4.62703e-140
-1.04403e-141
-1.57824e-146
-6.04667e-165
1.06592e-223
-4.13254e-224
-4.36438e-224
-1.06114e-224
-5.12369e-225
-3.22806e-225
-2.04674e-225
-1.19167e-225
-5.90071e-226
-2.26109e-226
-5.91492e-227
-8.79599e-228
-5.06628e-229
-6.04251e-250
3.35367e-278
4.04008e-277
4.45175e-276
4.92465e-275
5.67367e-274
6.84197e-273
8.4721e-272
1.03833e-270
1.20527e-269
1.27033e-268
1.19347e-267
9.87914e-267
7.23828e-266
4.7522e-265
2.83776e-264
1.56364e-263
8.0482e-263
3.90781e-262
1.80351e-261
7.9577e-261
3.37195e-260
1.37711e-259
5.41368e-259
2.07076e-258
7.69217e-258
2.78042e-257
9.79705e-257
3.37083e-256
1.13429e-255
3.73873e-255
1.20884e-254
3.83953e-254
1.19965e-253
3.69231e-253
1.12096e-252
3.36137e-252
9.96909e-252
2.92816e-251
8.52926e-251
2.4672e-250
7.09687e-250
2.03285e-249
5.80685e-249
1.6565e-248
4.72616e-248
1.35061e-247
3.87189e-247
1.11518e-246
3.20862e-246
9.36486e-246
2.75849e-245
8.21232e-245
2.47465e-244
7.56529e-244
2.3481e-243
7.41159e-243
2.38558e-242
7.89491e-242
2.79572e-241
1.28547e-240
1.20956e-239
2.30029e-238
-3.41156e-139
-1.15919e-140
-1.38726e-142
-1.19369e-147
-1.20566e-161
-1.22361e-173
-2.63872e-174
-1.10479e-174
-5.84991e-175
-3.31169e-175
-1.79228e-175
-8.41814e-176
-3.16563e-176
-8.59999e-177
-1.45041e-177
-1.14401e-178
-1.23021e-180
-7.9795e-250
3.90884e-275
3.76097e-274
3.46566e-273
3.24132e-272
3.15269e-271
3.19404e-270
3.31478e-269
3.41864e-268
3.37879e-267
3.08599e-266
2.5609e-265
1.90643e-264
1.27523e-263
7.73248e-263
4.30156e-262
2.22205e-261
1.07733e-260
4.94518e-260
2.16384e-259
9.07326e-259
3.66098e-258
1.42609e-257
5.37768e-257
1.96003e-256
6.97141e-256
2.41509e-255
8.16229e-255
2.69553e-254
8.71075e-254
2.75847e-253
8.57154e-253
2.61704e-252
7.86088e-252
2.32593e-251
6.78768e-251
1.95608e-250
5.57337e-250
1.57199e-249
4.39457e-249
1.21913e-248
3.36037e-248
9.21467e-248
2.51696e-247
6.85728e-247
1.8541e-246
5.04276e-246
1.37352e-245
3.75201e-245
1.02943e-244
2.84292e-244
7.91076e-244
2.22151e-243
6.30604e-243
1.81237e-242
5.28196e-242
1.56348e-241
4.70815e-241