/*--------------------------------*- C++ -*----------------------------------*\
  =========                 |
  \\      /  F ield         | OpenFOAM: The Open Source CFD Toolbox
   \\    /   O peration     | Website:  https://openfoam.org
    \\  /    A nd           | Version:  7
     \\/     M anipulation  |
\*---------------------------------------------------------------------------*/
FoamFile
{
    version     2.0;
    format      ascii;
    class       volScalarField;
    location    "40";
    object      epss;
}
// * * * * * * * * * * * * * * * * * * * * * * * * * * * * * * * * * * * * * //

dimensions      [0 0 0 0 0 0 0];

internalField   nonuniform List<scalar> 
49920
(
0.0158296
0.317789
0.658739
0.592095
0.595625
0.524594
0.570895
0.697962
0.648306
0.565961
0.591108
0.649126
0.602775
0.685609
0.531269
0.0962892
0.00462904
3.69431e-05
0
0
0
0
0
0
0
0
0
0
0
0
0
0
0
0
0
0
0
0
0
0
0
0
0
0
0
0
0
0
0
0
0
0
0
0
0
0
0
0
0
0
0
0
0
0
0
0
0
0
0
0
0
0
0
0
0
0
0
0
0
0
0.0163883
0.0608178
0.197678
0.54508
0.550535
0.408588
0.597787
0.438767
0.580029
0.544232
0.516128
0.56624
0.626849
0.437499
0.140473
0.0332628
0.00358153
2.91651e-06
0
0
0
0
0
0
0
0
0
0
0
0
0
0
0
0
0
0
0
0
0
0
0
0
0
0
0
0
0
0
0
0
0
0
0
0
0
0
0
0
0
0
0
0
0
0
0
0
0
0
0
0
0
0
0
0
0
0
0
0
0
0
0.00701414
0.0100005
0.0414146
0.131147
0.135775
0.0965883
0.140681
0.10359
0.136957
0.406646
0.413842
0.402035
0.263339
0.108882
0.0356694
0.00984877
0.00206609
0.000171436
0
0
0
0
0
0
0
0
0
0
0
0
0
0
0
0
0
0
0
0
0
0
0
0
0
0
0
0
0
0
0
0
0
0
0
0
0
0
0
0
0
0
0
0
0
0
0
0
0
0
0
0
0
0
0
0
0
0
0
0
0
0
0.00252235
0.00112862
0.00947129
0.0290363
0.0328414
0.023389
0.0341714
0.0253458
0.0349739
0.077952
0.0969932
0.0979755
0.0654776
0.0398391
0.00897305
0.00245169
0.000814047
0.000179228
1.2127e-05
0
0
0
0
0
0
0
0
0
0
0
0
0
0
0
0
0
0
0
0
0
0
0
0
0
0
0
0
0
0
0
0
0
0
0
0
0
0
0
0
0
0
0
0
0
0
0
0
0
0
0
0
0
9.62285e-92
3.88681e-91
2.5605e-91
0
0
0
0
1.02599e-77
0.000897321
0
0.00216987
0.006629
0.00871404
0.0060207
0.00823178
0.00624096
0.00874138
0.0116971
0.0281514
0.0229083
0.0134967
0.0072595
0.0023132
0.000666039
0.000301207
0.000132056
2.94422e-05
1.84708e-06
0
0
0
0
0
0
0
0
0
0
0
0
0
0
0
0
0
0
0
0
0
0
0
0
0
0
0
0
0
0
0
0
0
0
0
0
0
0
0
0
0
0
0
0
0
0
0
4.89824e-99
3.47376e-98
2.22089e-98
1.37386e-99
0
0
0
0
1.79744e-90
6.9788e-91
0
1.1186e-79
0
0.000355545
0
0.000458353
0.00142043
0.00232885
0.00169183
0.00202129
0.00174623
0.00244069
0.00142353
0.00576358
0.00389289
0.0023505
0.00111794
0.000587463
0.000232376
0.000128958
8.97744e-05
3.8699e-05
8.93935e-06
5.33628e-07
0
0
0
0
0
0
0
0
0
0
0
0
0
0
0
0
0
0
0
0
0
0
0
0
0
0
0
0
0
0
0
0
0
0
0
0
0
0
0
0
0
0
0
0
0
0
3.20045e-98
7.77414e-98
1.02357e-98
0
8.74335e-84
5.1207e-84
6.55477e-85
0
0
0
0
0
4.79012e-59
0.000172297
7.60915e-06
7.25027e-05
0.000237111
0.000629809
0.000550245
0.000531244
0.000558892
0.000758578
1.60452e-05
0.000877038
0.00047215
0.000204354
4.09646e-06
0.000114137
0.000105668
7.48905e-05
6.41147e-05
4.12085e-05
1.69888e-05
4.01614e-06
2.93856e-07
0
0
0
0
0
0
0
0
0
0
0
0
0
0
0
0
0
0
0
0
0
0
0
0
0
0
0
0
0
0
0
0
0
0
0
0
0
0
0
0
0
0
0
0
4.87037e-99
4.68939e-98
3.07688e-98
0
4.09339e-84
1.75597e-83
9.46134e-84
0
2.36287e-66
2.37036e-65
1.33291e-65
0
0
5.83655e-59
0.000104903
9.07597e-06
0
0
0.000168429
0.00021826
0.000171805
0.000218842
0.000288453
0
0
0
0
0
4.55825e-06
4.8385e-05
5.31216e-05
5.04804e-05
4.06112e-05
2.37767e-05
9.62061e-06
2.50562e-06
2.50593e-07
0
0
0
0
0
0
0
0
0
0
0
0
0
0
0
0
0
0
0
0
0
0
0
0
0
0
0
0
0
0
0
0
0
0
0
0
0
0
0
0
0
0
1.5367e-100
8.16852e-99
2.89169e-98
0
2.65683e-85
7.05115e-84
1.38844e-83
2.81531e-84
0
1.24198e-65
4.4196e-65
0
2.64672e-58
0
0
7.6389e-05
8.73845e-06
0
0
4.21636e-05
0.000104617
8.16096e-05
0.000113114
0.000146804
2.63274e-05
0
0
0
0
0
2.32848e-05
3.80574e-05
4.14177e-05
3.84574e-05
2.83798e-05
1.58957e-05
6.64792e-06
1.86364e-06
2.19073e-07
0
0
0
0
0
0
0
0
0
0
0
0
0
0
0
0
0
0
0
0
0
0
0
0
0
0
0
0
0
0
0
0
0
0
0
0
0
1.69166e-94
1.49768e-94
3.77855e-95
0
0
0
0
0
1.8898e-84
5.49592e-84
5.11392e-84
0
1.36976e-66
2.42912e-65
3.55349e-65
0
0
7.63655e-56
2.50931e-55
6.19107e-05
8.99496e-06
0
0
4.91823e-06
5.6309e-05
5.44961e-05
7.52523e-05
9.79816e-05
4.05852e-05
3.62706e-06
0
0
0
0
9.88598e-06
2.46532e-05
3.25823e-05
3.44839e-05
3.01602e-05
2.11992e-05
1.18443e-05
5.07382e-06
1.50445e-06
2.1596e-07
0
0
0
0
0
0
0
0
0
0
0
0
0
0
0
0
0
0
0
0
0
0
0
0
0
0
0
0
0
0
0
0
0
0
0
8.82429e-96
4.37218e-95
0
0
7.2283e-80
9.21385e-79
6.97766e-79
1.46439e-79
0
0
0
0
0
9.63293e-66
5.33178e-65
3.29639e-65
0
0
0
0
5.28371e-05
9.95963e-06
1.1673e-06
1.13168e-07
0
3.16231e-05
4.10787e-05
5.7096e-05
7.6474e-05
5.21069e-05
1.11608e-05
5.44309e-11
0
0
0
2.44029e-06
1.31011e-05
2.27667e-05
2.8167e-05
2.86047e-05
2.40244e-05
1.65897e-05
9.29583e-06
4.09326e-06
1.30198e-06
2.22971e-07
0
0
0
0
0
0
0
0
0
0
0
0
0
0
0
0
0
0
0
0
0
0
0
0
0
0
0
0
0
0
0
0
9.94865e-98
3.52816e-98
2.30822e-96
0
1.14981e-80
0
1.35048e-79
0
0
0
4.36233e-70
2.31183e-69
1.52313e-69
2.56313e-70
0
0
0
0
0
0
6.08101e-55
4.48133e-54
4.58232e-05
1.11177e-05
4.37339e-06
1.91137e-06
0
1.63165e-05
3.01282e-05
4.44248e-05
6.27396e-05
6.04882e-05
2.17935e-05
2.84924e-06
0
0
0
0
5.20386e-06
1.31317e-05
1.99532e-05
2.3772e-05
2.34348e-05
1.92819e-05
1.32355e-05
7.50704e-06
3.41995e-06
1.15353e-06
2.25505e-07
0
0
0
0
0
0
0
0
0
0
0
0
0
0
0
0
0
0
0
0
0
0
0
0
0
0
0
0
0
0
1.38337e-97
4.16846e-97
2.61123e-97
0
2.67814e-81
2.36977e-80
1.48691e-80
0
1.09008e-72
7.52714e-73
9.26868e-72
0
0
0
0
3.01624e-63
1.66747e-62
2.94623e-62
1.39894e-62
0
4.24511e-57
8.40993e-56
0
3.94843e-05
1.19032e-05
8.30348e-06
5.72181e-06
8.25669e-07
6.4337e-06
2.00462e-05
3.34947e-05
5.08186e-05
6.19938e-05
3.31249e-05
1.04253e-05
1.96226e-06
4.43044e-10
0
0
1.16525e-06
5.604e-06
1.15079e-05
1.67285e-05
1.9503e-05
1.89021e-05
1.54327e-05
1.06402e-05
6.14349e-06
2.88417e-06
1.02815e-06
2.27671e-07
1.15775e-09
0
0
0
0
0
0
0
0
0
0
0
0
0
0
0
0
0
0
0
0
0
0
0
0
0
1.51236e-101
0
1.17648e-98
1.7515e-97
0
0
0
5.98828e-81
2.01583e-80
6.40286e-81
0
2.0047e-72
2.90893e-72
0
1.09574e-65
8.75219e-65
1.42716e-64
2.17911e-64
0
0
0
0
0
0
0
6.05434e-50
3.33263e-05
1.18918e-05
1.14902e-05
1.05122e-05
3.4211e-06
1.51401e-06
1.17171e-05
2.38683e-05
3.94721e-05
5.62793e-05
4.18299e-05
2.10339e-05
7.39314e-06
1.38143e-06
0
0
0
1.34798e-06
4.80855e-06
9.38831e-06
1.34592e-05
1.55365e-05
1.49841e-05
1.22612e-05
8.54605e-06
5.03039e-06
2.44136e-06
9.20092e-07
2.25872e-07
1.2391e-08
0
0
0
0
0
0
0
0
0
0
0
0
0
0
0
0
0
0
0
0
0
1.58902e-113
1.94257e-113
0
0
0
0
0
1.66309e-79
9.62179e-80
0
0
0
0
5.98931e-73
2.02389e-72
2.37662e-72
0
0
3.31622e-65
2.20768e-64
0
2.81993e-47
6.4946e-46
1.28133e-45
5.51314e-46
3.98062e-46
1.43522e-46
7.15894e-48
0
2.73173e-05
1.09612e-05
1.31278e-05
1.47222e-05
7.25491e-06
8.91439e-07
6.08129e-06
1.5941e-05
2.91532e-05
4.62528e-05
4.53177e-05
3.09524e-05
1.51411e-05
4.86287e-06
6.95138e-07
0
0
0
1.12244e-06
3.81558e-06
7.33201e-06
1.04483e-05
1.20542e-05
1.16709e-05
9.64036e-06
6.82405e-06
4.11494e-06
2.06638e-06
8.16982e-07
2.20088e-07
2.15745e-08
0
0
0
0
0
0
0
0
0
0
0
0
0
0
0
0
0
0
0
0
0
0
0
1.87363e-88
2.5548e-88
1.02435e-88
0
0
0
4.30507e-76
4.56323e-76
1.42799e-76
0
0
0
0
3.60606e-65
2.67408e-64
5.51287e-64
4.68397e-64
0
0
0
9.64986e-46
3.9815e-45
1.21927e-45
0
0
0
2.16419e-05
9.3242e-06
1.31845e-05
1.72397e-05
1.12035e-05
2.95701e-06
3.229e-06
1.00175e-05
2.05535e-05
3.53287e-05
4.31041e-05
3.68794e-05
2.28966e-05
1.0124e-05
2.82608e-06
4.16383e-07
3.54867e-07
4.48813e-07
5.63705e-07
1.38497e-06
3.1827e-06
5.62628e-06
7.89984e-06
9.14217e-06
8.94212e-06
7.5001e-06
5.42096e-06
3.35579e-06
1.74075e-06
7.21175e-07
2.11133e-07
2.75651e-08
0
0
0
0
0
0
0
0
0
0
4.05434e-129
5.44815e-129
2.57475e-129
0
3.54587e-109
4.66817e-109
2.13059e-109
0
3.49355e-98
4.37824e-98
1.98806e-98
0
3.59216e-88
0
0
0
2.93488e-78
2.58132e-77
1.93157e-76
0
0
6.15436e-66
4.99225e-65
4.30431e-65
7.72161e-66
0
0
0
0
0
4.41759e-45
1.68271e-44
1.3009e-44
4.094e-45
0
1.63162e-42
3.26014e-42
1.84295e-42
1.65305e-05
7.39691e-06
1.21421e-05
1.78148e-05
1.41044e-05
5.80308e-06
2.45398e-06
6.04142e-06
1.39619e-05
2.56858e-05
3.67853e-05
3.75779e-05
2.83169e-05
1.58391e-05
6.31486e-06
1.89451e-06
1.38873e-06
2.13618e-06
2.49098e-06
2.33112e-06
2.3048e-06
2.99422e-06
4.38498e-06
5.89689e-06
6.82338e-06
6.76704e-06
5.79057e-06
4.28657e-06
2.72748e-06
1.46348e-06
6.32727e-07
1.96233e-07
2.93886e-08
0
0
0
0
0
0
0
0
0
5.9087e-129
8.21051e-129
4.02601e-129
0
5.81889e-109
7.90283e-109
3.73289e-109
0
6.39056e-98
8.39644e-98
2.55577e-98
0
0
6.99988e-81
0
1.42775e-78
0
0
0
1.52822e-59
0
0
0
0
0
1.16443e-51
6.39759e-51
5.11744e-51
8.89918e-52
0
5.93282e-45
2.23318e-44
1.58817e-44
0
1.14042e-42
4.12794e-42
6.85441e-42
0
1.21536e-05
5.59773e-06
1.06264e-05
1.68712e-05
1.53045e-05
8.00458e-06
2.74425e-06
3.64331e-06
9.21507e-06
1.80908e-05
2.88092e-05
3.39426e-05
3.01309e-05
2.03657e-05
1.03956e-05
4.38416e-06
3.06904e-06
4.39269e-06
5.75205e-06
5.81361e-06
4.78313e-06
3.64125e-06
3.20218e-06
3.61423e-06
4.44141e-06
5.07145e-06
5.09371e-06
4.45414e-06
3.38251e-06
2.21486e-06
1.22548e-06
5.46596e-07
1.75733e-07
2.83693e-08
0
0
0
0
0
0
0
0
0
0
0
0
0
0
0
0
0
0
0
0
0
1.489e-80
8.38803e-81
0
1.65198e-66
0
1.90213e-60
0
8.6112e-58
4.4787e-57
4.62039e-57
0
0
1.7053e-51
1.57217e-50
1.13147e-50
1.9098e-51
0
0
0
0
0
0
2.76297e-42
3.00995e-42
0
8.58155e-06
4.19783e-06
9.12795e-06
1.50744e-05
1.48533e-05
8.94533e-06
3.24046e-06
2.31642e-06
5.9227e-06
1.24532e-05
2.11854e-05
2.79424e-05
2.84977e-05
2.25825e-05
1.39835e-05
7.37106e-06
5.16414e-06
6.61183e-06
9.10078e-06
1.03271e-05
9.53605e-06
7.40245e-06
5.15074e-06
3.69442e-06
3.25407e-06
3.47984e-06
3.81888e-06
3.84983e-06
3.43137e-06
2.67066e-06
1.79439e-06
1.01718e-06
4.63938e-07
1.52553e-07
2.53637e-08
0
0
0
0
0
0
0
0
0
0
0
0
0
0
0
0
0
0
0
0
1.34035e-80
1.12676e-80
0
6.72651e-65
0
9.05036e-61
0
7.49727e-58
8.32876e-57
0
1.05566e-48
6.4965e-49
8.34731e-50
0
2.41591e-51
0
4.28536e-41
5.72052e-40
1.71494e-39
2.27509e-39
1.47031e-39
3.97124e-40
9.91151e-42
0
2.94937e-37
5.798e-06
3.27915e-06
7.89128e-06
1.29872e-05
1.32599e-05
8.67198e-06
3.44642e-06
1.58813e-06
3.68327e-06
8.38649e-06
1.49443e-05
2.14758e-05
2.45785e-05
2.23139e-05
1.62165e-05
1.01226e-05
7.27658e-06
8.35709e-06
1.15596e-05
1.42729e-05
1.4786e-05
1.29512e-05
9.78768e-06
6.61696e-06
4.34727e-06
3.21314e-06
2.92082e-06
2.97252e-06
2.95095e-06
2.65776e-06
2.10907e-06
1.44686e-06
8.3575e-07
3.86758e-07
1.27889e-07
2.07877e-08
0
0
0
0
0
0
0
0
0
0
0
0
0
0
0
0
0
0
0
5.74252e-81
5.54606e-81
0
3.22564e-64
0
0
1.43449e-58
3.38988e-57
8.89605e-57
0
1.21974e-48
0
0
0
0
0
1.95314e-40
9.48004e-40
9.79116e-40
3.09303e-40
4.32505e-42
0
0
0
3.37048e-36
3.73604e-06
2.78013e-06
6.94495e-06
1.09367e-05
1.1111e-05
7.5538e-06
3.21313e-06
1.12275e-06
2.18705e-06
5.52015e-06
1.03115e-05
1.57828e-05
1.98109e-05
2.01949e-05
1.68157e-05
1.20473e-05
9.00828e-06
9.40815e-06
1.26312e-05
1.64842e-05
1.87465e-05
1.8346e-05
1.5599e-05
1.16877e-05
7.8943e-06
5.05257e-06
3.38637e-06
2.6561e-06
2.42851e-06
2.31022e-06
2.07204e-06
1.66356e-06
1.15901e-06
6.78077e-07
3.15213e-07
1.02844e-07
1.5536e-08
0
0
0
0
0
0
0
0
0
0
0
0
0
0
0
0
0
0
0
5.03013e-82
0
1.70284e-63
1.99375e-63
0
1.47713e-58
0
9.76064e-58
0
0
4.00053e-47
9.14012e-46
1.91339e-45
1.03026e-45
0
0
0
3.39189e-39
9.22601e-39
7.18933e-39
2.18972e-39
9.00975e-41
0
6.74291e-36
2.30809e-06
2.57269e-06
6.19809e-06
9.04486e-06
8.83899e-06
6.00558e-06
2.61802e-06
7.47882e-07
1.23163e-06
3.59484e-06
7.12531e-06
1.14159e-05
1.53576e-05
1.72201e-05
1.60858e-05
1.29386e-05
1.01369e-05
9.77957e-06
1.23441e-05
1.6536e-05
2.02472e-05
2.17871e-05
2.06097e-05
1.72927e-05
1.30087e-05
8.90909e-06
5.72573e-06
3.67423e-06
2.58063e-06
2.09057e-06
1.85227e-06
1.62406e-06
1.30654e-06
9.18731e-07
5.40731e-07
2.5004e-07
7.92347e-08
1.06012e-08
0
0
0
0
0
0
0
0
0
0
0
0
0
0
0
0
0
0
0
0
0
0
0
0
1.75849e-56
1.95938e-56
0
0
1.49255e-47
0
0
0
0
1.65235e-39
8.6346e-39
1.80505e-38
2.99194e-39
0
0
0
7.02397e-37
1.10105e-35
1.41741e-06
2.52346e-06
5.53338e-06
7.32285e-06
6.68812e-06
4.36078e-06
1.84211e-06
4.28617e-07
7.03351e-07
2.44951e-06
5.14334e-06
8.46868e-06
1.18918e-05
1.43033e-05
1.46497e-05
1.29735e-05
1.06791e-05
9.67853e-06
1.11351e-05
1.47588e-05
1.90632e-05
2.22629e-05
2.31588e-05
2.15449e-05
1.80686e-05
1.3776e-05
9.64724e-06
6.31391e-06
3.99914e-06
2.60959e-06
1.88204e-06
1.51725e-06
1.27363e-06
1.01555e-06
7.16429e-07
4.21851e-07
1.92682e-07
5.869e-08
6.67845e-09
0
0
0
0
0
0
0
0
0
0
0
0
0
0
0
0
0
0
0
1.03277e-62
1.60256e-62
1.73215e-63
0
0
0
0
0
0
3.89745e-36
4.08237e-36
1.4938e-36
8.85859e-38
0
0
0
0
7.57089e-33
5.29843e-33
5.51952e-34
0
0
9.56536e-07
2.52303e-06
4.86268e-06
5.75306e-06
4.7792e-06
2.85241e-06
1.08547e-06
2.18207e-07
5.51691e-07
1.97907e-06
4.15718e-06
6.80581e-06
9.64042e-06
1.20331e-05
1.31313e-05
1.25305e-05
1.08209e-05
9.3951e-06
9.61703e-06
1.19839e-05
1.58519e-05
1.98293e-05
2.25008e-05
2.30284e-05
2.13671e-05
1.81014e-05
1.40919e-05
1.01412e-05
6.79817e-06
4.31227e-06
2.68315e-06
1.74572e-06
1.25943e-06
9.90114e-07
7.73864e-07
5.45482e-07
3.20568e-07
1.44347e-07
4.24102e-08
4.28074e-09
0
0
0
0
0
0
0
0
0
0
0
0
0
0
0
0
0
7.20802e-64
3.41434e-62
3.24443e-62
3.65601e-63
0
3.43967e-54
4.33043e-54
1.71577e-54
0
2.15125e-36
1.16916e-35
1.12119e-35
1.60593e-36
0
0
9.18699e-32
2.87585e-31
2.91901e-31
1.3386e-31
1.85542e-32
0
0
0
8.05811e-07
2.49207e-06
4.14502e-06
4.33199e-06
3.17655e-06
1.63262e-06
5.19759e-07
2.04896e-07
7.60862e-07
2.0963e-06
3.98958e-06
6.19981e-06
8.52649e-06
1.06303e-05
1.19442e-05
1.19734e-05
1.07813e-05
9.17051e-06
8.32662e-06
9.15562e-06
1.17716e-05
1.54463e-05
1.89935e-05
2.13128e-05
2.17903e-05
2.04131e-05
1.76296e-05
1.40968e-05
1.04529e-05
7.18591e-06
4.5884e-06
2.76119e-06
1.64044e-06
1.04551e-06
7.51428e-07
5.69702e-07
4.01493e-07
2.3638e-07
1.0579e-07
3.06463e-08
2.9534e-09
0
0
0
0
0
0
0
0
0
0
0
0
0
0
0
0
7.22149e-63
4.38663e-62
2.83189e-62
0
3.22314e-54
1.26331e-53
1.09962e-53
2.23495e-54
0
5.0102e-36
1.4109e-35
3.99327e-36
0
3.2291e-31
1.37719e-30
2.39819e-30
1.88094e-30
8.07145e-31
1.52706e-31
2.03962e-34
0
0
0
8.4034e-07
2.37987e-06
3.38267e-06
3.07998e-06
1.92184e-06
7.917e-07
2.63998e-07
4.6582e-07
1.31797e-06
2.70336e-06
4.45937e-06
6.38368e-06
8.30269e-06
1.00254e-05
1.12288e-05
1.15138e-05
1.06985e-05
9.10529e-06
7.54976e-06
6.97854e-06
7.9829e-06
1.04957e-05
1.38358e-05
1.70335e-05
1.92227e-05
1.99105e-05
1.90418e-05
1.68985e-05
1.39372e-05
1.06534e-05
7.49569e-06
4.81377e-06
2.81548e-06
1.53672e-06
8.52095e-07
5.42627e-07
3.95626e-07
2.8159e-07
1.67986e-07
7.51338e-08
2.11694e-08
1.64281e-09
0
0
0
0
0
0
0
0
0
0
0
0
0
0
0
7.56207e-63
0
0
0
5.11175e-54
1.63207e-53
1.06581e-53
0
1.55576e-37
4.79949e-36
7.83746e-36
0
9.37791e-32
1.43752e-30
3.9943e-30
4.76525e-30
2.47736e-30
4.15644e-31
0
0
2.21114e-27
2.55753e-27
6.36284e-28
9.44337e-07
2.16393e-06
2.6097e-06
2.0342e-06
1.04212e-06
3.6877e-07
3.74004e-07
1.0335e-06
2.18238e-06
3.67167e-06
5.35648e-06
7.06454e-06
8.64122e-06
9.9701e-06
1.08977e-05
1.1179e-05
1.05865e-05
9.14338e-06
7.27814e-06
5.73321e-06
5.25115e-06
6.22465e-06
8.51786e-06
1.1542e-05
1.45206e-05
1.67595e-05
1.78213e-05
1.757e-05
1.6116e-05
1.37336e-05
1.07985e-05
7.73996e-06
4.97678e-06
2.82523e-06
1.41436e-06
6.64468e-07
3.55282e-07
2.47253e-07
1.8221e-07
1.11768e-07
4.99593e-08
1.35714e-08
8.28397e-10
0
0
0
0
0
0
0
0
0
0
0
0
0
0
0
5.05021e-52
7.01976e-52
3.49998e-52
5.62843e-53
0
0
0
4.19315e-37
1.34707e-36
1.24267e-36
0
3.46457e-31
1.80772e-30
2.08528e-30
4.45667e-31
0
0
1.35993e-26
3.48554e-26
1.51732e-26
1.71531e-27
0
1.02681e-06
1.85072e-06
1.88029e-06
1.23672e-06
5.47292e-07
3.57294e-07
8.40491e-07
1.87755e-06
3.26468e-06
4.83236e-06
6.43796e-06
7.93367e-06
9.19101e-06
1.01388e-05
1.07295e-05
1.0859e-05
1.03594e-05
9.1241e-06
7.28615e-06
5.29283e-06
3.78797e-06
3.35412e-06
4.2516e-06
6.32687e-06
9.10657e-06
1.19755e-05
1.43603e-05
1.58488e-05
1.62186e-05
1.54189e-05
1.35596e-05
1.09178e-05
7.92119e-06
5.06626e-06
2.77591e-06
1.26157e-06
4.75446e-07
1.86095e-07
1.22936e-07
1.04267e-07
7.07171e-08
3.31459e-08
9.19462e-09
5.91247e-10
0
0
0
0
0
0
0
0
0
0
0
0
0
0
0
0
0
0
0
0
9.73581e-39
6.5357e-39
0
0
2.41179e-32
2.91968e-31
0
0
0
2.40321e-25
4.91485e-25
5.39826e-25
3.56245e-25
1.19757e-25
9.49263e-27
0
1.03283e-06
1.47436e-06
1.25767e-06
7.22803e-07
4.25e-07
7.0867e-07
1.59349e-06
2.90226e-06
4.42244e-06
5.98197e-06
7.44468e-06
8.68952e-06
9.62299e-06
1.02104e-05
1.04659e-05
1.03861e-05
9.89272e-06
8.86542e-06
7.26886e-06
5.28493e-06
3.33699e-06
1.96802e-06
1.63552e-06
2.49994e-06
4.4025e-06
6.97257e-06
9.74895e-06
1.22775e-05
1.41655e-05
1.50997e-05
1.48731e-05
1.34471e-05
1.10197e-05
8.03406e-06
5.0723e-06
2.65896e-06
1.07336e-06
2.85756e-07
4.50848e-08
3.44486e-08
5.54265e-08
4.6915e-08
2.36527e-08
6.65568e-09
3.69423e-10
0
0
0
5.80007e-19
1.12173e-18
6.32959e-19
1.14642e-19
0
0
0
0
0
0
0
0
1.9879e-47
2.58291e-47
1.00889e-47
0
9.54777e-41
0
8.16967e-34
4.87509e-33
3.30816e-32
0
3.0946e-26
1.81022e-25
5.41233e-25
2.84652e-25
0
0
0
7.91771e-26
6.97863e-26
7.57234e-29
9.47616e-07
1.09034e-06
8.02532e-07
5.09712e-07
6.35155e-07
1.33534e-06
2.51233e-06
3.95922e-06
5.47537e-06
6.90547e-06
8.13405e-06
9.07448e-06
9.67401e-06
9.93082e-06
9.89234e-06
9.61189e-06
9.08699e-06
8.23885e-06
6.97303e-06
5.29619e-06
3.40555e-06
1.67589e-06
5.87693e-07
4.69096e-07
1.3274e-06
3.0045e-06
5.30259e-06
7.94853e-06
1.05908e-05
1.28296e-05
1.42505e-05
1.4497e-05
1.33992e-05
1.10979e-05
8.06913e-06
4.98694e-06
2.47028e-06
8.56492e-07
1.19778e-07
0
1.79013e-08
3.98978e-08
3.39381e-08
1.6606e-08
4.3131e-09
1.11866e-10
0
0
0
1.14605e-18
1.12086e-18
3.63133e-19
1.74953e-20
0
0
0
0
3.32373e-52
3.12834e-53
0
1.82755e-47
2.15817e-47
0
6.00674e-38
5.26059e-39
0
1.83227e-34
5.19145e-33
0
1.57583e-26
7.67691e-28
0
1.7566e-25
1.12007e-24
5.52132e-24
7.12908e-24
3.79885e-24
6.43281e-25
0
0
7.9397e-07
7.64221e-07
5.60495e-07
5.86717e-07
1.10555e-06
2.1157e-06
3.44182e-06
4.87291e-06
6.23702e-06
7.41294e-06
8.32107e-06
8.91624e-06
9.18683e-06
9.15861e-06
8.89308e-06
8.46415e-06
7.91336e-06
7.21293e-06
6.27661e-06
5.0316e-06
3.51146e-06
1.90219e-06
5.58996e-07
9.67632e-09
7.33474e-08
7.24755e-07
2.04756e-06
4.04274e-06
6.55816e-06
9.29861e-06
1.18399e-05
1.36649e-05
1.42793e-05
1.34014e-05
1.11379e-05
8.01472e-06
4.80387e-06
2.22105e-06
6.51146e-07
3.75374e-08
0
1.8527e-08
3.12932e-08
2.44041e-08
1.10509e-08
2.45702e-09
2.84956e-12
0
0
0
4.57101e-19
3.03269e-19
6.1017e-20
0
0
0
0
0
0
0
0
0
0
8.27749e-38
0
5.90278e-33
1.14788e-32
5.18559e-33
0
0
1.84768e-25
1.46664e-24
0
0
5.87394e-26
4.48975e-24
4.37799e-24
1.97564e-24
7.58912e-25
9.08336e-26
6.20027e-07
5.56741e-07
5.49904e-07
9.07744e-07
1.7316e-06
2.90442e-06
4.21562e-06
5.4754e-06
6.55512e-06
7.38021e-06
7.91611e-06
8.1602e-06
8.13581e-06
7.88738e-06
7.47677e-06
6.97373e-06
6.43237e-06
5.86046e-06
5.20593e-06
4.38542e-06
3.34881e-06
2.13929e-06
9.46741e-07
2.11159e-07
0
0
3.86255e-07
1.39043e-06
3.125e-06
5.53277e-06
8.36394e-06
1.11629e-05
1.33124e-05
1.41925e-05
1.34304e-05
1.11204e-05
7.85823e-06
4.5326e-06
1.95543e-06
4.94931e-07
7.90428e-09
0
1.5565e-08
2.3468e-08
1.70542e-08
6.94433e-09
1.20276e-09
0
0
0
0
7.09178e-20
3.46949e-20
3.9956e-21
0
0
0
0
0
8.19476e-38
5.90958e-38
8.18165e-39
1.43612e-39
4.20204e-38
0
1.84714e-32
1.29845e-32
0
4.42975e-27
1.20557e-28
0
3.29447e-24
1.673e-23
2.6948e-23
2.21723e-23
0
0
0
1.22152e-24
1.29051e-24
4.84886e-07
5.08745e-07
7.52627e-07
1.38991e-06
2.38381e-06
3.55065e-06
4.68588e-06
5.64391e-06
6.35006e-06
6.78109e-06
6.94703e-06
6.88053e-06
6.62787e-06
6.24054e-06
5.77098e-06
5.27114e-06
4.78595e-06
4.33688e-06
3.90426e-06
3.42806e-06
2.8382e-06
2.10079e-06
1.27008e-06
5.74924e-07
1.6622e-07
0
0
1.98329e-07
9.5328e-07
2.48204e-06
4.81281e-06
7.73267e-06
1.07506e-05
1.31527e-05
1.42036e-05
1.34578e-05
1.10231e-05
7.59842e-06
4.20295e-06
1.68897e-06
3.68668e-07
0
0
1.18892e-08
1.69666e-08
1.14698e-08
4.08171e-09
4.52512e-10
0
0
0
2.4091e-21
5.61321e-21
1.77392e-21
7.42223e-23
0
0
0
0
0
4.9205e-38
1.4126e-38
2.27965e-39
7.19375e-39
0
1.92785e-32
0
7.08403e-28
2.35642e-27
0
1.29484e-24
2.18678e-24
3.41302e-24
4.77812e-23
1.20555e-22
1.74921e-22
2.05408e-22
1.00566e-22
0
0
4.40081e-07
6.28838e-07
1.11116e-06
1.92088e-06
2.92491e-06
3.92384e-06
4.75474e-06
5.33263e-06
5.63986e-06
5.69965e-06
5.5562e-06
5.26314e-06
4.87443e-06
4.43689e-06
3.98731e-06
3.55533e-06
3.16679e-06
2.84023e-06
2.57493e-06
2.34062e-06
2.08235e-06
1.74383e-06
1.30062e-06
8.12135e-07
3.95682e-07
1.26693e-07
0
0
8.83083e-08
6.71356e-07
2.05065e-06
4.33632e-06
7.34809e-06
1.05557e-05
1.31468e-05
1.42772e-05
1.34496e-05
1.0825e-05
7.23548e-06
3.80925e-06
1.40427e-06
2.48552e-07
0
0
8.49983e-09
1.14629e-08
7.13362e-09
2.14776e-09
1.16069e-10
0
0
0
0
0
0
0
0
0
0
0
0
2.83823e-39
5.36121e-40
0
2.01845e-34
0
1.38375e-27
0
1.4214e-28
0
2.16766e-24
1.46715e-23
3.27683e-23
3.09089e-23
3.94429e-23
3.77187e-23
4.15548e-23
2.33067e-22
2.4842e-22
9.84007e-23
5.13731e-07
8.87238e-07
1.53476e-06
2.37626e-06
3.23512e-06
3.94197e-06
4.39973e-06
4.58923e-06
4.54276e-06
4.31594e-06
3.96997e-06
3.56198e-06
3.13901e-06
2.734e-06
2.36559e-06
2.04294e-06
1.77284e-06
1.56338e-06
1.41961e-06
1.33299e-06
1.27394e-06
1.19597e-06
1.04972e-06
8.08787e-07
5.19171e-07
2.61517e-07
8.62934e-08
6.01905e-11
0
2.70717e-08
4.95794e-07
1.77481e-06
4.04915e-06
7.16386e-06
1.05392e-05
1.32561e-05
1.4369e-05
1.33613e-05
1.04895e-05
6.73868e-06
3.33118e-06
1.09507e-06
1.34323e-07
0
0
5.99732e-09
7.44686e-09
4.07894e-09
9.73085e-10
8.73634e-12
0
0
0
1.85849e-20
2.08643e-20
7.06679e-21
3.33053e-22
0
0
0
0
0
0
6.97422e-36
0
2.39688e-30
0
4.39506e-26
0
0
4.75573e-26
2.17297e-23
1.60052e-22
5.97214e-23
0
0
0
0
0
6.64999e-23
7.00566e-07
1.21856e-06
1.91539e-06
2.64462e-06
3.23958e-06
3.59384e-06
3.68436e-06
3.54921e-06
3.25379e-06
2.86642e-06
2.44621e-06
2.03824e-06
1.67214e-06
1.36232e-06
1.11052e-06
9.10975e-07
7.5732e-07
6.47915e-07
5.85902e-07
5.72998e-07
6.0066e-07
6.44274e-07
6.63597e-07
6.11632e-07
4.82106e-07
3.15437e-07
1.62605e-07
5.512e-08
3.22495e-09
0
0
3.91484e-07
1.61324e-06
3.91317e-06
7.14629e-06
1.06642e-05
1.34307e-05
1.44133e-05
1.31202e-05
9.95535e-06
6.07552e-06
2.7699e-06
7.74841e-07
4.04615e-08
0
1.64129e-09
6.08015e-09
5.14291e-09
2.09294e-09
2.94835e-10
0
0
0
0
2.69645e-20
1.82154e-20
3.20358e-21
0
0
0
0
0
8.03921e-37
1.0728e-35
0
1.1147e-29
0
0
7.36338e-25
0
0
0
1.24499e-22
8.96859e-22
4.49812e-21
1.36748e-20
2.11691e-20
1.24582e-20
2.32141e-21
0
9.60107e-07
1.53466e-06
2.15164e-06
2.65453e-06
2.92935e-06
2.94645e-06
2.74721e-06
2.40628e-06
1.99946e-06
1.5876e-06
1.21221e-06
8.9664e-07
6.49007e-07
4.65807e-07
3.36144e-07
2.46586e-07
1.85808e-07
1.47625e-07
1.3137e-07
1.40126e-07
1.7718e-07
2.38758e-07
3.06801e-07
3.47517e-07
3.35327e-07
2.72129e-07
1.8238e-07
9.60167e-08
3.40619e-08
4.82398e-09
0
0
3.40655e-07
1.54116e-06
3.9031e-06
7.2644e-06
1.08812e-05
1.35927e-05
1.43106e-05
1.26332e-05
9.16579e-06
5.23878e-06
2.14858e-06
4.72609e-07
4.15304e-10
0
3.16861e-09
4.66809e-09
3.06464e-09
9.53623e-10
5.5834e-11
0
0
0
0
1.36403e-20
4.94656e-21
2.15037e-22
0
0
0
0
0
6.72028e-36
0
1.03852e-29
5.06324e-30
0
1.20421e-25
6.33993e-24
1.44444e-23
0
0
3.20149e-21
1.60974e-20
3.67762e-20
2.70024e-20
1.89226e-20
1.06221e-20
2.901e-21
1.22487e-06
1.74596e-06
2.17478e-06
2.39492e-06
2.36742e-06
2.13181e-06
1.76957e-06
1.36468e-06
9.81094e-07
6.57035e-07
4.08298e-07
2.34249e-07
1.23723e-07
6.0308e-08
2.71879e-08
1.12421e-08
4.15403e-09
1.46821e-09
1.01469e-09
2.9688e-09
1.26693e-08
3.85928e-08
8.27758e-08
1.33236e-07
1.68801e-07
1.73434e-07
1.46308e-07
1.00415e-07
5.3701e-08
1.99837e-08
4.31083e-09
0
0
3.20785e-07
1.54213e-06
3.99698e-06
7.47558e-06
1.11128e-05
1.36308e-05
1.39426e-05
1.18136e-05
8.09425e-06
4.25693e-06
1.51426e-06
2.32013e-07
0
0
2.11187e-09
2.69163e-09
1.5219e-09
3.79502e-10
6.17129e-12
0
0
0
2.91485e-21
2.58924e-21
4.44801e-22
0
0
0
0
0
1.49151e-36
0
4.06183e-30
3.36383e-30
0
0
4.42093e-23
2.35387e-22
3.25166e-22
2.33582e-22
5.27208e-21
2.5093e-20
2.93193e-20
1.86706e-20
3.20032e-20
2.52845e-20
4.62418e-21
1.41811e-06
1.78645e-06
1.96928e-06
1.92078e-06
1.67454e-06
1.31362e-06
9.27946e-07
5.85438e-07
3.22543e-07
1.47684e-07
5.0066e-08
8.42351e-09
0
0
0
0
0
0
0
0
0
0
4.01938e-09
2.32727e-08
5.20688e-08
7.64617e-08
8.48731e-08
7.471e-08
5.24677e-08
2.85556e-08
1.12198e-08
2.61306e-09
0
0
3.26334e-07
1.60329e-06
4.16393e-06
7.71495e-06
1.12532e-05
1.34161e-05
1.31977e-05
1.06115e-05
6.76804e-06
3.19996e-06
9.33477e-07
6.35295e-08
0
0
1.65592e-09
1.71468e-09
7.47457e-10
1.10656e-10
0
0
0
0
4.55912e-22
2.02739e-22
1.8397e-23
0
0
0
0
0
2.17748e-32
4.76457e-31
0
0
0
1.02937e-22
5.82505e-22
9.55611e-22
9.42065e-22
5.35969e-21
1.58265e-20
0
8.16217e-20
1.45287e-19
6.72547e-20
0
1.47712e-06
1.63468e-06
1.57935e-06
1.33937e-06
9.9605e-07
6.41377e-07
3.45453e-07
1.43328e-07
3.62372e-08
1.21894e-09
0
0
0
0
0
0
0
0
1.48244e-11
0
0
0
0
0
5.14293e-09
1.81789e-08
3.21275e-08
3.90942e-08
3.61685e-08
2.62171e-08
1.47586e-08
6.16053e-09
1.62708e-09
0
0
3.52834e-07
1.70749e-06
4.35918e-06
7.89687e-06
1.11812e-05
1.28264e-05
1.20064e-05
9.04796e-06
5.27992e-06
2.17314e-06
4.66283e-07
2.16879e-10
0
9.3128e-10
1.49756e-09
1.0042e-09
3.04314e-10
1.53481e-11
0
0
0
0
2.46824e-23
7.95446e-24
3.11733e-25
0
0
0
0
9.85215e-32
0
1.32053e-28
2.28976e-28
0
1.4574e-22
6.7615e-22
8.90309e-22
7.58193e-22
1.26288e-21
0
1.41391e-19
7.7489e-19
5.40202e-19
6.27607e-20
0
1.37471e-06
1.3224e-06
1.09697e-06
7.78039e-07
4.58162e-07
2.0758e-07
5.83391e-08
3.24282e-09
0
0
0
0
1.50798e-12
7.38515e-12
1.96324e-11
4.02013e-11
6.9038e-11
1.05652e-10
1.51744e-10
2.10568e-10
2.6993e-10
3.0383e-10
1.58366e-10
0
0
3.39805e-10
5.41874e-09
1.24045e-08
1.69151e-08
1.67933e-08
1.29538e-08
7.93861e-09
3.84823e-09
1.33524e-09
0
0
3.94377e-07
1.831e-06
4.52524e-06
7.92405e-06
1.07821e-05
1.17827e-05
1.03809e-05
7.23069e-06
3.77835e-06
1.29129e-06
1.67628e-07
0
0
6.66473e-10
8.33141e-10
4.41174e-10
9.21769e-11
1.04694e-14
0
0
0
0
8.60429e-25
1.9909e-25
1.17716e-27
0
0
0
1.06857e-31
0
7.16088e-27
2.54454e-27
0
1.43506e-22
2.33664e-22
1.12707e-22
0
0
1.62458e-18
4.17242e-18
2.88335e-18
6.79494e-19
0
7.88648e-10
1.13033e-06
9.25533e-07
6.31995e-07
3.4344e-07
1.30774e-07
2.22593e-08
0
0
0
0
1.9929e-12
7.08393e-12
1.87663e-11
4.24358e-11
8.36236e-11
1.4469e-10
2.23745e-10
3.18662e-10
4.3395e-10
5.82803e-10
7.78545e-10
9.89528e-10
1.1491e-09
1.04275e-09
5.64006e-10
0
0
1.26225e-09
4.30619e-09
7.19929e-09
8.21242e-09
7.2532e-09
5.34183e-09
3.36235e-09
1.57528e-09
0
0
4.42445e-07
1.94221e-06
4.59548e-06
7.70341e-06
9.98056e-06
1.02903e-05
8.43434e-06
5.34451e-06
2.43394e-06
6.36521e-07
2.13099e-08
0
0
5.40995e-10
4.85583e-10
1.79518e-10
1.72591e-11
0
0
0
0
0
2.71106e-26
4.92386e-27
0
0
0
6.03758e-32
0
1.82231e-26
0
1.47622e-24
4.16652e-23
5.38798e-25
0
9.62567e-18
2.92495e-17
3.48255e-17
2.00211e-17
4.91283e-18
0
4.86307e-11
4.36056e-09
8.04724e-07
5.37854e-07
2.74945e-07
8.95276e-08
8.28756e-09
0
0
0
1.22186e-12
5.6431e-12
1.53766e-11
3.3597e-11
6.62008e-11
1.21687e-10
2.0817e-10
3.29181e-10
4.82231e-10
6.62864e-10
8.73146e-10
1.12856e-09
1.45846e-09
1.8748e-09
2.33955e-09
2.69363e-09
2.73565e-09
2.20194e-09
1.21059e-09
1.38548e-10
4.76039e-10
2.34802e-09
4.44487e-09
5.66172e-09
5.84938e-09
5.31456e-09
4.1195e-09
2.22487e-09
0
0
4.90126e-07
2.00771e-06
4.50742e-06
7.17532e-06
8.77839e-06
8.45656e-06
6.36902e-06
3.60483e-06
1.37256e-06
2.37172e-07
0
0
2.6458e-10
3.75332e-10
2.18291e-10
5.18007e-11
4.38798e-13
0
0
0
0
0
7.63543e-28
1.12348e-28
0
0
1.52963e-32
0
1.73798e-26
7.40884e-26
2.19359e-24
6.19697e-26
0
2.80568e-17
8.8434e-17
1.27058e-16
9.77154e-17
3.72814e-17
3.28247e-18
0
1.81321e-09
1.20231e-08
4.77722e-07
2.37333e-07
6.94785e-08
3.48003e-09
0
0
9.40692e-14
2.52736e-12
9.40322e-12
2.38396e-11
4.93186e-11
9.07187e-11
1.55594e-10
2.54083e-10
3.95928e-10
5.8599e-10
8.21602e-10
1.09523e-09
1.40337e-09
1.75707e-09
2.1889e-09
2.74065e-09
3.42737e-09
4.19901e-09
4.86807e-09
5.13371e-09
4.72307e-09
3.60472e-09
2.70453e-09
2.85469e-09
3.89559e-09
5.16246e-09
6.20274e-09
6.87149e-09
6.90596e-09
5.72648e-09
3.11849e-09
0
7.37737e-10
5.28325e-07
1.99471e-06
4.22246e-06
6.34116e-06
7.26756e-06
6.47661e-06
4.42063e-06
2.18009e-06
6.51452e-07
4.91371e-08
0
0
2.03292e-10
2.19126e-10
9.1435e-11
1.07951e-11
0
0
0
0
0
0
1.57165e-29
2.00335e-30
0
0
0
1.66429e-26
1.85159e-25
5.80405e-25
0
1.85307e-17
1.04226e-16
2.16035e-16
2.33396e-16
1.3665e-16
3.61306e-17
0
5.49944e-10
7.16237e-09
2.38639e-08
2.18083e-07
6.20452e-08
2.26118e-09
0
0
6.39806e-13
3.99525e-12
1.26628e-11
3.0403e-11
6.15902e-11
1.10754e-10
1.83149e-10
2.85969e-10
4.28642e-10
6.20689e-10
8.67471e-10
1.16655e-09
1.50845e-09
1.88362e-09
2.29486e-09
2.76837e-09
3.35482e-09
4.11176e-09
5.06617e-09
6.14359e-09
7.14393e-09
7.72597e-09
7.60785e-09
6.96965e-09
6.36374e-09
6.19066e-09
6.51608e-09
7.24196e-09
8.24466e-09
9.24451e-09
9.43415e-09
7.90687e-09
3.38988e-09
0
1.66003e-08
5.43017e-07
1.88281e-06
3.74269e-06
5.26982e-06
5.61221e-06
4.57526e-06
2.7813e-06
1.1519e-06
2.36557e-07
0
0
1.08622e-10
1.74861e-10
1.08624e-10
2.72787e-11
3.52032e-13
0
0
0
0
0
0
2.61429e-31
1.37011e-32
0
0
1.64044e-26
1.00768e-25
0
2.42723e-18
6.04816e-17
1.82605e-16
2.72222e-16
2.07094e-16
7.81225e-17
6.9983e-18
0
3.99356e-09
1.78026e-08
3.8238e-08
6.13916e-08
2.57967e-09
0
0
1.20244e-12
5.63114e-12
1.58101e-11
3.54024e-11
6.9091e-11
1.21771e-10
1.9768e-10
3.00569e-10
4.34998e-10
6.07393e-10
8.25073e-10
1.09283e-09
1.40892e-09
1.76409e-09
2.14587e-09
2.54952e-09
2.9904e-09
3.51336e-09
4.18902e-09
5.08919e-09
6.24065e-09
7.56872e-09
8.85345e-09
9.77685e-09
1.00864e-08
9.82558e-09
9.30688e-09
8.91121e-09
8.94553e-09
9.59134e-09
1.08334e-08
1.21629e-08
1.23789e-08
9.78585e-09
2.47439e-09
0
2.97082e-08
5.24325e-07
1.67357e-06
3.11112e-06
4.07995e-06
3.99941e-06
2.94189e-06
1.55452e-06
5.08681e-07
5.40379e-08
0
0
9.44412e-11
1.12908e-10
5.36439e-11
8.21811e-12
0
0
0
0
0
0
0
2.5295e-31
0
5.45979e-28
9.43893e-27
1.72941e-26
0
1.41538e-17
9.86172e-17
2.03677e-16
1.33293e-16
5.56426e-18
0
0
3.10726e-09
1.55811e-08
3.50449e-08
5.22538e-08
3.83115e-09
0
0
1.85774e-12
7.32721e-12
1.88432e-11