/*--------------------------------*- C++ -*----------------------------------*\
  =========                 |
  \\      /  F ield         | OpenFOAM: The Open Source CFD Toolbox
   \\    /   O peration     | Website:  https://openfoam.org
    \\  /    A nd           | Version:  7
     \\/     M anipulation  |
\*---------------------------------------------------------------------------*/
FoamFile
{
    version     2.0;
    format      ascii;
    class       volScalarField;
    location    "40";
    object      k1Write;
}
// * * * * * * * * * * * * * * * * * * * * * * * * * * * * * * * * * * * * * //

dimensions      [0 2 0 0 0 0 0];

internalField   nonuniform List<scalar> 
49920
(
1.41129e-16
1.16634e-19
3.39765e-21
7.18194e-21
6.91443e-21
1.44843e-20
8.99347e-21
2.09831e-21
3.83959e-21
9.47022e-21
7.25835e-21
3.80317e-21
6.39951e-21
2.45248e-21
1.3536e-20
2.95313e-18
1.70734e-15
2.7179e-11
0.000167073
0.000167073
0.000167073
0.000167073
0.000167073
0.000167073
0.000167073
0.000167073
0.000167073
0.000167073
0.000167073
0.000167073
0.000167073
0.000167073
0.000167073
0.000167073
0.000167073
0.000167073
0.000167073
0.000167073
0.000167073
0.000167073
0.000167073
0.000167073
0.000167073
0.000167073
0.000167073
0.000167073
0.000167073
0.000167073
0.000167073
0.000167073
0.000167073
0.000167073
0.000167073
0.000167073
0.000167073
0.000167073
0.000167073
0.000167073
0.000167073
0.000167073
0.000167073
0.000167072
0.000167073
0.000167072
0.000167073
0.000167072
0.000167074
0.000167072
0.000167075
0.000167072
0.000167076
0.000167073
0.000167077
0.000167074
0.000167078
0.000167075
0.000167078
0.000167077
0.000167077
0.000167078
1.31447e-16
8.30877e-18
4.9032e-19
1.17552e-20
1.11139e-20
4.59668e-20
6.75494e-21
3.40649e-20
8.16782e-21
1.1858e-20
1.57769e-20
9.44262e-21
4.90541e-21
3.44955e-20
1.19382e-18
3.02939e-17
2.86112e-15
4.36129e-09
0.000167073
0.000167073
0.000167073
0.000167073
0.000167073
0.000167073
0.000167073
0.000167073
0.000167073
0.000167073
0.000167073
0.000167073
0.000167073
0.000167073
0.000167073
0.000167073
0.000167073
0.000167073
0.000167073
0.000167073
0.000167073
0.000167073
0.000167073
0.000167073
0.000167073
0.000167073
0.000167073
0.000167073
0.000167073
0.000167073
0.000167073
0.000167073
0.000167073
0.000167074
0.000167073
0.000167073
0.000167073
0.000167073
0.000167073
0.000167073
0.000167072
0.000167073
0.000167072
0.000167073
0.000167071
0.000167073
0.00016707
0.000167073
0.00016707
0.000167074
0.00016707
0.000167076
0.000167071
0.000167077
0.000167073
0.000167078
0.000167075
0.000167079
0.000167077
0.000167079
0.000167079
0.000167079
7.38296e-16
3.59921e-16
1.90517e-17
1.41473e-18
1.29895e-18
2.93195e-18
1.18943e-18
2.49018e-18
1.27139e-18
4.68657e-20
4.36236e-20
4.90734e-20
2.13857e-19
2.21432e-18
2.61478e-17
3.71269e-16
8.63685e-15
1.2616e-12
0.000167073
0.000167073
0.000167073
0.000167073
0.000167073
0.000167073
0.000167073
0.000167073
0.000167073
0.000167073
0.000167073
0.000167073
0.000167073
0.000167073
0.000167073
0.000167073
0.000167073
0.000167073
0.000167073
0.000167073
0.000167073
0.000167073
0.000167073
0.000167073
0.000167073
0.000167073
0.000167073
0.000167073
0.000167072
0.000167073
0.000167072
0.000167073
0.000167073
0.000167073
0.000167073
0.000167073
0.000167073
0.000167073
0.000167073
0.000167072
0.000167072
0.000167072
0.000167072
0.000167071
0.000167072
0.000167071
0.000167072
0.000167071
0.000167072
0.000167071
0.000167072
0.000167072
0.000167073
0.000167073
0.000167074
0.000167075
0.000167076
0.000167078
0.000167078
0.000167081
0.00016708
0.000167081
5.78693e-15
2.90257e-14
4.01913e-16
4.02786e-17
3.11171e-17
6.31672e-17
2.86235e-17
5.34672e-17
2.72569e-17
4.7858e-18
2.90362e-18
2.83641e-18
7.06209e-18
2.069e-17
4.48461e-16
6.12657e-15
5.58456e-14
1.15426e-12
2.52244e-10
0.000167073
0.000167073
0.000167073
0.000167073
0.000167073
0.000167073
0.000167073
0.000167073
0.000167073
0.000167073
0.000167073
0.000167073
0.000167073
0.000167073
0.000167073
0.000167073
0.000167073
0.000167072
0.000167072
0.000167072
0.000167072
0.000167072
0.000167072
0.000167072
0.000167072
0.000167072
0.000167072
0.000167072
0.000167072
0.000167073
0.000167072
0.000167073
0.000167073
0.000167073
0.000167072
0.000167072
0.000167072
0.000167072
0.000167072
0.000167072
0.000167072
0.000167072
0.000167071
0.000167072
0.00016707
0.000167071
0.00016707
0.000167072
0.000167069
0.000167072
0.00016707
0.000167074
0.000167071
0.000167075
0.000167073
0.000167077
0.000167076
0.00016708
0.00016708
0.000167082
0.000167081
4.595e-14
0.000167074
7.82801e-15
8.27536e-16
4.7589e-16
1.00505e-15
5.34062e-16
9.34735e-16
4.72878e-16
2.61736e-16
4.2968e-17
6.59432e-17
1.95519e-16
6.88719e-16
6.88502e-15
8.34607e-14
4.08532e-13
2.12649e-12
4.27925e-11
1.08736e-08
0.000167073
0.000167073
0.000167073
0.000167073
0.000167073
0.000167073
0.000167073
0.000167073
0.000167073
0.000167073
0.000167073
0.000167073
0.000167073
0.000167072
0.000167073
0.000167072
0.000167072
0.000167072
0.000167072
0.000167072
0.000167072
0.000167072
0.000167072
0.000167072
0.000167072
0.000167072
0.000167072
0.000167072
0.000167072
0.000167073
0.000167072
0.000167072
0.000167072
0.000167072
0.000167072
0.000167072
0.000167072
0.000167072
0.000167072
0.000167072
0.000167071
0.000167072
0.000167071
0.000167071
0.00016707
0.000167071
0.000167069
0.000167071
0.00016707
0.000167071
0.00016707
0.000167072
0.000167072
0.000167074
0.000167075
0.000167076
0.000167079
0.00016708
0.000167082
0.000167081
2.93156e-13
0.000167074
1.7634e-13
1.83086e-14
6.79248e-15
1.28952e-14
9.02518e-15
1.21023e-14
6.18213e-15
1.82288e-14
1.09757e-15
2.41948e-15
6.6675e-15
2.95839e-14
1.07306e-13
6.8654e-13
2.2299e-12
4.6018e-12
2.47685e-11
4.6422e-10
1.30277e-07
0.000167073
0.000167073
0.000167073
0.000167073
0.000167073
0.000167073
0.000167073
0.000167073
0.000167073
0.000167073
0.000167073
0.000167072
0.000167073
0.000167072
0.000167072
0.000167072
0.000167072
0.000167072
0.000167072
0.000167072
0.000167072
0.000167071
0.000167072
0.000167071
0.000167072
0.000167072
0.000167072
0.000167072
0.000167072
0.000167072
0.000167072
0.000167072
0.000167072
0.000167072
0.000167072
0.000167072
0.000167072
0.000167072
0.000167072
0.000167071
0.000167071
0.000167071
0.000167071
0.00016707
0.000167071
0.000167069
0.000167071
0.000167068
0.000167072
0.000167068
0.000167073
0.000167069
0.000167076
0.000167071
0.000167079
0.000167076
0.000167081
0.000167082
0.000167081
1.24903e-12
6.40721e-10
7.05582e-12
6.5938e-13
9.33494e-14
1.22326e-13
1.3124e-13
1.18567e-13
6.4322e-14
1.44092e-10
4.81026e-14
1.66178e-13
8.87803e-13
2.2107e-09
2.84678e-12
3.32146e-12
6.61304e-12
9.02301e-12
2.18435e-11
1.28528e-10
2.29998e-09
4.29613e-07
0.000167073
0.000167073
0.000167073
0.000167073
0.000167073
0.000167073
0.000167073
0.000167073
0.000167073
0.000167073
0.000167073
0.000167072
0.000167072
0.000167072
0.000167072
0.000167072
0.000167072
0.000167072
0.000167071
0.000167071
0.000167072
0.000167071
0.000167072
0.000167071
0.000167072
0.000167071
0.000167072
0.000167071
0.000167072
0.000167072
0.000167072
0.000167072
0.000167072
0.000167072
0.000167072
0.000167072
0.000167072
0.000167071
0.000167071
0.000167071
0.000167071
0.000167069
0.000167071
0.000167068
0.000167072
0.000167067
0.000167073
0.000167066
0.000167074
0.000167066
0.000167075
0.000167068
0.000167078
0.000167073
0.00016708
0.000167082
0.000167082
0.000167082
3.37007e-12
4.50354e-10
0.000167075
0.000167075
1.30706e-12
7.78243e-13
1.25619e-12
7.74112e-13
4.45473e-13
0.000167074
0.000167074
0.000167074
0.000167075
0.000167075
1.78546e-09
1.58442e-11
1.31445e-11
1.45559e-11
2.24908e-11
6.56168e-11
4.00802e-10
5.909e-09
5.90756e-07
0.000167073
0.000167073
0.000167073
0.000167073
0.000167073
0.000167073
0.000167073
0.000167073
0.000167073
0.000167073
0.000167072
0.000167072
0.000167072
0.000167072
0.000167072
0.000167072
0.000167071
0.000167071
0.000167072
0.000167071
0.000167072
0.00016707
0.000167072
0.000167071
0.000167072
0.000167071
0.000167072
0.000167071
0.000167072
0.000167072
0.000167072
0.000167072
0.000167072
0.000167072
0.000167072
0.000167072
0.000167071
0.000167071
0.000167071
0.00016707
0.000167071
0.000167068
0.000167071
0.000167067
0.000167072
0.000167066
0.000167072
0.000167065
0.000167074
0.000167067
0.000167076
0.000167071
0.000167079
0.000167081
0.000167082
0.000167085
0.000167081
6.35614e-12
4.85817e-10
0.000167075
0.000167075
2.0865e-11
3.38849e-12
5.56879e-12
2.89847e-12
1.72061e-12
5.35178e-11
0.000167074
0.000167074
0.000167075
0.000167075
0.000167076
6.84196e-11
2.56111e-11
2.16235e-11
2.50807e-11
4.60569e-11
1.46815e-10
8.39397e-10
1.06812e-08
7.72981e-07
0.000167073
0.000167073
0.000167073
0.000167073
0.000167073
0.000167073
0.000167073
0.000167073
0.000167072
0.000167072
0.000167072
0.000167072
0.000167072
0.000167072
0.000167071
0.000167071
0.000167071
0.000167071
0.000167072
0.00016707
0.000167072
0.00016707
0.000167071
0.000167071
0.000167071
0.000167071
0.000167072
0.000167071
0.000167072
0.000167072
0.000167072
0.000167072
0.000167072
0.000167072
0.000167072
0.000167071
0.000167071
0.000167071
0.000167071
0.000167069
0.000167071
0.000167067
0.000167071
0.000167066
0.000167071
0.000167065
0.000167072
0.000167066
0.000167073
0.000167069
0.000167076
0.000167078
0.000167081
0.000167086
0.000167082
0.000167082
9.67705e-12
4.58505e-10
0.000167076
0.000167075
1.53365e-09
1.16983e-11
1.24896e-11
6.54956e-12
3.86307e-12
2.25196e-11
2.81992e-09
0.000167074
0.000167075
0.000167076
0.000167076
3.7958e-10
6.10348e-11
3.49421e-11
3.11941e-11
4.07795e-11
8.25434e-11
2.64432e-10
1.44102e-09
1.63905e-08
7.9543e-07
0.000167073
0.000167073
0.000167073
0.000167073
0.000167073
0.000167073
0.000167073
0.000167072
0.000167072
0.000167072
0.000167072
0.000167071
0.000167072
0.000167071
0.000167071
0.000167071
0.000167071
0.00016707
0.000167071
0.00016707
0.000167071
0.000167071
0.000167071
0.000167071
0.000167071
0.000167071
0.000167071
0.000167071
0.000167072
0.000167072
0.000167072
0.000167072
0.000167072
0.000167072
0.000167072
0.000167071
0.000167071
0.00016707
0.000167071
0.000167069
0.00016707
0.000167068
0.000167069
0.000167067
0.000167068
0.000167067
0.000167069
0.000167068
0.000167071
0.000167075
0.000167077
0.000167084
0.00016708
0.000167082
0.000167077
1.32865e-11
3.73987e-10
2.7226e-08
2.89673e-06
0.000167075
3.70939e-11
2.19818e-11
1.1378e-11
6.34195e-12
1.36613e-11
2.97814e-10
0.000167075
0.000167075
0.000167076
0.000167076
6.22974e-09
2.16136e-10
7.15688e-11
4.67557e-11
4.53354e-11
6.42707e-11
1.34788e-10
4.29298e-10
2.21413e-09
2.18846e-08
7.46193e-07
0.000167073
0.000167073
0.000167073
0.000167073
0.000167073
0.000167073
0.000167073
0.000167072
0.000167072
0.000167072
0.000167072
0.000167071
0.000167071
0.000167071
0.000167071
0.000167071
0.00016707
0.000167071
0.00016707
0.000167071
0.00016707
0.000167071
0.000167071
0.000167071
0.000167071
0.000167071
0.000167071
0.000167071
0.000167071
0.000167071
0.000167072
0.000167071
0.000167072
0.000167071
0.000167071
0.000167071
0.000167071
0.00016707
0.000167069
0.00016707
0.000167068
0.000167069
0.000167066
0.000167068
0.000167065
0.000167069
0.000167066
0.000167072
0.00016707
0.000167078
0.000167075
0.00016708
0.000167074
0.000167076
1.76655e-11
3.0013e-10
1.93961e-09
1.01546e-08
0.000167075
1.3934e-10
4.08664e-11
1.8795e-11
9.42292e-12
1.01375e-11
7.81029e-11
4.56973e-09
0.000167075
0.000167076
0.000167077
0.000167077
1.36993e-09
2.15127e-10
9.31754e-11
6.56427e-11
6.75452e-11
9.97757e-11
2.11762e-10
6.58265e-10
3.17177e-09
2.78796e-08
7.29517e-07
0.000167073
0.000167073
0.000167073
0.000167073
0.000167073
0.000167073
0.000167072
0.000167072
0.000167072
0.000167072
0.000167071
0.000167072
0.00016707
0.000167071
0.00016707
0.000167071
0.00016707
0.000167071
0.00016707
0.000167071
0.00016707
0.000167071
0.00016707
0.000167071
0.000167071
0.000167071
0.000167071
0.000167071
0.000167071
0.000167071
0.000167072
0.000167071
0.000167071
0.000167071
0.000167071
0.000167071
0.00016707
0.000167071
0.000167068
0.00016707
0.000167066
0.000167069
0.000167064
0.000167069
0.000167063
0.000167069
0.000167065
0.000167072
0.000167069
0.000167075
0.00016707
0.000167072
0.000167069
2.37934e-11
2.61829e-10
5.38053e-10
1.13313e-09
5.44178e-08
8.96239e-10
9.23128e-11
3.3064e-11
1.43628e-11
9.65105e-12
3.38065e-11
3.41321e-10
9.63465e-09
0.000167076
0.000167077
0.000167077
2.73223e-08
1.18128e-09
2.8012e-10
1.32561e-10
9.75261e-11
1.03825e-10
1.55757e-10
3.27669e-10
9.82899e-10
4.45966e-09
3.5094e-08
7.15698e-07
0.000167073
0.000167073
0.000167073
0.000167073
0.000167073
0.000167072
0.000167072
0.000167072
0.000167071
0.000167072
0.00016707
0.000167071
0.00016707
0.000167071
0.00016707
0.000167071
0.00016707
0.000167071
0.00016707
0.000167071
0.00016707
0.000167071
0.00016707
0.000167071
0.000167071
0.000167071
0.000167071
0.000167071
0.000167071
0.000167071
0.000167071
0.000167071
0.000167071
0.000167071
0.000167071
0.000167071
0.000167069
0.000167071
0.000167067
0.00016707
0.000167065
0.000167069
0.000167063
0.000167068
0.000167062
0.000167068
0.000167064
0.00016707
0.000167066
0.000167069
0.000167065
0.000167067
3.33995e-11
2.62328e-10
2.80986e-10
3.35701e-10
3.1697e-09
1.61843e-08
2.70209e-10
6.51148e-11
2.38078e-11
1.17107e-11
2.11994e-11
8.38467e-11
6.78714e-10
1.944e-08
0.000167077
0.000167078
0.000167078
2.04168e-08
1.60443e-09
4.20886e-10
2.04783e-10
1.53683e-10
1.65223e-10
2.46753e-10
5.07932e-10
1.46601e-09
6.22415e-09
4.38211e-08
7.27147e-07
0.000167073
0.000167073
0.000167073
0.000167073
0.000167072
0.000167072
0.000167072
0.000167072
0.000167071
0.000167071
0.00016707
0.000167071
0.00016707
0.000167071
0.00016707
0.000167071
0.00016707
0.000167071
0.00016707
0.00016707
0.00016707
0.00016707
0.00016707
0.00016707
0.00016707
0.00016707
0.000167071
0.000167071
0.000167071
0.000167071
0.000167071
0.000167071
0.000167071
0.000167071
0.000167071
0.000167071
0.000167069
0.000167071
0.000167067
0.000167069
0.000167065
0.000167068
0.000167062
0.000167066
0.000167062
0.000167066
0.000167062
0.000167066
0.000167061
0.000167062
0.00016706
4.97104e-11
3.08763e-10
2.15257e-10
1.71155e-10
7.04825e-10
4.66842e-08
1.00312e-09
1.45983e-10
4.36459e-11
1.73387e-11
1.80617e-11
3.87191e-11
1.61815e-10
1.56879e-09
7.67741e-08
0.000167078
0.000167078
0.000167078
2.94463e-08
2.54817e-09
6.90073e-10
3.39817e-10
2.55301e-10
2.72346e-10
3.99162e-10
7.96627e-10
2.19086e-09
8.68808e-09
5.55804e-08
7.65866e-07
7.97015e-05
0.000167073
0.000167073
0.000167073
0.000167072
0.000167072
0.000167071
0.000167071
0.000167071
0.000167071
0.00016707
0.000167071
0.00016707
0.00016707
0.00016707
0.00016707
0.00016707
0.00016707
0.00016707
0.00016707
0.00016707
0.00016707
0.00016707
0.00016707
0.00016707
0.00016707
0.000167071
0.000167071
0.000167071
0.000167071
0.000167072
0.000167072
0.000167071
0.000167072
0.000167071
0.000167071
0.000167069
0.00016707
0.000167067
0.000167069
0.000167064
0.000167066
0.000167061
0.000167064
0.00016706
0.000167062
0.000167059
0.00016706
0.000167058
0.000167058
7.9203e-11
4.26702e-10
2.13411e-10
1.24817e-10
2.95552e-10
4.24273e-09
3.55806e-09
3.69673e-10
8.78121e-11
2.97203e-11
1.99646e-11
2.72733e-11
7.07593e-11
3.61944e-10
4.645e-09
2.1398e-07
2.94597e-07
1.84173e-07
1.16749e-07
1.93407e-08
3.66232e-09
1.17192e-09
5.94431e-10
4.4385e-10
4.63933e-10
6.59484e-10
1.26238e-09
3.29423e-09
1.22425e-08
7.13288e-08
8.32215e-07
4.88234e-05
0.000167073
0.000167072
0.000167072
0.000167072
0.000167071
0.000167071
0.000167071
0.000167071
0.000167071
0.00016707
0.00016707
0.00016707
0.00016707
0.00016707
0.00016707
0.00016707
0.00016707
0.00016707
0.00016707
0.00016707
0.00016707
0.00016707
0.00016707
0.00016707
0.00016707
0.000167071
0.000167071
0.000167071
0.000167072
0.000167072
0.000167072
0.000167072
0.000167072
0.000167071
0.000167071
0.000167069
0.000167069
0.000167066
0.000167066
0.000167063
0.000167063
0.00016706
0.00016706
0.000167058
0.000167057
0.000167058
0.000167056
0.000167057
1.35758e-10
6.78032e-10
2.51628e-10
1.16889e-10
1.86478e-10
1.10162e-09
6.16039e-09
1.01641e-09
1.90304e-10
5.62254e-11
2.74131e-11
2.62688e-11
4.62622e-11
1.47868e-10
9.30298e-10
1.03362e-08
1.92363e-08
8.12978e-09
5.97879e-09
6.82686e-09
6.98365e-09
4.1379e-09
1.92933e-09
1.06683e-09
7.96783e-10
8.10106e-10
1.10636e-09
2.01894e-09
4.9868e-09
1.7321e-08
9.26644e-08
9.63388e-07
4.29524e-05
0.000167072
0.000167072
0.000167072
0.000167071
0.000167071
0.000167071
0.000167071
0.000167071
0.00016707
0.00016707
0.00016707
0.00016707
0.00016707
0.00016707
0.000167069
0.00016707
0.000167069
0.000167069
0.000167069
0.00016707
0.00016707
0.00016707
0.00016707
0.00016707
0.000167071
0.000167071
0.000167071
0.000167071
0.000167072
0.000167072
0.000167072
0.000167072
0.000167071
0.000167071
0.00016707
0.000167069
0.000167067
0.000167066
0.000167063
0.000167062
0.000167059
0.000167059
0.000167056
0.000167057
0.000167055
0.000167056
0.000167055
2.5115e-10
1.18394e-09
3.28532e-10
1.30329e-10
1.5838e-10
5.78987e-10
4.92611e-09
2.79485e-09
4.36863e-10
1.13348e-10
4.46944e-11
3.21974e-11
4.08595e-11
8.94402e-11
3.43277e-10
1.93011e-09
3.93867e-09
1.92262e-09
1.12126e-09
1.09763e-09
1.62152e-09
2.79798e-09
3.61787e-09
2.83996e-09
1.88062e-09
1.44238e-09
1.42979e-09
1.86988e-09
3.24239e-09
7.56229e-09
2.47022e-08
1.24169e-07
1.20126e-06
4.60944e-05
0.000167072
0.000167072
0.000167071
0.000167071
0.000167071
0.000167071
0.00016707
0.00016707
0.00016707
0.00016707
0.000167069
0.00016707
0.000167069
0.000167069
0.000167069
0.000167069
0.000167069
0.000167069
0.000167069
0.000167069
0.00016707
0.00016707
0.00016707
0.00016707
0.000167071
0.000167071
0.000167072
0.000167072
0.000167072
0.000167072
0.000167071
0.000167072
0.00016707
0.000167071
0.000167068
0.000167068
0.000167064
0.000167065
0.00016706
0.000167061
0.000167056
0.000167058
0.000167055
0.000167056
0.000167055
0.000167055
5.03755e-10
2.10526e-09
4.45248e-10
1.63253e-10
1.68148e-10
4.63611e-10
3.53297e-09
6.91382e-09
1.05757e-09
2.3921e-10
8.26524e-11
4.75107e-11
4.56771e-11
7.27415e-11
1.89718e-10
6.82795e-10
1.3911e-09
8.48611e-10
4.47909e-10
3.47845e-10
4.07947e-10
6.77003e-10
1.39831e-09
2.71801e-09
3.50342e-09
3.06356e-09
2.54373e-09
2.50299e-09
3.1507e-09
5.20124e-09
1.15216e-08
3.58548e-08
1.72355e-07
1.59406e-06
5.76657e-05
0.000167071
0.000167071
0.000167071
0.000167071
0.00016707
0.00016707
0.00016707
0.00016707
0.000167069
0.00016707
0.000167069
0.000167069
0.000167069
0.000167069
0.000167069
0.000167069
0.000167069
0.000167069
0.000167069
0.000167069
0.00016707
0.00016707
0.00016707
0.00016707
0.000167071
0.000167071
0.000167071
0.000167072
0.000167071
0.000167072
0.000167071
0.000167071
0.000167069
0.000167069
0.000167066
0.000167066
0.000167063
0.000167063
0.000167059
0.000167059
0.000167057
0.000167057
0.000167058
0.000167056
0.000167057
1.10356e-09
3.45013e-09
5.95739e-10
2.19944e-10
2.1099e-10
4.933e-10
3.12331e-09
1.47089e-08
2.73454e-09
5.27454e-10
1.66105e-10
8.04322e-11
6.14068e-11
7.45037e-11
1.41067e-10
3.62046e-10
7.00643e-10
5.31177e-10
2.77626e-10
1.821e-10
1.69681e-10
2.21164e-10
3.87238e-10
8.47274e-10
1.96295e-09
3.59323e-09
4.34845e-09
4.19852e-09
4.26012e-09
5.25185e-09
8.33996e-09
1.77211e-08
5.31118e-08
2.48007e-07
2.26818e-06
8.58483e-05
0.000167071
0.000167071
0.000167071
0.000167071
0.00016707
0.00016707
0.00016707
0.000167069
0.000167069
0.000167069
0.000167069
0.000167069
0.000167069
0.000167069
0.000167068
0.000167069
0.000167069
0.000167069
0.000167069
0.000167069
0.00016707
0.00016707
0.00016707
0.00016707
0.000167071
0.000167071
0.000167071
0.000167071
0.000167071
0.000167071
0.00016707
0.000167069
0.000167068
0.000167067
0.000167065
0.000167064
0.000167062
0.000167061
0.000167059
0.000167059
0.00016706
0.000167058
0.000167059
0.000167056
2.65788e-09
4.79987e-09
7.69156e-10
3.10152e-10
3.00499e-10
6.50158e-10
3.59335e-09
2.94298e-08
7.75598e-09
1.21744e-09
3.48897e-10
1.48926e-10
9.45197e-11
9.096e-11
1.31192e-10
2.55604e-10
4.57158e-10
4.19122e-10
2.32518e-10
1.36521e-10
1.05558e-10
1.10217e-10
1.52453e-10
2.71568e-10
5.95267e-10
1.45318e-09
3.23501e-09
5.25844e-09
6.2902e-09
6.95085e-09
8.64071e-09
1.3405e-08
2.76164e-08
8.06837e-08
3.73367e-07
3.50738e-06
0.000153695
0.000167071
0.000167071
0.000167071
0.00016707
0.00016707
0.000167069
0.000167069
0.000167069
0.000167069
0.000167069
0.000167069
0.000167068
0.000167068
0.000167068
0.000167068
0.000167068
0.000167068
0.000167069
0.000167069
0.000167069
0.000167069
0.00016707
0.00016707
0.00016707
0.00016707
0.00016707
0.00016707
0.00016707
0.00016707
0.000167069
0.000167068
0.000167067
0.000167066
0.000167064
0.000167064
0.000167062
0.000167061
0.00016706
0.00016706
0.000167059
0.00016706
0.000167058
0.000167059
6.96394e-09
5.60512e-09
9.65692e-10
4.53467e-10
4.74836e-10
1.02859e-09
5.41264e-09
6.63273e-08
2.44565e-08
2.87074e-09
7.30705e-10
2.84657e-10
1.57287e-10
1.25103e-10
1.43369e-10
2.21602e-10
3.6103e-10
3.87891e-10
2.43458e-10
1.35666e-10
9.04898e-11
7.81495e-11
8.73332e-11
1.24051e-10
2.19213e-10
4.67381e-10
1.13157e-09
2.74796e-09
5.5705e-09
8.48817e-09
1.08128e-08
1.40651e-08
2.1732e-08
4.39508e-08
1.26876e-07
5.93367e-07
5.90897e-06
0.000167071
0.000167071
0.00016707
0.00016707
0.00016707
0.00016707
0.000167069
0.000167069
0.000167069
0.000167069
0.000167068
0.000167068
0.000167068
0.000167068
0.000167068
0.000167068
0.000167068
0.000167068
0.000167069
0.000167069
0.000167069
0.000167069
0.00016707
0.00016707
0.00016707
0.00016707
0.00016707
0.000167069
0.000167069
0.000167068
0.000167067
0.000167066
0.000167065
0.000167064
0.000167062
0.000167062
0.00016706
0.00016706
0.00016706
0.00016706
0.000167058
0.000167059
0.000167058
1.84658e-08
5.82593e-09
1.21164e-09
6.91818e-10
8.29361e-10
1.95086e-09
1.09327e-08
2.01939e-07
7.49919e-08
6.18299e-09
1.40237e-09
5.17271e-10
2.62331e-10
1.81329e-10
1.72856e-10
2.2041e-10
3.25295e-10
3.96033e-10
2.99196e-10
1.70309e-10
1.0208e-10
7.48444e-11
6.91657e-11
7.99158e-11
1.13626e-10
1.95471e-10
3.98593e-10
9.30557e-10
2.31958e-09
5.44751e-09
1.04734e-08
1.6115e-08
2.28696e-08
3.59701e-08
7.22765e-08
2.08461e-07
9.99215e-07
1.077e-05
0.000167071
0.000167071
0.00016707
0.00016707
0.00016707
0.000167069
0.000167069
0.000167069
0.000167069
0.000167068
0.000167068
0.000167068
0.000167068
0.000167068
0.000167068
0.000167068
0.000167068
0.000167068
0.000167068
0.000167069
0.000167069
0.000167069
0.000167069
0.000167069
0.000167069
0.000167069
0.000167068
0.000167068
0.000167067
0.000167066
0.000167065
0.000167064
0.000167063
0.000167062
0.000167061
0.00016706
0.00016706
0.000167059
0.000167059
0.000167059
0.000167058
0.000167059
4.0547e-08
5.82795e-09
1.56893e-09
1.12087e-09
1.62422e-09
4.55966e-09
3.14863e-08
7.79154e-07
1.2189e-07
9.47188e-09
2.14663e-09
8.00927e-10
3.9917e-10
2.56209e-10
2.15143e-10
2.36273e-10
3.16826e-10
4.20288e-10
4.01112e-10
2.58311e-10
1.47629e-10
9.43433e-11
7.32703e-11
6.99511e-11
8.12512e-11
1.13214e-10
1.86807e-10
3.60709e-10
8.02704e-10
1.99494e-09
5.15292e-09
1.2173e-08
2.33881e-08
3.78419e-08
6.19462e-08
1.24676e-07
3.60996e-07
1.78044e-06
2.06253e-05
0.000167071
0.00016707
0.00016707
0.00016707
0.00016707
0.000167069
0.000167069
0.000167068
0.000167068
0.000167068
0.000167068
0.000167068
0.000167068
0.000167068
0.000167068
0.000167068
0.000167068
0.000167068
0.000167068
0.000167068
0.000167068
0.000167069
0.000167068
0.000167068
0.000167068
0.000167068
0.000167067
0.000167066
0.000167066
0.000167064
0.000167064
0.000167062
0.000167062
0.00016706
0.00016706
0.000167059
0.000167059
0.000167059
0.000167059
0.000167059
0.000167059
5.71341e-08
5.97366e-09
2.15925e-09
1.97688e-09
3.67659e-09
1.39184e-08
1.37327e-07
8.83681e-07
6.40838e-08
8.44211e-09
2.33078e-09
9.65155e-10
5.10283e-10
3.28293e-10
2.60034e-10
2.58768e-10
3.19159e-10
4.41128e-10
5.35072e-10
4.42559e-10
2.67711e-10
1.55483e-10
1.0283e-10
8.16663e-11
7.8126e-11
8.90239e-11
1.19355e-10
1.86675e-10
3.39518e-10
7.18414e-10
1.76205e-09
4.86576e-09
1.37855e-08
3.39383e-08
6.57006e-08
1.14301e-07
2.30137e-07
6.63926e-07
3.31479e-06
3.9499e-05
0.000167071
0.00016707
0.00016707
0.000167069
0.000167069
0.000167069
0.000167068
0.000167068
0.000167068
0.000167068
0.000167068
0.000167067
0.000167067
0.000167068
0.000167068
0.000167068
0.000167068
0.000167068
0.000167068
0.000167068
0.000167068
0.000167068
0.000167068
0.000167068
0.000167067
0.000167066
0.000167066
0.000167065
0.000167064
0.000167063
0.000167063
0.000167062
0.000167061
0.00016706
0.00016706
0.00016706
0.00016706
0.00016706
0.00016706
0.000167061
5.25354e-08
6.55015e-09
3.24219e-09
3.91076e-09
1.00444e-08
5.91887e-08
5.32306e-07
1.70972e-07
2.13574e-08
5.07632e-09
1.86556e-09
9.10357e-10
5.38164e-10
3.691e-10
2.94226e-10
2.79838e-10
3.24118e-10
4.47469e-10
6.50856e-10
7.61762e-10
5.82135e-10
3.36758e-10
1.93787e-10
1.27855e-10
1.00392e-10
9.35752e-11
1.02307e-10
1.29907e-10
1.90977e-10
3.2686e-10
6.60262e-10
1.60093e-09
4.67993e-09
1.57093e-08
5.10938e-08
1.25991e-07
2.37014e-07
4.67853e-07
1.31461e-06
6.57158e-06
8.27794e-05
0.00016707
0.000167069
0.000167069
0.000167069
0.000167068
0.000167068
0.000167068
0.000167068
0.000167068
0.000167067
0.000167068
0.000167068
0.000167068
0.000167068
0.000167068
0.000167068
0.000167068
0.000167069
0.000167069
0.000167069
0.000167068
0.000167068
0.000167068
0.000167067
0.000167067
0.000167066
0.000167065
0.000167064
0.000167063
0.000167062
0.000167061
0.000167061
0.00016706
0.00016706
0.000167061
0.00016706
0.000167061
0.000167061
0.000167062
4.16014e-08
7.92274e-09
5.44727e-09
8.96549e-09
3.41606e-08
2.72804e-07
2.65221e-07
3.47328e-08
7.78926e-09
2.75187e-09
1.29299e-09
7.43335e-10
4.96822e-10
3.73207e-10
3.12375e-10
2.96851e-10
3.31013e-10
4.43748e-10
7.00343e-10
1.12864e-09
1.34536e-09
9.57448e-10
5.11304e-10
2.78466e-10
1.75938e-10
1.32071e-10
1.16802e-10
1.20167e-10
1.42829e-10
1.96682e-10
3.18134e-10
6.19242e-10
1.49776e-09
4.64767e-09
1.85449e-08
8.40226e-08
2.93898e-07
6.06821e-07
1.11737e-06
2.96966e-06
1.4863e-05
0.00016707
0.000167069
0.000167069
0.000167068
0.000167068
0.000167068
0.000167068
0.000167068
0.000167067
0.000167068
0.000167068
0.000167068
0.000167068
0.000167068
0.000167068
0.000167069
0.000167069
0.000167069
0.000167069
0.000167069
0.000167069
0.000167069
0.000167068
0.000167068
0.000167067
0.000167065
0.000167065
0.000167064
0.000167063
0.000167062
0.000167061
0.00016706
0.00016706
0.00016706
0.00016706
0.000167061
0.000167061
0.000167062
0.000167062
3.51869e-08
1.08313e-08
1.04933e-08
2.42558e-08
1.23858e-07
2.9061e-07
5.25164e-08
1.05239e-08
3.48077e-09
1.58868e-09
8.95069e-10
5.8939e-10
4.3916e-10
3.60889e-10
3.22248e-10
3.14603e-10
3.45683e-10
4.45624e-10
6.98802e-10
1.32427e-09
2.58545e-09
3.29756e-09
2.0523e-09
9.26753e-10
4.47331e-10
2.58672e-10
1.79888e-10
1.47686e-10
1.41027e-10
1.56035e-10
2.0176e-10
3.11215e-10
5.91228e-10
1.44532e-09
4.81428e-09
2.33087e-08
1.64112e-07
1.0712e-06
2.45459e-06
3.4123e-06
7.41803e-06
3.37658e-05
0.000167069
0.000167068
0.000167068
0.000167068
0.000167068
0.000167068
0.000167067
0.000167068
0.000167068
0.000167068
0.000167068
0.000167068
0.000167069
0.000167069
0.000167069
0.000167069
0.000167069
0.00016707
0.000167069
0.000167069
0.000167068
0.000167068
0.000167067
0.000167066
0.000167065
0.000167064
0.000167063
0.000167062
0.000167061
0.00016706
0.00016706
0.000167059
0.000167059
0.00016706
0.00016706
0.000167061
0.000167061
0.000167062
3.4778e-08
1.7067e-08
2.34546e-08
7.10105e-08
2.05392e-07
7.38709e-08
1.46104e-08
4.40439e-09
1.89685e-09
1.03673e-09
6.69361e-10
4.91314e-10
4.00616e-10
3.55847e-10
3.38685e-10
3.43908e-10
3.79066e-10
4.72009e-10
7.0213e-10
1.32823e-09
3.33151e-09
9.57839e-09
1.38687e-08
5.93593e-09
1.91402e-09
7.63054e-10
3.9032e-10
2.461e-10
1.84871e-10
1.62702e-10
1.67696e-10
2.05152e-10
3.05485e-10
5.74732e-10
1.44188e-09
5.24707e-09
3.21998e-08
4.54308e-07
1.82507e-05
3.12604e-05
1.20754e-05
1.68544e-05
6.63093e-05
0.000167068
0.000167068
0.000167068
0.000167068
0.000167068
0.000167068
0.000167068
0.000167068
0.000167068
0.000167068
0.000167069
0.000167069
0.000167069
0.00016707
0.00016707
0.00016707
0.000167069
0.00016707
0.000167069
0.000167069
0.000167068
0.000167068
0.000167067
0.000167066
0.000167065
0.000167064
0.000167063
0.000167061
0.00016706
0.00016706
0.000167059
0.000167059
0.000167059
0.00016706
0.00016706
0.000167061
0.000167062
4.13141e-08
3.12062e-08
5.76021e-08
1.42795e-07
9.19611e-08
2.08056e-08
5.87771e-09
2.36668e-09
1.23746e-09
7.7798e-10
5.60711e-10
4.50513e-10
3.96402e-10
3.76164e-10
3.79096e-10
4.0154e-10
4.49269e-10
5.46531e-10
7.6297e-10
1.32259e-09
3.19872e-09
1.32087e-08
1.07411e-07
1.68588e-07
2.10546e-08
4.10963e-09
1.31937e-09
5.87174e-10
3.30734e-10
2.25374e-10
1.82672e-10
1.76511e-10
2.0662e-10
3.01198e-10
5.69746e-10
1.49165e-09
6.07919e-09
5.05701e-08
2.58574e-06
0.00016707
0.000115763
2.33044e-05
3.22077e-05
0.000134525
0.000167068
0.000167068
0.000167068
0.000167068
0.000167068
0.000167068
0.000167068
0.000167068
0.000167069
0.000167069
0.000167069
0.00016707
0.00016707
0.00016707
0.00016707
0.00016707
0.00016707
0.00016707
0.00016707
0.000167069
0.000167069
0.000167068
0.000167067
0.000167067
0.000167065
0.000167064
0.000167063
0.000167062
0.000167061
0.00016706
0.00016706
0.00016706
0.00016706
0.000167061
0.000167061
0.000167062
5.88514e-08
6.35223e-08
1.18092e-07
1.07772e-07
3.03533e-08
8.28807e-09
3.13174e-09
1.56237e-09
9.53682e-10
6.7511e-10
5.35792e-10
4.66647e-10
4.39561e-10
4.42273e-10
4.69076e-10
5.17821e-10
5.92414e-10
7.13058e-10
9.41671e-10
1.46534e-09
3.00868e-09
1.02528e-08
1.18723e-07
0.000167075
6.89575e-06
7.06265e-08
8.84863e-09
2.26983e-09
8.62536e-10
4.29043e-10
2.64631e-10
1.98662e-10
1.81934e-10
2.0655e-10
2.99038e-10
5.77506e-10
1.60751e-09
7.52009e-09
8.7495e-08
2.63275e-05
0.00016707
0.000108075
3.78824e-05
6.22887e-05
0.000167068
0.000167068
0.000167068
0.000167068
0.000167068
0.000167068
0.000167068
0.000167068
0.000167069
0.000167069
0.000167069
0.000167069
0.000167069
0.00016707
0.00016707
0.00016707
0.000167071
0.000167071
0.000167071
0.000167071
0.000167071
0.000167071
0.00016707
0.00016707
0.000167069