/*--------------------------------*- C++ -*----------------------------------*\
  =========                 |
  \\      /  F ield         | OpenFOAM: The Open Source CFD Toolbox
   \\    /   O peration     | Website:  https://openfoam.org
    \\  /    A nd           | Version:  7
     \\/     M anipulation  |
\*---------------------------------------------------------------------------*/
FoamFile
{
    version     2.0;
    format      ascii;
    class       volScalarField;
    location    "40";
    object      k2Write;
}
// * * * * * * * * * * * * * * * * * * * * * * * * * * * * * * * * * * * * * //

dimensions      [0 2 0 0 0 0 0];

internalField   nonuniform List<scalar> 
49920
(
6.90476e-08
5.70634e-11
1.6623e-12
3.51375e-12
3.38288e-12
7.08639e-12
4.40004e-12
1.02659e-12
1.87851e-12
4.63329e-12
3.55114e-12
1.86069e-12
3.13095e-12
1.19987e-12
6.6225e-12
1.44482e-09
8.35311e-07
0.0132972
81739.4
81739.4
81739.4
81739.4
81739.5
81739.5
81739.6
81739.6
81739.7
81739.7
81739.8
81739.8
81739.8
81739.7
81739.7
81739.7
81739.6
81739.6
81739.6
81739.6
81739.7
81739.8
81739.9
81740
81740
81740
81740.1
81740
81740.1
81739.7
81739.9
81739.5
81740.3
81739.9
81740.4
81740.3
81740.1
81740.4
81739.8
81739.6
81739.5
81738.8
81739.2
81738
81739.4
81737.1
81740
81736.8
81741.7
81737
81743.6
81738
81746.3
81739.7
81748.2
81742
81749.8
81744.7
81750.2
81747.8
81749
81750.7
6.4311e-08
4.06508e-09
2.39889e-10
5.75122e-12
5.43744e-12
2.2489e-11
3.30483e-12
1.6666e-11
3.99607e-12
5.80145e-12
7.71877e-12
4.61974e-12
2.39995e-12
1.68768e-11
5.84078e-10
1.48213e-08
1.3998e-06
2.13374
81739.4
81739.2
81739.2
81739.2
81739.3
81739.4
81739.4
81739.6
81739.6
81739.7
81739.8
81739.7
81739.7
81739.6
81739.6
81739.4
81739.5
81739.2
81739.3
81739.2
81739.5
81739.4
81739.7
81739.5
81739.8
81739.6
81739.8
81739.7
81739.5
81738.9
81738.7
81740
81739.2
81740.7
81739.6
81740.4
81740.4
81739.8
81739.2
81739.4
81738.4
81738.9
81737
81738.8
81735.5
81739.1
81734
81740.4
81733.5
81742.4
81733.7
81745.3
81735.8
81748.2
81738.5
81750.8
81743.1
81752.9
81748.4
81752.9
81753.5
81753.4
3.61218e-07
1.76092e-07
9.3211e-09
6.92163e-10
6.35514e-10
1.43447e-09
5.81932e-10
1.21832e-09
6.22029e-10
2.2929e-11
2.13427e-11
2.4009e-11
1.04629e-10
1.08336e-09
1.27928e-08
1.81643e-07
4.22558e-06
0.000617236
81739.8
81739.4
81739.2
81739.3
81739.3
81739.4
81739.5
81739.6
81739.7
81739.8
81739.6
81739.7
81739.4
81739.6
81739.2
81739.4
81738.9
81739.2
81738.6
81739.1
81738.7
81739.3
81738.7
81739.3
81738.8
81739.3
81738.9
81739.2
81737.7
81738.5
81738.1
81739
81740
81739.1
81740.5
81739.8
81739.1
81738.9
81738.8
81738.3
81738.4
81737.2
81737.6
81735.9
81736.9
81734.6
81736.5
81734.2
81736.9
81734.5
81737.8
81736.6
81740
81739.7
81742.6
81744.4
81746.5
81750.6
81750.4
81756.2
81755.4
81757.2
2.83132e-06
1.4201e-05
1.96637e-07
1.97065e-08
1.52242e-08
3.09048e-08
1.40041e-08
2.6159e-08
1.33355e-08
2.34147e-09
1.4206e-09
1.38772e-09
3.45515e-09
1.01226e-08
2.19409e-07
2.99744e-06
2.73226e-05
0.000564724
0.12341
81739.7
81739.4
81739.4
81739.4
81739.5
81739.5
81739.6
81739.7
81739.5
81739.4
81739.3
81739.2
81739.1
81739
81738.9
81738.7
81738.5
81738.4
81738.3
81738.3
81738.3
81738.3
81738.2
81738.2
81738.4
81737.9
81737.3
81738.4
81736.6
81739.1
81738
81739
81739.3
81739.1
81738.4
81738.4
81738.1
81738.1
81737.8
81737.7
81736.9
81737
81735.4
81736.4
81733.7
81736.3
81732.3
81736.9
81731.4
81738.4
81732
81741
81734.2
81744.3
81738.5
81749.2
81745.3
81754.7
81755
81758.5
81757.1
2.24816e-05
81742.3
3.82988e-06
4.04876e-07
2.3283e-07
4.91724e-07
2.61291e-07
4.57321e-07
2.31356e-07
1.28055e-07
2.10222e-08
3.2263e-08
9.56581e-08
3.36958e-07
3.36851e-06
4.08337e-05
0.000199877
0.00104039
0.0209362
5.31986
81739.7
81739.5
81739.5
81739.5
81739.6
81739.6
81739.5
81739.3
81739.2
81738.8
81739.1
81738.7
81739
81738.3
81738.7
81737.8
81738.3
81737.5
81738.1
81737.3
81738
81737.1
81737.9
81736.5
81737.5
81737
81737
81738.4
81736.6
81738.7
81738.1
81738.1
81737.8
81737.9
81737.6
81737.7
81737.4
81737.6
81736.8
81737.2
81735.7
81736.5
81734.3
81735.9
81732.8
81735.4
81731.9
81735.3
81732
81736.1
81733.8
81737.7
81737.4
81741
81743.6
81746.6
81752.9
81755.2
81758.2
81757.5
0.000143432
81742.6
8.62755e-05
8.95759e-06
3.32325e-06
6.309e-06
4.4156e-06
5.92106e-06
3.02462e-06
8.91848e-06
5.3699e-07
1.18374e-06
3.26211e-06
1.44741e-05
5.25006e-05
0.000335899
0.00109101
0.00225146
0.012118
0.227119
63.7376
81739.6
81739.6
81739.6
81739.6
81739.6
81739.4
81739.3
81738.9
81739.1
81738.8
81739
81738.5
81738.7
81738
81738.2
81737.5
81737.8
81737.1
81737.5
81736.9
81737
81736
81737.5
81735.6
81738
81736.6
81737.1
81737.1
81737.5
81736.9
81737.5
81737.2
81737.4
81737.4
81737.2
81737.4
81736.9
81737
81736.4
81736
81735.7
81734.3
81735.3
81732.3
81735.3
81730.2
81736
81728.9
81737.8
81728.8
81740.6
81730.8
81745.3
81735.9
81751.6
81746.8
81757.8
81758.2
81756.9
0.000611109
0.313481
0.00345212
0.000322607
4.56717e-05
5.98486e-05
6.42099e-05
5.80094e-05
3.14696e-05
0.0704972
2.35344e-05
8.13033e-05
0.000434366
1.08162
0.00139284
0.00162509
0.00323555
0.0044146
0.010687
0.0628823
1.12526
210.186
81739.6
81739.7
81739.7
81739.7
81739.5
81739.3
81739.2
81739.1
81738.9
81738.9
81738.6
81738.4
81738.1
81737.8
81737.5
81737.3
81737
81737
81736.1
81735.9
81736.8
81735.1
81738.4
81734.3
81737.8
81735.6
81737.2
81735.8
81737.3
81736.6
81737.4
81737.2
81737.2
81737.4
81737
81737.1
81736.6
81736.1
81736.2
81734.2
81736
81731.5
81736.1
81728.4
81737
81725.7
81738.5
81724.3
81741
81725.2
81744.8
81729.4
81749.6
81739.7
81754.9
81759.1
81758.6
81759.4
0.00164888
0.220343
81743.3
81743
0.00063949
0.00038076
0.000614596
0.000378738
0.000217949
81741.5
81741.8
81742.1
81743.2
81744.5
0.873579
0.00775218
0.00643123
0.00712171
0.0110038
0.0321031
0.196091
2.89095
289.025
81739.7
81739.8
81739.7
81739.7
81739.4
81739.4
81739.2
81739.1
81738.8
81738.6
81738.2
81738.1
81737.6
81737.4
81737
81736.8
81736
81735.6
81736.3
81734.7
81738.1
81733.3
81737.6
81734.5
81736.6
81735
81736.9
81736
81737.2
81736.8
81737.3
81737.3
81737.1
81737.4
81736.8
81736.7
81736.3
81735.2
81735.8
81732.6
81735.5
81729.3
81735.7
81725.9
81736.5
81723.4
81738.4
81723
81741.5
81725.9
81746
81735
81751.8
81756.8
81759.7
81765.5
81757.4
0.0031099
0.237696
81744.2
81743.6
0.0102084
0.00165785
0.00272457
0.00141809
0.000841814
0.0261838
81742
81742.6
81743.5
81745
81746.1
0.0334763
0.0125309
0.0105797
0.012271
0.0225335
0.0718288
0.410672
5.22573
378.178
81739.9
81739.8
81739.7
81739.6
81739.4
81739.3
81739
81738.8
81738.5
81738.1
81737.9
81737.3
81737.2
81736.5
81736.2
81735.6
81736
81734.5
81737.5
81733.1
81736.7
81734
81735.8
81734.5
81736.2
81735.3
81736.7
81736.2
81737
81736.9
81737
81737.2
81736.9
81737.1
81736.6
81736.1
81736
81734.2
81735.4
81731.2
81734.7
81727.6
81734.4
81724.4
81734.9
81722.7
81736.5
81724
81739.8
81730.9
81746
81751.5
81756.5
81768.5
81758.6
81759.7
0.00473477
0.224335
81745
81744.2
0.750359
0.0057235
0.00611065
0.00320442
0.00189003
0.0110178
1.37967
81742.8
81744.1
81745.1
81746.7
0.185721
0.0298632
0.0170962
0.0152622
0.0199516
0.0403845
0.129373
0.705016
8.01899
389.161
81739.9
81739.8
81739.7
81739.4
81739.4
81738.9
81738.9
81738.3
81738.3
81737.3
81737.5
81736.3
81736.5
81735.9
81735.5
81734.9
81736.3
81733.6
81735.3
81734
81734.6
81734.4
81735.1
81735
81735.7
81735.7
81736.1
81736.3
81736.5
81736.6
81736.6
81736.8
81736.7
81736.5
81736.4
81735.4
81735.6
81733.4
81734.2
81730.8
81732.5
81727.9
81730.7
81725.8
81729.8
81725.6
81730.4
81729.5
81735.2
81743.8
81747.5
81762.8
81754.6
81758.6
81748.9
0.00650085
0.182984
13.321
1417.28
81744.1
0.0181487
0.0107548
0.00556677
0.00310284
0.00668391
0.145708
81743.5
81744.2
81745.6
81746.9
3.04811
0.105752
0.035017
0.022876
0.0221807
0.0314446
0.065945
0.210033
1.08326
10.707
365.072
81740
81739.7
81739.7
81739.2
81739.2
81738.7
81738.6
81737.8
81737.8
81736.6
81736.7
81736.2
81735.4
81736
81735
81734.7
81733.3
81734.4
81733.4
81734.6
81733.9
81735
81734.4
81735.3
81734.9
81735.6
81735.5
81735.8
81736
81736
81736.5
81736.1
81736.6
81735.8
81735.9
81735.1
81734.3
81733.8
81731.5
81732.1
81728
81730.5
81724.5
81729.4
81722.1
81730.2
81723.5
81736.4
81733.6
81750.8
81744.3
81754.6
81742.5
81746.1
0.00864349
0.146848
0.949008
4.96838
81745
0.0681742
0.0199945
0.00919566
0.00461026
0.00495985
0.0382127
2.2358
81744.7
81746
81747.2
81748.6
0.670287
0.105257
0.045588
0.0321165
0.0330468
0.0488154
0.103604
0.322055
1.55178
13.64
356.914
81739.9
81739.7
81739.5
81739.3
81738.9
81738.6
81738
81737.6
81737
81736.7
81735.5
81736.6
81734.1
81734.4
81732.8
81734.5
81732.8
81734.6
81733.1
81734.9
81733.5
81734.9
81733.9
81735
81734.5
81735
81735.1
81735.1
81735.8
81735.4
81736.3
81735.6
81736.2
81735.6
81735.1
81735.2
81732.6
81734.4
81728.8
81733.1
81724.2
81731.6
81720
81730.2
81717.9
81731
81721.8
81737.9
81731.5
81744.2
81733.3
81738.1
81730.3
0.0116419
0.128109
0.26326
0.554415
26.6252
0.438503
0.0451656
0.0161771
0.00702719
0.0047219
0.0165403
0.166997
4.71396
81746.3
81748
81748.6
13.3685
0.577979
0.137056
0.0648571
0.0477153
0.0507966
0.0762039
0.160311
0.480881
2.18188
17.1696
350.153
81739.8
81739.8
81739.3
81739.3
81738.6
81738.4
81737.6
81737.4
81736
81736.8
81734.1
81734.8
81733.2
81734.6
81732.9
81734.4
81732.9
81734.5
81733.1
81734.5
81733.3
81734.4
81733.7
81734.3
81734.2
81734.4
81734.9
81734.7
81735.6
81735.1
81736.1
81735.5
81735.9
81735.6
81734.5
81735.3
81731.7
81734.3
81727.5
81732.6
81722.7
81730.2
81718.3
81728.1
81716.7
81729.1
81720.8
81733.1
81723.4
81731.3
81721.2
81725.7
0.0163421
0.128354
0.137482
0.164252
1.55086
7.91855
0.132205
0.0318586
0.0116484
0.00572964
0.0103722
0.0410237
0.332077
9.51158
81748.2
81749.6
81749.6
9.98972
0.785005
0.205926
0.100191
0.0751898
0.0808353
0.120724
0.248505
0.717243
3.04516
21.4394
355.755
81739.8
81739.6
81739.2
81738.8
81738.3
81738.1
81736.8
81737.2
81734.6
81735
81733.5
81734.7
81733.1
81734.4
81732.8
81734.3
81732.8
81734.2
81732.8
81734
81732.9
81733.8
81733.2
81733.7
81733.8
81733.9
81734.6
81734.4
81735.6
81735.1
81736.1
81735.7
81735.9
81736.1
81734.4
81735.8
81731.3
81734.4
81726.7
81731.8
81721.3
81728.2
81716.6
81725.3
81715
81725.1
81715.8
81723.5
81713.8
81715.9
81711.9
0.024323
0.151075
0.105322
0.0837431
0.344856
22.8415
0.490801
0.0714255
0.0213546
0.00848329
0.00883705
0.0189442
0.0791721
0.767577
37.5645
81749.8
81750.4
81749.5
14.4075
1.24674
0.337625
0.166257
0.124906
0.133246
0.195289
0.389749
1.07188
4.25063
27.1926
374.697
38993.6
81739.1
81738.9
81738.5
81737.5
81737.8
81735.4
81735.7
81734.2
81734.9
81733.5
81734.5
81732.9
81734.1
81732.7
81733.9
81732.5
81733.6
81732.4
81733.2
81732.5
81733
81732.9
81733.1
81733.6
81733.6
81734.7
81734.5
81735.8
81735.6
81736.4
81736.5
81736.2
81736.9
81734.5
81736.3
81731
81734
81725.8
81729.9
81719.6
81724.6
81714.2
81720.2
81711.2
81716.6
81709
81710.6
81707.5
81707.9
0.0387538
0.208783
0.10442
0.0610712
0.144608
2.07588
1.74087
0.180871
0.042964
0.0145413
0.00976815
0.0133441
0.034621
0.177093
2.27274
104.699
144.145
90.1147
57.1234
9.46288
1.79184
0.573369
0.290827
0.217153
0.22698
0.322652
0.617618
1.6117
5.98964
34.8974
407.156
23886.5
81739
81738.2
81738.1
81736.4
81736.3
81735.2
81735.1
81734.2
81734.3
81733.5
81733.7
81732.9
81733.3
81732.6
81732.9
81732.3
81732.5
81732.1
81732.3
81732.2
81732.4
81732.7
81732.9
81733.6
81733.9
81734.8
81735.2
81736
81736.5
81736.8
81737.4
81736.5
81737.3
81734.7
81735.4
81730.9
81731.2
81725.2
81724.8
81718.2
81717.5
81711.6
81711
81707.2
81705.8
81706
81702.1
81704.5
0.0664262
0.33176
0.12312
0.0571924
0.0912408
0.539
3.01414
0.497305
0.093111
0.0275097
0.0134126
0.0128527
0.0226351
0.0723494
0.455184
5.05745
9.41229
3.97786
2.92534
3.34022
3.41686
2.0245
0.943934
0.521949
0.389826
0.396345
0.541287
0.987764
2.43978
8.47425
45.3357
471.332
21014.1
81738.3
81737.4
81736.4
81736.2
81735.2
81735.1
81734.2
81734.2
81733.2
81733.4
81732.5
81732.9
81732.1
81732.4
81731.7
81732
81731.5
81731.8
81731.6
81732
81732.2
81732.6
81733.2
81733.6
81734.6
81735
81736.1
81736.3
81737.3
81737.2
81737.4
81737
81735.9
81735.2
81732.1
81731
81725.8
81724.5
81717.5
81716.4
81708.7
81708.9
81702.4
81705.1
81700
81702.1
81699.9
0.122888
0.579303
0.16075
0.0637692
0.0774934
0.283289
2.41025
1.36746
0.213747
0.0554585
0.021868
0.0157535
0.0199918
0.0437617
0.167962
0.944393
1.92719
0.94073
0.548618
0.537046
0.793357
1.36894
1.77006
1.38946
0.920098
0.705686
0.699528
0.914838
1.58634
3.69983
12.0855
60.7488
587.704
22551.1
81736.9
81736.6
81735.5
81735.8
81734.3
81734.7
81733.2
81733.7
81732.2
81732.9
81731.6
81732.3
81731.1
81731.8
81730.8
81731.4
81730.9
81731.4
81731.3
81731.7
81732.2
81732.5
81733.6
81733.7
81735.2
81735.2
81736.5
81736.6
81737.2
81737.4
81736.3
81736.9
81733.4
81734.4
81728.1
81729.4
81720.5
81721.8
81711.5
81713.1
81703.6
81706.4
81700.5
81702.7
81701
81701
0.246489
1.03011
0.21786
0.079879
0.0822732
0.226839
1.72863
3.3828
0.517447
0.11704
0.0404401
0.023246
0.0223491
0.0355915
0.0928275
0.33409
0.680666
0.415224
0.219158
0.170194
0.199596
0.331232
0.684134
1.3298
1.71406
1.49886
1.24453
1.22459
1.54148
2.54469
5.6369
17.5417
84.3233
779.869
28211.9
81736
81736.2
81734.9
81735.1
81733.6
81733.9
81732.5
81732.9
81731.5
81732.1
81730.8
81731.4
81730.4
81730.9
81730.2
81730.7
81730.4
81730.8
81731.1
81731.4
81732.2
81732.5
81733.7
81733.8
81735.2
81735.3
81736.3
81736.5
81736.3
81736.7
81734.5
81735.2
81730.7
81731.6
81724.7
81725.4
81716.9
81717.5
81708.8
81710.1
81704.4
81705.7
81706.2
81702.5
81704.1
0.539981
1.68816
0.291496
0.107619
0.103237
0.241367
1.5282
7.19686
1.33796
0.258074
0.0812724
0.0393542
0.0300455
0.036454
0.0690235
0.177149
0.342827
0.259905
0.135841
0.0890985
0.0830201
0.108207
0.18946
0.414534
0.960384
1.758
2.1275
2.05413
2.08426
2.56945
4.08028
8.66992
25.9844
121.334
1109.67
41999.7
81735.7
81735.4
81734.4
81734.2
81733.2
81732.9
81732
81731.9
81731.1
81731
81730.4
81730.4
81729.9
81729.9
81729.7
81729.9
81730
81730.3
81730.8
81731.3
81732.1
81732.6
81733.5
81734
81734.8
81735.1
81735.4
81735.6
81734.7
81734.6
81732.2
81731.7
81727.9
81726.7
81721.7
81720.1
81714.8
81713.3
81709.8
81709.1
81710.3
81706.7
81709
81703.7
1.30052
2.34861
0.376351
0.151757
0.147033
0.318119
1.75819
14.3997
3.79491
0.595679
0.170711
0.0728679
0.0462477
0.0445063
0.0641923
0.125068
0.22369
0.205077
0.11377
0.0667976
0.0516466
0.0539253
0.0745892
0.132866
0.291238
0.710973
1.58274
2.57271
3.07749
3.40069
4.22744
6.55831
13.511
39.4734
182.664
1715.92
75192.1
81735.4
81734.6
81734.1
81733.2
81732.9
81732
81731.7
81731
81730.8
81730.1
81730
81729.4
81729.4
81729
81729.2
81729.2
81729.6
81730
81730.6
81731.3
81731.8
81732.6
81733
81733.7
81733.9
81734.1
81733.8
81733.3
81732.4
81730.8
81729.4
81726.5
81724.7
81720.9
81719.2
81715.1
81714.2
81711
81712.2
81709.2
81712.1
81706.4
81708.9
3.4075
2.74262
0.472517
0.221882
0.232337
0.503286
2.64838
32.4535
11.9664
1.40463
0.357528
0.139281
0.07696
0.061213
0.070151
0.108432
0.176655
0.189797
0.119123
0.0663795
0.0442744
0.038236
0.0427288
0.0606929
0.107251
0.228669
0.553623
1.34445
2.72537
4.15283
5.29011
6.88123
10.6322
21.5023
62.0722
290.294
2890.84
81735.5
81735
81734
81733.7
81732.7
81732.4
81731.5
81731.3
81730.4
81730.2
81729.4
81729.2
81728.7
81728.6
81728.5
81728.7
81728.9
81729.3
81729.9
81730.3
81731.1
81731.4
81732.1
81732.3
81732.6
81732.4
81732
81731.5
81730
81729.1
81726.4
81725.2
81721.6
81720.3
81716.5
81715.6
81712.4
81712.4
81710.4
81711.2
81708.1
81709.2
81706.2
9.03545
2.85067
0.59286
0.338508
0.405807
0.954556
5.34935
98.8081
36.6933
3.02532
0.686177
0.253101
0.128359
0.0887255
0.0845799
0.107849
0.15917
0.193781
0.146396
0.0833298
0.0499451
0.036619
0.0338402
0.0390996
0.0555922
0.0956354
0.195014
0.455277
1.13486
2.66519
5.12407
7.88417
11.1888
17.598
35.3602
101.986
488.847
5268.96
81735.2
81734.4
81733.8
81733
81732.5
81731.7
81731.2
81730.5
81730
81729.2
81728.8
81728.3
81728.1
81728
81728.1
81728.3
81728.6
81729.1
81729.5
81730.1
81730.4
81730.9
81731
81731.1
81730.7
81730.3
81729.3
81728.1
81726.6
81724.5
81722.7
81720.1
81718.2
81715.5
81714.1
81711.8
81711.3
81709.8
81709.4
81709.3
81707.5
81709.8
19.8399
2.85165
0.767686
0.548446
0.794733
2.23104
15.4063
381.239
59.6408
4.6346
1.05035
0.391897
0.195316
0.125365
0.105272
0.115611
0.155027
0.20565
0.196264
0.126388
0.0722316
0.0461593
0.0358485
0.0342243
0.0397528
0.0553909
0.0913961
0.176478
0.392725
0.976025
2.52106
5.95561
11.4425
18.5138
30.3065
60.9955
176.61
871.041
10090.4
81734.9
81733.9
81733.4
81732.4
81732
81730.9
81730.6
81729.6
81729.2
81728.4
81728.2
81727.7
81727.7
81727.7
81727.9
81728.2
81728.4
81729
81729.2
81729.8
81729.7
81730.1
81729.7
81729.6
81728.7
81727.7
81726.7
81724.5
81723.3
81720.6
81719.1
81716.2
81715
81712.3
81711.9
81710
81710.2
81709.2
81708.8
81709.8
81710.1
27.9561
2.92295
1.05653
0.967296
1.79896
6.8103
67.1942
432.386
31.3563
4.13075
1.14046
0.472256
0.249685
0.160637
0.127238
0.126618
0.156168
0.215847
0.261811
0.216539
0.130985
0.0760729
0.0503108
0.0399561
0.0382238
0.0435555
0.058395
0.0913317
0.16611
0.351484
0.862086
2.38057
6.74449
16.6041
32.1433
55.9201
112.591
324.812
1621.68
19323.8
81734.2
81733.1
81732.6
81731.5
81731
81730
81729.6
81728.6
81728.4
81727.8
81727.7
81727.5
81727.6
81727.7
81728
81728.4
81728.6
81729.1
81729.2
81729.6
81729.4
81729.5
81728.8
81728.2
81727.1
81725.4
81724.1
81722.1
81720.4
81718.5
81716.9
81714.7
81713.7
81712.1
81711.9
81711.1
81711.4
81711.4
81711.9
81714
25.706
3.20504
1.58642
1.91355
4.91475
28.9611
260.458
83.6568
10.4502
2.48386
0.912824
0.445442
0.263327
0.180603
0.143967
0.136927
0.158594
0.21895
0.318464
0.372722
0.284826
0.164765
0.0948127
0.0625545
0.0491174
0.0457823
0.0500544
0.0635578
0.0934362
0.159917
0.323035
0.783254
2.28965
7.68567
24.9972
61.6398
115.956
228.888
643.142
3214.96
40497.1
81733
81731.8
81731.2
81730.2
81729.7
81728.8
81728.5
81727.8
81727.8
81727.5
81727.6
81727.7
81728
81728.3
81728.7
81729.1
81729.4
81729.9
81729.9
81730
81729.5
81729.2
81728.2
81727
81725.9
81724.1
81722.4
81720.7
81718.6
81715.2
81714.4
81712.7
81712.5
81711.8
81712.5
81712.4
81713
81714.3
81715.4
20.3559
3.87667
2.66539
4.38686
16.7149
133.484
129.773
16.9948
3.8113
1.3465
0.632666
0.363716
0.243097
0.182612
0.152846
0.14525
0.161967
0.217128
0.342677
0.552231
0.658256
0.46845
0.250163
0.136242
0.0860791
0.0646164
0.0571461
0.058792
0.0698798
0.0962274
0.155648
0.302965
0.732778
2.27385
9.07296
41.107
143.785
296.874
546.642
1452.81
7271.17
81732
81731.3
81730.3
81729.6
81728.8
81728.4
81727.9
81727.8
81727.5
81727.7
81727.8
81728.1
81728.5
81729
81729.5
81730
81730.4
81730.6
81730.8
81730.7
81730.6
81730
81728.9
81727.7
81725.6
81723
81721.4
81719.3
81717.3
81715.2
81713.8
81712.3
81711.9
81711.5
81712.2
81712.7
81713.5
81715.1
81716.2
17.2173
5.29988
5.13445
11.8685
60.6043
142.197
25.6965
5.14938
1.70315
0.777346
0.43796
0.28839
0.214882
0.176583
0.157676
0.153935
0.169143
0.218044
0.341923
0.64795
1.26501
1.6134
1.00412
0.453423
0.218861
0.126557
0.0880115
0.0722561
0.0689986
0.0763409
0.0987115
0.152262
0.289257
0.707114
2.35534
11.4034
80.2887
524.06
1200.84
1669.35
3628.97
16518.4
81730.4
81729.7
81728.9
81728.4
81727.9
81727.7
81727.6
81727.7
81727.9
81728.2
81728.8
81729.3
81730
81730.5
81730.9
81731.3
81731.8
81732.1
81731.8
81731.2
81729.5
81728.7
81726.9
81725
81723.2
81721.1
81718.9
81716.3
81714.2
81712.2
81711
81710
81710.1
81710.5
81711.4
81713
81713.9
81716.1
17.0174
8.35109
11.4766
34.7461
100.5
36.1456
7.14898
2.1551
0.928143
0.507279
0.327522
0.240402
0.196022
0.174116
0.165718
0.168273
0.185476
0.230953
0.343549
0.649887
1.63004
4.68642
6.78546
2.90422
0.936452
0.373331
0.190967
0.120406
0.0904493
0.0796029
0.0820457
0.10037
0.149457
0.281183
0.705422
2.56704
15.7531
222.258
8928.58
15293
5907.4
8245.19
32438.5
81729
81728.8
81728.3
81728
81727.8
81727.8
81728.1
81728.4
81729
81729.5
81730.1
81730.8
81731.4
81732.1
81732.5
81732.5
81732
81732.1
81731.4
81730.6
81729.3
81727.8
81725.8
81723.9
81721.8
81719.4
81716.8
81714.4
81712.3
81710.5
81709.5
81709.1
81709.6
81710.7
81711.7
81713.7
81715.3
20.2157
15.2697
28.1855
69.8713
44.9976
10.1805
2.87604
1.15805
0.605503
0.380674
0.274361
0.220439
0.193961
0.184057
0.18549
0.19647
0.219823
0.267414
0.373316
0.647126
1.56507
6.46261
52.5526
82.4837
10.3012
2.01067
0.645516
0.28728
0.161814
0.110265
0.0893726
0.0863579
0.101088
0.147358
0.278741
0.729767
2.97411
24.7401
1264.99
81733
56632.1
11400.7
15756
65809.6
81728.8
81728.8
81728.3
81728.3
81728.3
81728.6
81729
81729.4
81730
81730.8
81731.5
81732.1
81732.4
81732.2
81732.8
81733
81733.2
81732.9
81732.4
81731.6
81730.5
81729.1
81727.5
81725.6
81723.2
81720.7
81717.8
81715.3
81712.9
81711.3
81710.4
81710.5
81711.3
81712.7
81714.3
81716.7
28.7971
31.0827
57.7844
52.7346
14.8524
4.05551
1.53242
0.764498
0.466656
0.330344
0.262171
0.228336
0.21508
0.216404
0.229517
0.253364
0.28986
0.348891
0.46075
0.716969
1.47208
5.01639
58.087
81743.3
3373.82
34.5547
4.32929
1.11054
0.422002
0.209912
0.129471
0.0971953
0.0890105
0.101053
0.146301
0.282535
0.786442
3.67902
42.8044
12879.9
81732.7
52871.2
18532.3
30471.7
81729.8
81729.1
81729
81728.7
81728.6
81728.7
81729
81729.6
81730.1
81730.4
81730.4
81731.3
81731.8
81732.4
81733.2
81734
81734.7
81735.2
81735.5
81735.7
81735.5
81734.9
81733.9
81732.3
81730
81727.1
81723.9
81720.5
81717.3
81714.8
81713.3
81712.9
81713.5
81714.7
81716.4
81718.8
47.2214
58.5669
60.0321
22.0308
6.05428
2.15201
1.0215
0.605523
0.422472
0.333288
0.289687
0.272611
0.274243
0.291786
0.324708
0.373235
0.438697
0.528499
0.669753
0.94382
1.61854
3.96608
20.2504
407.075
81743
81743.3
121.659
9.38842
1.85859
0.592916
0.259448
0.145651
0.10241
0.0901025
0.100617
0.14676
0.293899
0.883391
4.74637
74.089
81733.5
81732.7
74909.1
32951.6
62397
81729.6
81729.1
81728.8
81728.5
81728.4
81728.6
81728.5
81728.2
81728.9
81729.4
81730.1
81730.8
81731.8
81732.9
81734.5
81735.8
81737.4
81738.6
81739.9
81740.6
81741
81740.4
81739.2
81736.8
81733.7
81729.7
81725.6
81721.5
81718.1
81716
81715.1
81715.7
81716.4
81718.5
81720.7
77.2117
70.1391
32.0479
9.39702
3.19465
1.43997
0.826777
0.569917
0.45021
0.394792
0.376152
0.383452
0.413236
0.466113
0.545037
0.653287
0.792445
0.965049
1.19078
1.54459
2.2533
4.11278
11.2521
54.9128
656.941
81743.6
81743.3
461.444
19.9732
2.94623
0.783574
0.303538
0.157035
0.104913
0.0899605
0.100208
0.149363
0.314341
1.0274
6.36214
133.528
81733.1
81732.2
81731.5
63042.8
81730
81728.6
81728.4
81727.8
81727.5
81726.5
81726.7
81726.7
81727
81727.5
81728
81729.1
81730.1
81731.9
81733.6
81735.8
81737.8
81740.1
81741.8
81743.4
81744.1
81744.2
81743
81740.8
81737.4
81733.2
81728.5
81723.9
81720.1
81717.4
81716.7
81716.4
81718.1
81719.7
81722.6
93.7337
45.9073
14.7029
4.91998
2.12201
1.17911
0.803023
0.638411
0.570749
0.558834
0.588053
0.655352
0.764022
0.922111
1.14174
1.43601
1.80994
2.25006
2.73761
3.31318
4.18597
5.96881
10.73
27.5192
115.932
1130.81
81743.7
81743.3
2327.49
40.27
4.31617
0.965236
0.33614
0.162887
0.105007
0.0890357
0.100329
0.154876
0.346665
1.25073
9.20326
293.767
81732.1
81731.2
81730.4
81729.2
81728.7
81727.1
81727
81725.6
81725.6
81725
81724.8
81724.9
81725.1
81725.8
81726.6
81728.1
81729.6
81731.7
81733.8
81736.3
81738.5
81740.9
81742.4
81743.6
81743.7
81743
81740.9
81737.9
81733.9
81729.5
81725.1
81721.4
81719.2
81717.9
81718.6
81719.6
81722.2
81725
68.7842
23.061
7.70694
3.215
1.73458
1.16831
0.937859
0.86201
0.879738
0.974626
1.15188
1.43083
1.84236
2.42858
3.2438
4.34917
5.77521
7.42629
9.00657
10.2152
11.1842
12.6899
16.472
27.7477
67.3403
265.398
2437.48
81743.6
81743.3
24766.1
73.8385
5.76202
1.10699
0.353648
0.163397
0.10328
0.0879008
0.101659
0.16494
0.399658
1.63547
15.1338
1005.84
81730.9
81729.9
81729.1
81727.4
81727.3
81725.1
81725.2
81724.2
81723.5
81723.1
81722.9
81723.2
81723.5
81724.4
81725.4
81727.1
81728.6
81730.9
81732.8
81735.2
81737
81738.8
81739.8
81740.4
81739.8
81738.6
81736.2
81733.2
81729.6
81726.1
81723.4
81721.5
81721.3
81721.8
81723.9
81726.4
81730
36.9877
12.2253
4.94818
2.59563
1.72984
1.40564
1.33744
1.44125
1.71485
2.20963
3.03392
4.36988
6.49268
9.78119
14.7191
21.873
31.6481
43.2375
52.8745
55.2833
50.3088
43.7279
41.2182
48.5196
78.0929
182.42
686.483
5974.16
81743.4
81742.9
81742.1
118.428
6.97396
1.18525
0.355384
0.159585
0.10061
0.0873596
0.105427
0.183112
0.491657
2.36537
30.2275
11085.1
81729.4
81728.2
81727.4
81725.8
81725.5
81723.4
81723.1
81722.1
81721.6
81721.4
81721.3
81721.8
81722.2
81723.3
81724.2
81725.8
81727.2
81729.1
81730.6
81732.4
81733.6
81734.8
81735.2
81735.3
81734.4
81733.1
81730.9
81728.6
81726.3
81724.6
81723.9
81724
81725.4
81727.3
81730.5
81734.1
19.6929
7.70775
3.92122
2.57632
2.11565
2.09121
2.40559
3.1356
4.54138
7.20326
12.3551
22.5814
43.0996
83.6653
160.654
298.531
525.749
832.866
1051.73
924.397
578.195
318.409
192.836
150.295
161.422
245.103
545.687
1968.81
15644.3
81742.8
81741.9
81741
156.403
7.64138
1.19135
0.343915
0.15328
0.0982243
0.0886156
0.113709
0.216014
0.661245
3.93111
81.2483
81728.3
81727.5
81726.3
81725.5
81724
81723.4
81721.7
81721.5
81720.9
81720.6
81720.7
81720.9
81721.5
81722
81723
81723.9
81725.2
81726.2
81727.5
81728.3
81729.3
81729.6
81729.9
81729.6
81729
81727.7
81726.2
81724.5
81723.1
81722.3
81721.9
81722.6
81723.8
81726
81728.9
81732.8
12.0994
5.955
3.83821
3.16515
3.23921
3.9949
5.79797
9.74893
18.8625
42.0571
108.906
330.853
1185.98
4991.25
24557.9
81749.9
81746.9
81744.3
81743.2
81743.8
81744.7
12186.8
2649.08
1022.48
637.018
603.437
847.938
1800.11
6294.05
45450.6
81741.8
81740.8
81739.8
176.376
7.63167
1.13602
0.324751
0.146955
0.0976736
0.0933521
0.130031
0.276986
1.00143
7.91428
337.119
81726.5
81725.8
81724.8
81724.2
81723
81722.7
81721.7
81722
81721.9
81722.1
81722.6
81723.1
81723.8
81724.6
81725.3
81726
81726.6
81726.9
81726.9
81726.6
81726
81725
81723.7
81722.1
81720.2
81718.3
81716.4
81715.1
81714.1
81713.8
81713.9
81714.9
81716.4
81719.1
81722.7
9.02647
5.6881
4.68106
4.92065
6.47443
10.5212
21.085
52.9741
174.522
832.44
7243.12
81762.9
81759.5
81756.1
81753.1
81750.4
81747.7
81744.9
81743.3
81743.6
81744.5
81745.3
81745.2
33512.9
6694.98
3104.68
2519.78
3251.94
6593.41
22259
81741.7
81740.6
81739.3
81738
170.425
7.06033
1.04673
0.304903
0.143307
0.100822
0.104186
0.161158
0.396167
1.77221
20.8256
4496.28
81726
81725.8
81725.1
81725
81724.7
81724.8
81724.9
81725.8
81726.4
81727.3
81728
81728.9
81729.4
81730
81730
81729.8
81728.9
81727.7
81725.8
81723.7
81720.9
81718
81714.7
81711.6
81708.5
81706.1
81703.9
81702.3
81701.2
81700.8
81701
81702.3
81704.5
81707.8
8.31963
6.79327
7.27786
10.1199
18.2993
44.1353
152.141
883.831
13826.8
81768.5
81766.4
81763.3
81759.7
81756.2
81753.1
81750.8
81748.5
81745.9
81743.8
81743.7
81744.7
81745.5
81745.6
81746
81746.2
54925.3
17585.4
11876.1
13875
26407
81741.1
81739.7
81738.2
81736.8
81735.4
145.782
6.22473
0.95503
0.291009
0.145154
0.110304
0.125886
0.221667
0.650953
3.84266
83.466
81727.8
81727.6
81728
81728.2
81728.9
81729.6
81730.5
81731.5
81732.9
81733.8
81734.9
81735.4
81735.9
81735.6
81735.1
81733.6
81731.9
81729.2
81726.1
81722.4
81718.4
81713.9
81709.7
81705.4
81701.6
81698.3
81695.6
81693.5
81691.9
81691.1
81691.2
81692.2
81694.3
81697.1
9.60525
10.3805
15.086
29.9901
86.489
421.353
5334.67
81770
81770.2
81769.1
81766.9
81763.6
81759.8
81756.1
81753
81750.9
81749.3
81747.2
81745.1
81744.4
81745.4
81746
81746.5
81746.9
81747
81746.5
81745.5
81744.3
63436.5
64359.1
81739.8
81738
81736.5
81735.1
81734.1
81733.2
116.684
5.41316
0.886211
0.289015
0.1561
0.13071
0.168396
0.347094
1.27118
10.8836
645.844
81730.9
81731.7
81732.8
81733.9
81735.2
81736.3
81737.7
81738.7
81739.6
81740.1
81740.5
81740.2
81739.5
81738.3
81736.5
81734
81731
81727.4
81723.4
81719.1
81714.5
81710.2
81706
81702.4
81699.3
81696.9
81694.9
81693.7
81693.3
81693.6
81695
81697.1
81699.8
14.2074
21.1914
45.4501
153.915
1061.6
36643.3
81769.1
81770.6
81770.8
81769.7
81767.2
81763.8
81759.8
81755.8
81752.7
81750.8
81749.8
81748.4
81746.7
81745.9
81746.3
81747
81747.5
81747.5
81747.2
81746.1
81744.9
81743.3
81741.6
81739.7
81737.8
81736
81734.7
81733.7
81733.1
81732.6
81732.1
92.7065
4.81098
0.859327
0.305808
0.18218
0.171378
0.255099
0.635338
3.06342
44.7933
39965.5
81736
81737.1
81738.1
81738.9
81739.8
81740.3
81741
81741.4
81741.5
81741.4
81740.9
81740.3
81739.1
81737.7
81735.6
81733.3
81730.4
81727.4
81723.8
81720.5
81717.1
81714.2
81711.6
81709.7
81708.3
81707.5
81707.1
81707.6
81708.7
81710.5
81713
81715.8
28.0306
62.7501
240.143
2265
81763.7
81766.9
81769.4
81770.9
81771.2
81770
81767.4
81763.8
81759.5
81755.4
81752.2
81750.4
81749.8
81749.4
81748.2
81747.3
81747.2
81747.7
81747.9
81747.5
81746.5
81745.2
81743.6
81741.7
81739.6
81737.6
81735.8
81734.4
81733.4
81732.9
81732.5
81732.2
81731.7
81731.9
75.5464
4.50219
0.893234
0.35248
0.235498
0.253767
0.447388
1.3966
9.63366
322.651
81738
81738.4
81738.5
81738.8
81738.8
81739.1
81739.1
81739.3
81739.8
81739.9
81740.1
81739.9
81739.7
81738.9
81738.1
81736.7
81735.1
81733.1
81731.1
81728.8
81726.9
81725.1
81723.9
81723.3
81723
81723.1
81723.9
81725.1
81726.9
81729.4
81732.3
81735.5
79.5382
322.275
3760.63
81759.9
81763.6
81767
81769.6
81771.2
81771.4
81770.2
81767.5
81763.7
81759.2
81755
81751.6
81749.8
81749.4
81749.4
81749.2
81748.1
81747.6
81747.7
81747.4
81746.6
81745.4
81743.8
81741.9
81739.8
81737.7
81735.8
81734.4
81733.4
81732.8
81732.3
81732.1
81731.7
81732
81731.7
81731.6
65.0168
4.56109
1.01788
0.451324
0.343599
0.432654
0.928698
3.81858
42.765
7516.83
81735.7
81735.8
81735.9
81736.6
81737.1
81738.3
81739
81739.9
81740.9
81741.5
81742
81742.2
81742
81741.5
81740.6
81739.6
81738
81736.6
81734.9
81733.6
81732.5
81732
81731.8
81732
81732.9
81733.8
81735.7
81737.8
81740.5
81743.7
31873.4
381.665
4715.46
81755.9
81759.7
81763.5
81766.9
81769.6
81771.3
81771.6
81770.3
81767.5
81763.5
81758.9
81754.4
81750.9
81749
81748.8
81749.3
81749.2
81748.3
81747.5
81747.1
81746.5
81745.5
81744.1
81742.2
81740.1
81738
81736.2
81734.9
81733.8
81733.1
81732.6
81732.3
81731.8
81732.1
81731.7
81731.4
81731.2
65856.3
61.5462
5.11934
1.29557
0.653491
0.576188
0.866969
2.34607
13.6777
324.315
81734.3
81735.3
81737
81738.6
81740.4
81741.8