/*--------------------------------*- C++ -*----------------------------------*\
  =========                 |
  \\      /  F ield         | OpenFOAM: The Open Source CFD Toolbox
   \\    /   O peration     | Website:  https://openfoam.org
    \\  /    A nd           | Version:  7
     \\/     M anipulation  |
\*---------------------------------------------------------------------------*/
FoamFile
{
    version     2.0;
    format      ascii;
    class       surfaceScalarField;
    location    "40";
    object      phi;
}
// * * * * * * * * * * * * * * * * * * * * * * * * * * * * * * * * * * * * * //

dimensions      [0 3 -1 0 0 0 0];

internalField   nonuniform List<scalar> 
99520
(
-6.77175e-09
2.605e-10
1.38742e-08
-4.49219e-09
5.08344e-09
-2.37707e-09
5.24788e-09
-1.26486e-09
6.25079e-09
1.12364e-10
5.98577e-09
-2.30446e-09
9.77982e-09
-5.52671e-10
5.61121e-09
-2.87593e-10
7.09792e-09
6.14486e-10
6.46092e-09
4.55294e-10
7.52219e-09
3.04271e-10
7.51402e-09
1.46636e-09
6.20091e-09
2.70737e-09
6.12198e-09
4.88846e-09
5.18192e-09
7.32417e-09
4.92729e-09
1.43426e-08
3.44561e-10
1.03669e-08
1.13386e-08
6.57002e-09
1.11598e-08
3.51014e-09
1.04228e-08
1.69706e-09
9.176e-09
8.64119e-10
8.19587e-09
5.02409e-10
7.72464e-09
3.22243e-10
7.54311e-09
2.19189e-10
7.46601e-09
1.55421e-10
7.42674e-09
1.13285e-10
7.40512e-09
8.39097e-11
7.39238e-09
6.26137e-11
7.38431e-09
4.67252e-11
7.37892e-09
3.45773e-11
7.37517e-09
2.51112e-11
7.37248e-09
1.76007e-11
7.37052e-09
1.15622e-11
7.36904e-09
6.63776e-12
7.36792e-09
2.57421e-12
7.36704e-09
-8.21873e-13
7.36637e-09
-3.68031e-12
7.36583e-09
-6.1047e-12
7.36541e-09
-8.15076e-12
7.36506e-09
-9.90209e-12
7.36478e-09
-1.1393e-11
7.36455e-09
-1.26833e-11
7.36435e-09
-1.37877e-11
7.36418e-09
-1.47479e-11
7.36404e-09
-1.55632e-11
7.3639e-09
-1.62775e-11
7.36377e-09
-1.68854e-11
7.36366e-09
-1.74533e-11
7.36355e-09
-1.78793e-11
7.36345e-09
-1.82226e-11
7.3633e-09
-1.83614e-11
7.36329e-09
-1.84828e-11
7.36317e-09
-1.84388e-11
7.36321e-09
-1.83893e-11
7.36312e-09
-1.82726e-11
7.3631e-09
-1.81639e-11
7.36309e-09
-1.80139e-11
7.3631e-09
-1.79302e-11
7.36305e-09
-1.78395e-11
7.36302e-09
-1.77724e-11
7.363e-09
-1.77324e-11
7.36297e-09
-1.77455e-11
7.36298e-09
-1.77869e-11
7.36295e-09
-1.79321e-11
7.36295e-09
-1.80459e-11
7.36293e-09
-1.83027e-11
7.3629e-09
-1.8407e-11
7.36291e-09
-1.87561e-11
7.3628e-09
-1.87824e-11
7.36288e-09
-1.90977e-11
7.36266e-09
-1.88691e-11
7.36283e-09
-1.90503e-11
7.3625e-09
-1.85364e-11
7.36275e-09
-1.84217e-11
7.36233e-09
-1.7458e-11
7.36268e-09
-1.68915e-11
7.36216e-09
-1.54225e-11
7.36254e-09
-1.43998e-11
7.36194e-09
-1.25999e-11
7.36229e-09
7.36197e-09
-1.14821e-11
-3.92752e-09
-1.28191e-09
5.46991e-09
-2.90278e-09
4.05871e-09
-2.48779e-09
4.83289e-09
-2.19778e-09
5.96079e-09
-2.18657e-09
5.97456e-09
-1.18523e-09
8.77849e-09
-1.49631e-11
4.44094e-09
2.25505e-10
6.85746e-09
-5.8685e-10
7.27328e-09
3.71321e-10
6.56402e-09
1.43347e-09
6.45188e-09
1.98503e-09
5.64935e-09
3.06745e-09
5.03956e-09
4.42746e-09
3.8219e-09
4.64981e-09
4.70495e-09
5.63969e-09
-6.45372e-10
1.16362e-08
5.342e-09
1.06873e-08
1.21087e-08
7.52391e-09
1.35861e-08
4.61755e-09
1.20823e-08
2.69925e-09
1.01141e-08
1.6173e-09
8.80652e-09
1.02837e-09
8.13199e-09
6.92693e-10
7.80164e-09
4.87186e-10
7.63222e-09
3.52914e-10
7.53939e-09
2.60444e-10
7.48486e-09
1.94082e-10
7.45069e-09
1.44885e-10
7.42814e-09
1.07457e-10
7.41261e-09
7.83838e-11
7.40158e-09
5.5388e-11
7.39351e-09
3.69352e-11
7.38751e-09
2.19176e-11
7.38292e-09
9.56333e-12
7.37941e-09
-7.18526e-13
7.37662e-09
-9.33828e-12
7.37445e-09
-1.66173e-11
7.37267e-09
-2.27788e-11
7.37126e-09
-2.80388e-11
7.37007e-09
-3.25269e-11
7.36911e-09
-3.63881e-11
7.36827e-09
-3.96966e-11
7.36758e-09
-4.25468e-11
7.36694e-09
-4.49896e-11
7.36641e-09
-4.70794e-11
7.36591e-09
-4.89002e-11
7.36549e-09
-5.04607e-11
7.36505e-09
-5.18037e-11
7.36467e-09
-5.26808e-11
7.36437e-09
-5.34393e-11
7.36403e-09
-5.37678e-11
7.36388e-09
-5.40475e-11
7.36351e-09
-5.3995e-11
7.36339e-09
-5.38397e-11
7.3633e-09
-5.35255e-11
7.3631e-09
-5.32307e-11
7.36292e-09
-5.27621e-11
7.36275e-09
-5.22694e-11
7.36261e-09
-5.16956e-11
7.36248e-09
-5.1105e-11
7.36238e-09
-5.05109e-11
7.3623e-09
-4.99374e-11
7.36222e-09
-4.93969e-11
7.36219e-09
-4.89393e-11
7.36209e-09
-4.84372e-11
7.36214e-09
-4.81298e-11
7.36199e-09
-4.76353e-11
7.36211e-09
-4.74831e-11
7.36186e-09
-4.68419e-11
7.36206e-09
-4.67022e-11
7.36171e-09
-4.57919e-11
7.36196e-09
-4.55716e-11
7.36152e-09
-4.42062e-11
7.36181e-09
-4.36674e-11
7.3613e-09
-4.16886e-11
7.36157e-09
-4.06459e-11
7.36105e-09
-3.80894e-11
7.36115e-09
-3.6559e-11
7.36106e-09
7.36136e-09
-3.41841e-11
-1.76551e-09
-1.8626e-09
2.34614e-09
-6.65293e-11
2.35972e-09
-3.39545e-09
8.16181e-09
-2.10641e-09
4.67175e-09
-2.25229e-09
6.12045e-09
-1.6912e-10
6.69532e-09
-1.94392e-10
4.46622e-09
2.93294e-10
6.36978e-09
-1.03895e-09
8.60553e-09
-1.73067e-11
5.54238e-09
1.16162e-09
5.27295e-09
2.02327e-09
4.78771e-09
3.08046e-09
3.98238e-09
3.94172e-09
2.96064e-09
5.03924e-09
3.6074e-09
4.83103e-09
-4.37232e-10
6.98097e-09
3.19198e-09
8.80398e-09
1.02856e-08
8.19924e-09
1.41908e-08
6.17901e-09
1.41025e-08
4.11202e-09
1.2181e-08
2.62466e-09
1.02938e-08
1.70711e-09
9.04949e-09
1.15718e-09
8.35154e-09
8.15134e-10
7.97424e-09
5.90808e-10
7.76371e-09
4.36303e-10
7.63936e-09
3.25455e-10
7.56156e-09
2.43233e-10
7.51034e-09
1.80664e-10
7.4752e-09
1.31972e-10
7.45024e-09
9.34652e-11
7.43205e-09
6.24841e-11
7.41846e-09
3.7309e-11
7.40813e-09
1.65313e-11
7.40013e-09
-6.95249e-13
7.39388e-09
-1.51881e-11
7.38889e-09
-2.73584e-11
7.3849e-09
-3.77464e-11
7.38161e-09
-4.65408e-11
7.37894e-09
-5.41264e-11
7.37668e-09
-6.05783e-11
7.3748e-09
-6.61773e-11
7.37316e-09
-7.09372e-11
7.37177e-09
-7.50545e-11
7.37053e-09
-7.85339e-11
7.36944e-09
-8.15914e-11
7.36837e-09
-8.41289e-11
7.36754e-09
-8.61913e-11
7.36669e-09
-8.78167e-11
7.36605e-09
-8.88807e-11
7.36543e-09
-8.98234e-11
7.36479e-09
-9.00599e-11
7.36435e-09
-9.02203e-11
7.36388e-09
-9.00539e-11
7.36339e-09
-8.97366e-11
7.36296e-09
-8.91543e-11
7.36252e-09
-8.84133e-11
7.36215e-09
-8.74891e-11
7.3618e-09
-8.64308e-11
7.36149e-09
-8.52835e-11
7.36123e-09
-8.40304e-11
7.36097e-09
-8.27753e-11
7.36081e-09
-8.14623e-11
7.36059e-09
-8.01874e-11
7.36051e-09
-7.88856e-11
7.36034e-09
-7.7604e-11
7.36031e-09
-7.63657e-11
7.36015e-09
-7.50505e-11
7.36014e-09
-7.38014e-11
7.36001e-09
-7.23089e-11
7.35997e-09
-7.09748e-11
7.35984e-09
-6.91999e-11
7.35975e-09
-6.76413e-11
7.35968e-09
-6.54413e-11
7.35951e-09
-6.3465e-11
7.35952e-09
-6.0731e-11
7.35921e-09
-5.79431e-11
7.35939e-09
-5.49556e-11
7.35935e-09
7.35973e-09
-5.27031e-11
-8.18953e-10
-1.43929e-09
3.95585e-10
-1.35343e-09
2.89416e-09
-1.42587e-09
8.23422e-09
-4.45446e-11
3.29042e-09
-6.66773e-12
6.08257e-09
1.59866e-11
6.67265e-09
-9.42489e-12
4.49162e-09
-6.4199e-11
6.42453e-09
-2.95793e-09
1.14992e-08
-1.82616e-10
2.76706e-09
1.04224e-10
4.98611e-09
7.44305e-10
4.14763e-09
2.30561e-09
2.42107e-09
2.95049e-09
2.31574e-09
3.69156e-09
2.86627e-09
2.97091e-09
2.83343e-10
3.97124e-09
2.19158e-09
6.20407e-09
8.05269e-09
7.23129e-09
1.31635e-08
6.50784e-09
1.48259e-08
4.91729e-09
1.37715e-08
3.38797e-09
1.18231e-08
2.28266e-09
1.01548e-08
1.56711e-09
9.06706e-09
1.10911e-09
8.43223e-09
8.06087e-10
8.06672e-09
5.96659e-10
7.8488e-09
4.4591e-10
7.71228e-09
3.3375e-10
7.62249e-09
2.48001e-10
7.56091e-09
1.8108e-10
7.51717e-09
1.27876e-10
7.48523e-09
8.50102e-11
7.46134e-09
4.9975e-11
7.44315e-09
2.1095e-11
7.42903e-09
-3.00448e-12
7.41794e-09
-2.32094e-11
7.40911e-09
-4.0329e-11
7.40198e-09
-5.4835e-11
7.39615e-09
-6.72639e-11
7.39135e-09
-7.78766e-11
7.38732e-09
-8.70285e-11
7.38393e-09
-9.48708e-11
7.381e-09
-1.01622e-10
7.3785e-09
-1.07395e-10
7.37625e-09
-1.12404e-10
7.37427e-09
-1.16519e-10
7.37257e-09
-1.20142e-10
7.37092e-09
-1.22898e-10
7.36967e-09
-1.25177e-10
7.3683e-09
-1.26838e-10
7.36723e-09
-1.27908e-10
7.36622e-09
-1.28495e-10
7.36528e-09
-1.28781e-10
7.36432e-09
-1.28586e-10
7.3635e-09
-1.28155e-10
7.36266e-09
-1.27315e-10
7.36193e-09
-1.26256e-10
7.36122e-09
-1.24888e-10
7.36059e-09
-1.23342e-10
7.36001e-09
-1.21585e-10
7.35949e-09
-1.19703e-10
7.35904e-09
-1.17693e-10
7.35863e-09
-1.15637e-10
7.35828e-09
-1.13474e-10
7.358e-09
-1.11354e-10
7.35771e-09
-1.09076e-10
7.35756e-09
-1.06958e-10
7.35727e-09
-1.04535e-10
7.35724e-09
-1.0237e-10
7.35692e-09
-9.97049e-11
7.35698e-09
-9.74098e-11
7.3566e-09
-9.44063e-11
7.35675e-09
-9.19051e-11
7.35631e-09
-8.84433e-11
7.35658e-09
-8.55891e-11
7.35615e-09
-8.14195e-11
7.3565e-09
-7.77737e-11
7.35633e-09
-7.35561e-11
7.35679e-09
7.35722e-09
-7.03052e-11
-1.15143e-09
-6.76638e-10
3.8866e-10
-5.84867e-10
2.32755e-09
1.36006e-09
6.28924e-09
1.05943e-09
3.59103e-09
9.94115e-10
6.14783e-09
9.0738e-10
6.75934e-09
3.79241e-10
5.01969e-09
-7.73367e-10
7.57709e-09
-7.40823e-10
1.14667e-08
-4.74246e-11
2.07366e-09
8.29961e-12
4.93037e-09
2.00445e-11
4.13586e-09
9.36285e-10
1.50481e-09
1.35443e-09
1.89755e-09
2.48993e-09
1.73071e-09
2.32725e-09
4.45975e-10
2.59431e-09
1.92444e-09
4.24127e-09
6.40567e-09
5.80862e-09
1.15961e-08
6.0814e-09
1.4553e-08
5.18676e-09
1.46661e-08
3.88368e-09
1.31261e-08
2.73628e-09
1.13022e-08
1.9118e-09
9.89151e-09
1.3601e-09
8.98392e-09
9.90177e-10
8.43663e-09
7.33786e-10
8.10518e-09
5.48988e-10
7.89704e-09
4.1111e-10
7.76036e-09
3.0528e-10
7.66668e-09
2.22285e-10
7.60018e-09
1.55966e-10
7.5515e-09
1.02276e-10
7.51506e-09
5.81949e-11
7.48718e-09
2.17131e-11
7.46554e-09
-8.84771e-12
7.44843e-09
-3.45287e-11
7.43481e-09
-5.63579e-11
7.42374e-09
-7.49023e-11
7.41472e-09
-9.08374e-11
7.4072e-09
-1.04462e-10
7.40096e-09
-1.1625e-10
7.39562e-09
-1.2633e-10
7.39109e-09
-1.35081e-10
7.38707e-09
-1.42536e-10
7.38366e-09
-1.48878e-10
7.38057e-09
-1.54326e-10
7.37787e-09
-1.58669e-10
7.3755e-09
-1.62507e-10
7.37322e-09
-1.652e-10
7.37134e-09
-1.67399e-10
7.36955e-09
-1.6877e-10
7.36788e-09
-1.697e-10
7.36634e-09
-1.69941e-10
7.36487e-09
-1.69823e-10
7.36351e-09
-1.69111e-10
7.36223e-09
-1.68087e-10
7.36104e-09
-1.66578e-10
7.35993e-09
-1.64792e-10
7.3589e-09
-1.62651e-10
7.35798e-09
-1.60269e-10
7.35711e-09
-1.57668e-10
7.35638e-09
-1.54873e-10
7.35566e-09
-1.51969e-10
7.35511e-09
-1.48926e-10
7.35453e-09
-1.45818e-10
7.35414e-09
-1.42634e-10
7.35367e-09
-1.39352e-10
7.3534e-09
-1.36061e-10
7.35303e-09
-1.32543e-10
7.35283e-09
-1.29092e-10
7.35255e-09
-1.25241e-10
7.35236e-09
-1.21585e-10
7.35217e-09
-1.17316e-10
7.35202e-09
-1.13361e-10
7.35199e-09
-1.08543e-10
7.35191e-09
-1.0386e-10
7.35218e-09
-9.83946e-11
7.35226e-09
-9.33906e-11
7.35301e-09
7.35385e-09
-8.85529e-11
-1.51979e-09
8.84573e-11
7.54648e-10
-1.01997e-09
1.82767e-09
9.67084e-10
4.30217e-09
8.36055e-10
3.72203e-09
1.14807e-09
5.83578e-09
1.31959e-09
6.58777e-09
8.48935e-10
5.4903e-09
7.11402e-10
7.71457e-09
1.32715e-09
1.08509e-08
-1.269e-10
3.52765e-09
-5.50349e-10
5.35376e-09
-8.38759e-10
4.42421e-09
-9.22747e-10
1.58873e-09
1.664e-10
8.08344e-10
1.38885e-09
5.08215e-10
1.56085e-09
2.73927e-10
1.80709e-09
1.67815e-09
2.93179e-09
5.28092e-09
4.46396e-09
1.00639e-08
5.29363e-09
1.37233e-08
5.04309e-09
1.49166e-08
4.11084e-09
1.40584e-08
3.0548e-09
1.23582e-08
2.18827e-09
1.0758e-08
1.56863e-09
9.60353e-09
1.14264e-09
8.86261e-09
8.45845e-10
8.40194e-09
6.32097e-10
8.11077e-09
4.7258e-10
7.9198e-09
3.49966e-10
7.78931e-09
2.5334e-10
7.69675e-09
1.75855e-10
7.62902e-09
1.12684e-10
7.57818e-09
6.06736e-11
7.53923e-09
1.72927e-11
7.50884e-09
-1.90665e-11
7.48482e-09
-4.98901e-11
7.46554e-09
-7.60365e-11
7.44991e-09
-9.84669e-11
7.43705e-09
-1.17661e-10
7.4264e-09
-1.34241e-10
7.41745e-09
-1.48507e-10
7.40983e-09
-1.60881e-10
7.40325e-09
-1.71405e-10
7.39765e-09
-1.8057e-10
7.39259e-09
-1.88254e-10
7.38836e-09
-1.94788e-10
7.38433e-09
-2.00282e-10
7.38089e-09
-2.04642e-10
7.37773e-09
-2.08101e-10
7.37492e-09
-2.10698e-10
7.37224e-09
-2.12464e-10
7.36987e-09
-2.13508e-10
7.36754e-09
-2.13868e-10
7.36546e-09
-2.1359e-10
7.36343e-09
-2.12746e-10
7.36159e-09
-2.11329e-10
7.35983e-09
-2.09458e-10
7.35821e-09
-2.0709e-10
7.35671e-09
-2.04372e-10
7.3553e-09
-2.0126e-10
7.35406e-09
-1.97886e-10
7.35286e-09
-1.94257e-10
7.35186e-09
-1.90397e-10
7.3509e-09
-1.86457e-10
7.35008e-09
-1.82236e-10
7.34938e-09
-1.78127e-10
7.34868e-09
-1.73595e-10
7.34826e-09
-1.69356e-10
7.3476e-09
-1.64487e-10
7.34744e-09
-1.60067e-10
7.34677e-09
-1.5481e-10
7.34687e-09
-1.5014e-10
7.34618e-09
-1.44432e-10
7.34656e-09
-1.39417e-10
7.34588e-09
-1.33077e-10
7.34664e-09
-1.27271e-10
7.34625e-09
-1.20167e-10
7.34729e-09
-1.13866e-10
7.34812e-09
7.34944e-09
-1.07919e-10
-1.47553e-09
6.96156e-10
8.6777e-10
-1.28746e-09
1.63957e-09
-1.62323e-10
3.177e-09
2.08069e-12
3.55759e-09
5.83498e-10
5.25433e-09
1.10893e-09
6.06231e-09
6.77506e-10
5.92168e-09
8.46423e-10
7.54561e-09
2.28954e-09
9.40772e-09
5.45506e-10
5.27163e-09
2.88552e-10
5.61064e-09
3.93367e-10
4.31932e-09
2.24679e-10
1.75735e-09
5.27706e-10
5.0527e-10
9.94453e-10
4.14116e-11
1.12911e-09
1.39224e-10
1.32309e-09
1.48412e-09
2.09614e-09
4.50783e-09
3.38168e-09
8.77827e-09
4.41679e-09
1.26882e-08
4.63372e-09
1.46997e-08
4.09721e-09
1.45949e-08
3.22681e-09
1.32285e-08
2.38803e-09
1.15968e-08
1.73329e-09
1.02582e-08
1.26428e-09
9.3316e-09
9.3326e-10
8.73292e-09
6.94706e-10
8.34929e-09
5.17091e-10
8.09739e-09
3.80571e-10
7.92581e-09
2.7284e-10
7.80446e-09
1.86059e-10
7.71579e-09
1.15043e-10
7.64918e-09
5.61941e-11
7.59805e-09
6.94015e-12
7.55807e-09
-3.46282e-11
7.52635e-09
-6.99377e-11
7.50081e-09
-1.00103e-10
7.48002e-09
-1.26003e-10
7.46288e-09
-1.48296e-10
7.44863e-09
-1.67605e-10
7.43659e-09
-1.84296e-10
7.42634e-09
-1.98631e-10
7.41759e-09
-2.11117e-10
7.40985e-09
-2.21594e-10
7.40333e-09
-2.3086e-10
7.39717e-09
-2.38348e-10
7.39205e-09
-2.44797e-10
7.38721e-09
-2.49854e-10
7.383e-09
-2.53991e-10
7.37898e-09
-2.5692e-10
7.37546e-09
-2.59067e-10
7.37203e-09
-2.60175e-10
7.36898e-09
-2.60603e-10
7.36599e-09
-2.60155e-10
7.3633e-09
-2.59081e-10
7.36068e-09
-2.57297e-10
7.35829e-09
-2.54921e-10
7.35602e-09
-2.52011e-10
7.35391e-09
-2.48556e-10
7.35198e-09
-2.44735e-10
7.35015e-09
-2.40464e-10
7.34853e-09
-2.3593e-10
7.34701e-09
-2.31116e-10
7.34567e-09
-2.26032e-10
7.34449e-09
-2.20918e-10
7.34335e-09
-2.15358e-10
7.34256e-09
-2.10098e-10
7.34154e-09
-2.04074e-10
7.34115e-09
-1.98698e-10
7.34019e-09
-1.92155e-10
7.34019e-09
-1.86626e-10
7.33927e-09
-1.79513e-10
7.33966e-09
-1.73798e-10
7.33877e-09
-1.66013e-10
7.33957e-09
-1.59623e-10
7.33899e-09
-1.51039e-10
7.3401e-09
-1.43005e-10
7.3409e-09
-1.35007e-10
7.34227e-09
7.34403e-09
-1.2799e-10
-1.23388e-09
1.10368e-09
8.26296e-10
-1.15073e-09
1.55639e-09
-5.65836e-10
2.59208e-09
-3.9704e-10
3.38877e-09
1.49044e-10
4.70821e-09
6.10909e-10
5.60041e-09
4.71203e-10
6.06135e-09
7.6252e-10
7.25425e-09
1.91723e-09
8.25297e-09
1.04062e-09
6.14817e-09
1.19851e-09
5.45269e-09
1.44967e-09
4.06809e-09
1.15033e-09
2.05664e-09
9.70904e-10
6.8463e-10
9.57068e-10
5.52104e-11
9.33102e-10
1.63129e-10
1.04221e-09
1.37498e-09
1.57126e-09
3.97871e-09
2.57873e-09
7.77076e-09
3.60786e-09
1.1659e-08
4.10138e-09
1.42061e-08
3.90447e-09
1.47917e-08
3.2597e-09
1.38733e-08
2.50507e-09
1.23514e-08
1.85088e-09
1.09124e-08
1.35516e-09
9.82728e-09
9.9693e-10
9.09114e-09
7.37386e-10
8.60878e-09
5.44521e-10
8.29024e-09
3.96598e-10
8.07368e-09
2.79922e-10
7.92113e-09
1.85709e-10
7.80995e-09
1.0835e-10
7.72653e-09
4.39108e-11
7.66243e-09
-1.02619e-11
7.61223e-09
-5.62417e-11
7.57226e-09
-9.54626e-11
7.53999e-09
-1.29147e-10
7.51362e-09
-1.58152e-10
7.49182e-09
-1.83289e-10
7.47359e-09
-2.05076e-10
7.45818e-09
-2.23895e-10
7.44509e-09
-2.40308e-10
7.43369e-09
-2.54185e-10
7.42401e-09
-2.66554e-10
7.4151e-09
-2.76639e-10
7.4076e-09
-2.85479e-10
7.40062e-09
-2.92577e-10
7.39452e-09
-2.98541e-10
7.3888e-09
-3.03006e-10
7.38375e-09
-3.06527e-10
7.3789e-09
-3.08721e-10
7.37459e-09
-3.10109e-10
7.37038e-09
-3.10336e-10
7.36661e-09
-3.09846e-10
7.3629e-09
-3.08372e-10
7.35955e-09
-3.06224e-10
7.35631e-09
-3.03287e-10
7.35333e-09
-2.99712e-10
7.35051e-09
-2.9556e-10
7.34788e-09
-2.90827e-10
7.34547e-09
-2.857e-10
7.3432e-09
-2.80112e-10
7.34119e-09
-2.74229e-10
7.33932e-09
-2.6809e-10
7.33764e-09
-2.61591e-10
7.33622e-09
-2.55145e-10
7.3348e-09
-2.48094e-10
7.33388e-09
-2.41469e-10
7.33266e-09
-2.33846e-10
7.33227e-09
-2.27047e-10
7.33121e-09
-2.18834e-10
7.33132e-09
-2.11858e-10
7.33041e-09
-2.0303e-10
7.33101e-09
-1.95501e-10
7.33043e-09
-1.85904e-10
7.33145e-09
-1.76379e-10
7.33217e-09
-1.66413e-10
7.33346e-09
-1.5689e-10
7.33547e-09
7.33718e-09
-1.48726e-10
-1.02655e-09
1.3945e-09
7.35715e-10
-1.00753e-09
1.53735e-09
-6.99261e-10
2.2838e-09
-4.65418e-10
3.1549e-09
-5.30669e-11
4.29583e-09
3.10947e-10
5.23637e-09
4.15777e-10
5.95648e-09
7.7095e-10
6.89905e-09
1.54232e-09
7.48155e-09
1.38227e-09
6.30819e-09
1.53401e-09
5.30087e-09
1.6749e-09
3.92715e-09
1.46596e-09
2.26551e-09
1.19952e-09
9.51032e-10
1.00539e-09
2.49289e-10
8.68385e-10
3.00102e-10
8.86552e-10
1.35676e-09
1.23761e-09
3.62763e-09
2.003e-09
7.00532e-09
2.92706e-09
1.07349e-08
3.54733e-09
1.35858e-08
3.60222e-09
1.47368e-08
3.17823e-09
1.42972e-08
2.54161e-09
1.2988e-08
1.91966e-09
1.15343e-08
1.41519e-09
1.03317e-08
1.03787e-09
9.4684e-09
7.61238e-10
8.88539e-09
5.5551e-10
8.49592e-09
3.9823e-10
8.23093e-09
2.74368e-10
8.04494e-09
1.74382e-10
7.9099e-09
9.20229e-11
7.80884e-09
2.32134e-11
7.7312e-09
-3.49599e-11
7.67034e-09
-8.45387e-11
7.62174e-09
-1.27065e-10
7.58245e-09
-1.6375e-10
7.55018e-09
-1.955e-10
7.52344e-09
-2.23115e-10
7.501e-09
-2.47048e-10
7.48202e-09
-2.67998e-10
7.4657e-09
-2.85874e-10
7.45178e-09
-3.01771e-10
7.4393e-09
-3.15006e-10
7.42861e-09
-3.26612e-10
7.41889e-09
-3.36165e-10
7.41033e-09
-3.44302e-10
7.40245e-09
-3.5066e-10
7.39542e-09
-3.55854e-10
7.38881e-09
-3.59461e-10
7.38285e-09
-3.62089e-10
7.37716e-09
-3.63288e-10
7.37198e-09
-3.63638e-10
7.36698e-09
-3.62727e-10
7.3624e-09
-3.61048e-10
7.35799e-09
-3.58297e-10
7.35391e-09
-3.54828e-10
7.35003e-09
-3.50507e-10
7.3464e-09
-3.45516e-10
7.34302e-09
-3.39906e-10
7.33984e-09
-3.33704e-10
7.33694e-09
-3.2707e-10
7.33425e-09
-3.19995e-10
7.33179e-09
-3.12567e-10
7.32962e-09
-3.04925e-10
7.32758e-09
-2.9683e-10
7.32598e-09
-2.88842e-10
7.32432e-09
-2.80136e-10
7.32332e-09
-2.71877e-10
7.32202e-09
-2.62561e-10
7.32162e-09
-2.54068e-10
7.32068e-09
-2.44196e-10
7.32087e-09
-2.35272e-10
7.32041e-09
-2.24739e-10
7.32114e-09
-2.1396e-10
7.32184e-09
-2.02487e-10
7.32297e-09
-1.90406e-10
7.32498e-09
-1.79962e-10
7.32655e-09
7.32897e-09
-1.69857e-10
-8.88703e-10
1.63415e-09
6.49034e-10
-9.2816e-10
1.57679e-09
-7.62187e-10
2.1178e-09
-5.42274e-10
2.93497e-09
-1.98933e-10
3.95247e-09
1.40226e-10
4.89718e-09
3.9034e-10
5.70636e-09
7.95792e-10
6.49356e-09
1.39308e-09
6.88424e-09
1.53962e-09
6.16157e-09
1.67325e-09
5.16719e-09
1.73533e-09
3.865e-09
1.58741e-09
2.41337e-09
1.33314e-09
1.20526e-09
1.07663e-09
5.05758e-10
8.71927e-10
5.04782e-10
8.11815e-10
1.41685e-09
1.0267e-09
3.41273e-09
1.59523e-09
6.43676e-09
2.37953e-09
9.95059e-09
3.02695e-09
1.29383e-08
3.24693e-09
1.45168e-08
3.01299e-09
1.45311e-08
2.50646e-09
1.34945e-08
1.9403e-09
1.21004e-08
1.44432e-09
1.08277e-08
1.05699e-09
9.85567e-09
7.67452e-10
9.17492e-09
5.51116e-10
8.71218e-09
3.8607e-10
8.39597e-09
2.56471e-10
8.17446e-09
1.52011e-10
8.01435e-09
6.58674e-11
7.89489e-09
-6.2786e-12
7.80333e-09
-6.75655e-11
7.73147e-09
-1.19962e-10
7.67412e-09
-1.65239e-10
7.6275e-09
-2.04372e-10
7.58924e-09
-2.38471e-10
7.55736e-09
-2.68153e-10
7.53054e-09
-2.94141e-10
7.50775e-09
-3.166e-10
7.48822e-09
-3.36459e-10
7.47113e-09
-3.5337e-10
7.45629e-09
-3.68116e-10
7.4431e-09
-3.80572e-10
7.43137e-09
-3.91194e-10
7.4208e-09
-3.99857e-10
7.41123e-09
-4.06991e-10
7.40246e-09
-4.1239e-10
7.3944e-09
-4.16489e-10
7.38692e-09
-4.1902e-10
7.37995e-09
-4.20421e-10
7.37342e-09
-4.20403e-10
7.36729e-09
-4.19389e-10
7.36151e-09
-4.17111e-10
7.35606e-09
-4.13941e-10
7.35092e-09
-4.09685e-10
7.34608e-09
-4.04633e-10
7.34152e-09
-3.98702e-10
7.33726e-09
-3.92074e-10
7.33326e-09
-3.84782e-10
7.32959e-09
-3.76915e-10
7.32615e-09
-3.68578e-10
7.32307e-09
-3.59803e-10
7.32019e-09
-3.50662e-10
7.31773e-09
-3.41239e-10
7.31543e-09
-3.3146e-10
7.3136e-09
-3.21535e-10
7.31192e-09
-3.11177e-10
7.31071e-09
-3.00825e-10
7.30967e-09
-2.89975e-10
7.30909e-09
-2.79185e-10
7.3088e-09
-2.67809e-10
7.30891e-09
-2.55682e-10
7.30969e-09
-2.43064e-10
7.31052e-09
-2.29098e-10
7.31243e-09
-2.16183e-10
7.31375e-09
-2.03448e-10
7.3162e-09
7.31841e-09
-1.92199e-10
-7.88486e-10
1.84815e-09
5.74488e-10
-8.67257e-10
1.65555e-09
-7.88325e-10
2.03886e-09
-6.08935e-10
2.75556e-09
-3.18372e-10
3.66189e-09
9.69417e-12
4.5691e-09
3.34706e-10
5.38132e-09
7.67401e-10
6.06086e-09
1.29934e-09
6.35224e-09
1.58171e-09
5.87917e-09
1.753e-09
4.99583e-09
1.79961e-09
3.81834e-09
1.67336e-09
2.53959e-09
1.43023e-09
1.44834e-09
1.15119e-09
7.84799e-10
9.07434e-10
7.48499e-10
7.87426e-10
1.53687e-09
8.96789e-10
3.30333e-09
1.30753e-09
6.02605e-09
1.9489e-09
9.30916e-09
2.56419e-09
1.2323e-08
2.87752e-09
1.42034e-08
2.79258e-09
1.46161e-08
2.41187e-09
1.38751e-08
1.9156e-09
1.25967e-08
1.44281e-09
1.13004e-08
1.05481e-09
1.02437e-08
7.56982e-10
9.47265e-09
5.32418e-10
8.93676e-09
3.60924e-10
8.56736e-09
2.26791e-10
8.30861e-09
1.18813e-10
8.12222e-09
2.9952e-11
7.98375e-09
-4.4747e-11
7.87787e-09
-1.08219e-10
7.79492e-09
-1.62927e-10
7.72859e-09
-2.10196e-10
7.67471e-09
-2.51406e-10
7.63028e-09
-2.8739e-10
7.59317e-09
-3.18879e-10
7.56192e-09
-3.46453e-10
7.53516e-09
-3.70629e-10
7.51212e-09
-3.91724e-10
7.492e-09
-4.09977e-10
7.47441e-09
-4.25764e-10
7.45872e-09
-4.39196e-10
7.44477e-09
-4.50561e-10
7.43208e-09
-4.59917e-10
7.42062e-09
-4.67486e-10
7.41001e-09
-4.73298e-10
7.4003e-09
-4.77523e-10
7.39119e-09
-4.80186e-10
7.38277e-09
-4.81413e-10
7.37477e-09
-4.81251e-10
7.36733e-09
-4.79775e-10
7.36024e-09
-4.77079e-10
7.3536e-09
-4.73179e-10
7.3473e-09
-4.68241e-10
7.34136e-09
-4.62219e-10
7.33578e-09
-4.5535e-10
7.33049e-09
-4.47548e-10
7.32563e-09
-4.39078e-10
7.321e-09
-4.29873e-10
7.31683e-09
-4.20133e-10
7.31289e-09
-4.09892e-10
7.3094e-09
-3.99152e-10
7.30622e-09
-3.88172e-10
7.3034e-09
-3.76612e-10
7.30106e-09
-3.65074e-10
7.29889e-09
-3.52796e-10
7.29746e-09
-3.40813e-10
7.29596e-09
-3.27904e-10
7.29552e-09
-3.15494e-10
7.2948e-09
-3.01712e-10
7.29551e-09
-2.88132e-10
7.29579e-09
-2.72674e-10
7.29761e-09
-2.57882e-10
7.29868e-09
-2.42289e-10
7.30115e-09
-2.28437e-10
7.30308e-09
7.30628e-09
-2.14628e-10
-7.08768e-10
2.04604e-09
5.10866e-10
-8.08845e-10
1.75562e-09
-7.81266e-10
2.01127e-09
-6.42149e-10
2.61644e-09
-3.97092e-10
3.41682e-09
-8.57115e-11
4.2577e-09
2.69713e-10
5.02589e-09
7.08015e-10
5.62251e-09
1.20016e-09
5.86007e-09
1.54719e-09
5.53204e-09
1.75787e-09
4.7851e-09
1.81718e-09
3.75896e-09
1.71334e-09
2.64338e-09
1.48931e-09
1.67238e-09
1.2116e-09
1.06247e-09
9.51099e-10
1.00903e-09
7.89758e-10
1.69819e-09
8.18391e-10
3.27476e-09
1.10324e-09
5.74115e-09
1.61284e-09
8.79961e-09
2.16472e-09
1.17711e-08
2.51802e-09
1.38501e-08
2.5404e-09
1.45936e-08
2.27123e-09
1.41443e-08
1.85001e-09
1.30179e-08
1.41157e-09
1.17388e-08
1.03153e-09
1.06237e-08
7.30557e-10
9.7736e-09
5.0017e-10
9.1671e-09
3.23723e-10
8.74378e-09
1.85858e-10
8.44643e-09
7.53118e-11
8.23273e-09
-1.56449e-11
8.07464e-09
-9.2003e-11
7.95417e-09
-1.57176e-10
7.85999e-09
-2.13378e-10
7.78472e-09
-2.62284e-10
7.72349e-09
-3.05066e-10
7.67289e-09
-3.42526e-10
7.63061e-09
-3.75562e-10
7.59465e-09
-4.04552e-10
7.56393e-09
-4.30091e-10
7.5373e-09
-4.52288e-10
7.51413e-09
-4.71722e-10
7.49358e-09
-4.88368e-10
7.4754e-09
-5.0273e-10
7.45894e-09
-5.14686e-10
7.44414e-09
-5.24697e-10
7.43048e-09
-5.32573e-10
7.41805e-09
-5.3875e-10
7.40639e-09
-5.42999e-10
7.39566e-09
-5.45725e-10
7.38548e-09
-5.46704e-10
7.37603e-09
-5.46288e-10
7.36701e-09
-5.44316e-10
7.35858e-09
-5.41037e-10
7.35054e-09
-5.36419e-10
7.34297e-09
-5.3057e-10
7.33581e-09
-5.23633e-10
7.32903e-09
-5.15549e-10
7.32271e-09
-5.06636e-10
7.31669e-09
-4.9671e-10
7.31119e-09
-4.8617e-10
7.30597e-09
-4.74833e-10
7.30128e-09
-4.62973e-10
7.29692e-09
-4.50623e-10
7.29302e-09
-4.3767e-10
7.28964e-09
-4.24606e-10
7.28651e-09
-4.10698e-10
7.28419e-09
-3.97099e-10
7.28185e-09
-3.82345e-10
7.28068e-09
-3.68301e-10
7.27922e-09
-3.52728e-10
7.27933e-09
-3.37893e-10
7.27897e-09
-3.20997e-10
7.28041e-09
-3.04693e-10
7.28116e-09
-2.86836e-10
7.28347e-09
-2.70316e-10
7.28508e-09
-2.53624e-10
7.2882e-09
7.29127e-09
-2.38358e-10
-6.44058e-10
2.23325e-09
4.56868e-10
-7.55606e-10
1.86717e-09
-7.59197e-10
2.01487e-09
-6.53188e-10
2.51043e-09
-4.43163e-10
3.2068e-09
-1.50569e-10
3.9651e-09
2.09361e-10
4.66595e-09
6.38596e-10
5.19325e-09
1.09757e-09
5.40107e-09
1.46405e-09
5.16553e-09
1.69858e-09
4.55055e-09
1.77959e-09
3.6779e-09
1.7057e-09
2.71725e-09
1.51082e-09
1.86721e-09
1.25026e-09
1.32306e-09
9.89123e-10
1.27013e-09
8.02422e-10
1.88496e-09
7.70405e-10
3.30674e-09
9.55383e-10
5.55624e-09
1.34912e-09
8.40584e-09
1.82454e-09
1.12957e-08
2.18084e-09
1.34937e-08
2.27393e-09
1.45005e-08
2.09698e-09
1.43212e-08
1.74932e-09
1.33655e-08
1.3521e-09
1.21361e-08
9.87538e-10
1.09882e-08
6.88444e-10
1.00727e-08
4.55058e-10
9.40042e-09
2.75071e-10
8.92379e-09
1.34385e-10
8.58704e-09
2.18892e-11
8.34524e-09
-7.05044e-11
8.16697e-09
-1.48005e-10
8.03167e-09
-2.14237e-10
7.92616e-09
-2.71518e-10
7.84197e-09
-3.21586e-10
7.77341e-09
-3.65473e-10
7.71677e-09
-4.0429e-10
7.66908e-09
-4.38427e-10
7.62866e-09
-4.68683e-10
7.59387e-09
-4.95185e-10
7.56374e-09
-5.18541e-10
7.53722e-09
-5.38774e-10
7.51384e-09
-5.564e-10
7.49281e-09
-5.71329e-10
7.47396e-09
-5.84036e-10
7.45667e-09
-5.94344e-10
7.44095e-09
-6.0271e-10
7.42629e-09
-6.08898e-10
7.4128e-09
-6.1335e-10
7.40006e-09
-6.15805e-10
7.38823e-09
-6.16675e-10
7.37695e-09
-6.15728e-10
7.36641e-09
-6.13304e-10
7.35633e-09
-6.09271e-10
7.34686e-09
-6.0384e-10
7.33784e-09
-5.97048e-10
7.32931e-09
-5.88933e-10
7.32127e-09
-5.79741e-10
7.31363e-09
-5.69325e-10
7.30656e-09
-5.58109e-10
7.29981e-09
-5.4583e-10
7.29369e-09
-5.32956e-10
7.2879e-09
-5.19265e-10
7.28274e-09
-5.05032e-10
7.27801e-09
-4.90313e-10
7.27379e-09
-4.74927e-10
7.27023e-09
-4.59445e-10
7.26698e-09
-4.43044e-10
7.26469e-09
-4.26963e-10
7.26247e-09
-4.09618e-10
7.26157e-09
-3.92917e-10
7.2605e-09
-3.74454e-10
7.26113e-09
-3.56597e-10
7.26134e-09
-3.36869e-10
7.26328e-09
-3.18145e-10
7.26451e-09
-2.98431e-10
7.26749e-09
-2.80283e-10
7.27012e-09
7.27433e-09
-2.62019e-10
-5.90335e-10
2.41311e-09
4.10497e-10
-7.08446e-10
1.98529e-09
-7.32551e-10
2.03898e-09
-6.52694e-10
2.43058e-09
-4.70206e-10
3.02432e-09
-1.97248e-10
3.69215e-09
1.52378e-10
4.31633e-09
5.63617e-10
4.78201e-09
9.93315e-10
4.97136e-09
1.35688e-09
4.80195e-09
1.60341e-09
4.304e-09
1.70632e-09
3.57497e-09
1.66382e-09
2.75974e-09
1.50189e-09
2.02915e-09
1.26624e-09
1.5587e-09
1.01477e-09
1.52166e-09
8.148e-10
2.08492e-09
7.38449e-10
3.38319e-09
8.44207e-10
5.45045e-09
1.13874e-09
8.11133e-09
1.53494e-09
1.08995e-08
1.8706e-09
1.3158e-08
2.00472e-09
1.43664e-08
1.89967e-09
1.44262e-08
1.61951e-09
1.36457e-08
1.26657e-09
1.24889e-08
9.23391e-10
1.13314e-08
6.30827e-10
1.03652e-08
3.97483e-10
9.63379e-09
2.15461e-10
9.10575e-09
7.29453e-11
8.72957e-09
-4.09976e-11
8.45915e-09
-1.34272e-10
8.26024e-09
-2.12502e-10
8.10988e-09
-2.79322e-10
7.99304e-09
-3.37346e-10
7.8999e-09
-3.88096e-10
7.82421e-09
-4.32998e-10
7.76134e-09
-4.72598e-10
7.7086e-09
-5.07825e-10
7.66359e-09
-5.38878e-10
7.62487e-09
-5.66425e-10
7.59103e-09
-5.90513e-10
7.56133e-09
-6.11692e-10
7.53479e-09
-6.29883e-10
7.51108e-09
-6.45583e-10
7.48947e-09
-6.58618e-10
7.46986e-09
-6.69469e-10
7.45166e-09
-6.77889e-10
7.43493e-09
-6.84354e-10
7.41918e-09
-6.88571e-10
7.40457e-09
-6.91005e-10
7.39066e-09
-6.9136e-10
7.37767e-09
-6.90061e-10
7.36522e-09
-6.86871e-10
7.35354e-09
-6.82124e-10
7.34236e-09
-6.75715e-10
7.33181e-09
-6.67828e-10
7.32177e-09
-6.5856e-10
7.31226e-09
-6.47898e-10
7.30333e-09
-6.36163e-10
7.29484e-09
-6.23159e-10
7.28702e-09
-6.09361e-10
7.27959e-09
-5.94488e-10
7.27289e-09
-5.78996e-10
7.26661e-09
-5.6271e-10
7.26103e-09
-5.45808e-10
7.25602e-09
-5.28463e-10
7.25159e-09
-5.10344e-10
7.24798e-09
-4.92178e-10
7.24475e-09
-4.72971e-10
7.24265e-09
-4.54099e-10
7.2407e-09
-4.33794e-10
7.24024e-09
-4.14069e-10
7.23969e-09
-3.92476e-10
7.24087e-09
-3.71746e-10
7.24161e-09
-3.49426e-10
7.24409e-09
-3.28436e-10
7.24618e-09
-3.07047e-10
7.24993e-09
7.25414e-09
-2.86889e-10
-5.43702e-10
2.58744e-09
3.69386e-10
-6.65344e-10
2.10694e-09
-7.03372e-10
2.07702e-09
-6.43945e-10
2.37117e-09
-4.84657e-10
2.86505e-09
-2.32792e-10
3.4403e-09
9.80299e-11
3.98552e-09
4.85719e-10
4.39433e-09
8.87703e-10
4.56937e-09
1.23909e-09
4.45055e-09
1.48982e-09
4.05326e-09
1.61091e-09
3.45387e-09
1.59734e-09
2.77329e-09
1.46809e-09
2.15841e-09
1.26047e-09
1.76632e-09
1.02464e-09
1.75751e-09
8.20392e-10
2.28919e-09
7.12325e-10
3.49126e-09
7.55607e-10
5.40725e-09
9.66178e-10
7.90078e-09
1.28606e-09
1.05796e-08
1.58716e-09
1.2857e-08
1.73944e-09
1.42141e-08
1.68756e-09
1.44782e-08
1.46609e-09
1.38671e-08
1.1577e-09
1.27974e-08
8.39731e-10
1.16493e-08
5.5802e-10
1.06469e-08
3.27539e-10
9.86425e-09
1.45336e-10
9.28791e-09
1.82335e-12
8.8731e-09
-1.12875e-10
8.5738e-09
-2.06654e-10
8.35402e-09
-2.85167e-10
8.18847e-09
-3.52384e-10
8.0602e-09
-4.10677e-10
7.95833e-09
-4.62101e-10
7.87534e-09
-5.07407e-10
7.80669e-09
-5.47854e-10
7.74878e-09
-5.83665e-10
7.69939e-09
-6.15613e-10
7.65658e-09
-6.43776e-10
7.61922e-09
-6.68748e-10
7.58608e-09
-6.90454e-10
7.55657e-09
-7.09417e-10
7.52985e-09
-7.25456e-10
7.50565e-09
-7.39078e-10
7.48332e-09
-7.50016e-10
7.4628e-09
-7.58786e-10
7.44358e-09
-7.65048e-10
7.42572e-09
-7.69336e-10
7.4088e-09
-7.7127e-10
7.39294e-09
-7.71381e-10
7.37781e-09
-7.69301e-10
7.36355e-09
-7.65516e-10
7.34991e-09
-7.59741e-10
7.33701e-09
-7.52355e-10
7.32469e-09
-7.43236e-10
7.31302e-09
-7.32594e-10
7.30197e-09
-7.20526e-10
7.29148e-09
-7.07039e-10
7.28166e-09
-6.9245e-10
7.27238e-09
-6.76596e-10
7.26382e-09
-6.59909e-10
7.25582e-09
-6.42181e-10
7.24855e-09
-6.23762e-10
7.24193e-09
-6.04599e-10
7.236e-09
-5.84718e-10
7.23089e-09
-5.64447e-10
7.22635e-09
-5.43295e-10
7.22285e-09
-5.22126e-10
7.21979e-09
-4.99806e-10
7.21802e-09