/*--------------------------------*- C++ -*----------------------------------*\
  =========                 |
  \\      /  F ield         | OpenFOAM: The Open Source CFD Toolbox
   \\    /   O peration     | Website:  https://openfoam.org
    \\  /    A nd           | Version:  7
     \\/     M anipulation  |
\*---------------------------------------------------------------------------*/
FoamFile
{
    version     2.0;
    format      ascii;
    class       volVectorField;
    location    "40";
    object      U;
}
// * * * * * * * * * * * * * * * * * * * * * * * * * * * * * * * * * * * * * //

dimensions      [0 1 -1 0 0 0 0];

internalField   nonuniform List<vector> 
49920
(
(-0.00643683 0.000391495 -1.03001e-29)
(-0.0133597 0.00491902 7.58712e-30)
(-0.00522507 0.00461888 4.40111e-29)
(-0.00347469 0.00613953 -6.18267e-29)
(-0.000748011 0.00599026 -4.43078e-29)
(-0.00190121 0.00881697 -6.83139e-29)
(-0.0016632 0.00615246 -4.28285e-29)
(-0.000108954 0.00390169 0)
(0.000926718 0.00480289 -6.15742e-29)
(0.00272698 0.00737032 -1.76396e-29)
(0.00218947 0.00653424 1.69115e-28)
(0.00284784 0.00480941 0)
(0.0058758 0.00434762 2.80655e-28)
(0.0067251 0.00217331 9.12101e-36)
(0.0142853 0.000195342 0)
(0.00782678 -0.00199977 -2.05391e-28)
(0.0438595 0.00210399 -3.57548e-28)
(0.0258625 0.00947487 2.19575e-29)
(0.0135975 0.0125639 0)
(0.0102065 0.0128505 2.46899e-29)
(0.00827973 0.0129685 2.47209e-29)
(0.00734231 0.0131176 6.00924e-30)
(0.007109 0.0131528 0)
(0.00712058 0.0131139 -5.45956e-30)
(0.00722831 0.0130373 9.16675e-31)
(0.00738786 0.0129379 -9.99836e-33)
(0.00757663 0.0128227 -2.08993e-30)
(0.00778204 0.0126955 0)
(0.00799714 0.0125587 0)
(0.00821779 0.0124137 0)
(0.00844137 0.0122616 0)
(0.00866608 0.0121029 0)
(0.0088907 0.0119382 0)
(0.00911433 0.0117678 -8.34207e-31)
(0.00933631 0.0115921 5.31507e-31)
(0.00955613 0.0114113 -6.32625e-31)
(0.00977342 0.0112255 -3.49744e-32)
(0.00998786 0.0110349 5.32262e-31)
(0.0101992 0.0108397 -6.364e-31)
(0.0104072 0.01064 -6.0585e-40)
(0.0106118 0.010436 -7.20704e-40)
(0.0108126 0.0102276 6.37574e-31)
(0.0110097 0.0100151 -3.65073e-31)
(0.0112028 0.00979858 3.09622e-31)
(0.0113918 0.00957809 6.39021e-31)
(0.0115766 0.00935375 -9.79732e-31)
(0.0117572 0.0091257 2.75203e-31)
(0.0119333 0.00889403 0)
(0.012105 0.00865882 0)
(0.0122722 0.0084201 0)
(0.0124349 0.00817793 0)
(0.0125929 0.00793245 0)
(0.0127461 0.00768371 0)
(0.0128947 0.00743194 -3.70574e-31)
(0.013038 0.00717709 -1.26936e-32)
(0.0131767 0.00691963 -1.26345e-30)
(0.01331 0.00665928 3.8624e-31)
(0.0134384 0.0063965 0)
(0.0135614 0.00613122 1.93319e-31)
(0.0136793 0.00586365 4.04318e-31)
(0.0137918 0.00559384 2.11573e-31)
(0.013899 0.00532195 0)
(0.0140008 0.00504811 0)
(0.0140971 0.00477239 -2.32179e-31)
(0.0141881 0.00449499 -2.47533e-31)
(0.0142733 0.00421586 0)
(0.0143535 0.00393524 -1.57183e-38)
(0.0144275 0.00365302 6.5738e-31)
(0.0144968 0.00336952 0)
(0.0145596 0.00308448 3.30616e-31)
(0.0146178 0.00279821 -2.87033e-31)
(0.0146694 0.00251053 -2.87899e-31)
(0.0147163 0.00222177 0)
(0.0147567 0.0019317 -2.62861e-31)
(0.0147922 0.00164055 -2.48827e-31)
(0.0148214 0.00134822 3.31588e-32)
(0.0148452 0.0010549 -5.543e-32)
(0.0148632 0.000760667 7.4929e-32)
(0.014875 0.000465802 -4.15955e-32)
(0.0148818 0.000170691 -3.44201e-33)
(-0.00339499 0.000339971 0)
(-0.00762966 0.0102768 0)
(-0.00420716 0.0114292 7.17174e-29)
(-0.00380118 0.0115659 -2.96864e-29)
(-0.00247595 0.0118315 -1.67851e-28)
(-0.0022725 0.0229872 -3.45009e-28)
(0.000654409 0.0104495 -1.49158e-28)
(0.00301122 0.0185705 5.65688e-30)
(0.00196863 0.0139553 0)
(0.00226996 0.0134705 -1.62003e-28)
(0.0050444 0.014297 3.25009e-28)
(0.00585884 0.0109073 -3.02378e-28)
(0.00715911 0.00906381 5.32069e-28)
(0.0092707 0.00811145 3.51373e-28)
(0.0126627 0.0072754 -2.5873e-28)
(0.00430154 -0.000926884 0)
(0.0285175 0.010016 0)
(0.0309394 0.0152248 3.958e-29)
(0.0247008 0.0166743 3.90569e-30)
(0.0184834 0.0150995 -1.16595e-29)
(0.0133368 0.0136305 -4.05542e-30)
(0.0102156 0.013023 0)
(0.00878542 0.0128045 0)
(0.0081481 0.0127064 0)
(0.00787392 0.0126312 2.76322e-31)
(0.00779469 0.0125497 -2.8511e-30)
(0.00782497 0.012456 -2.11432e-30)
(0.00791937 0.0123499 9.29732e-31)
(0.00805341 0.0122326 -1.02285e-30)
(0.00821291 0.0121054 -1.08893e-30)
(0.00838907 0.0119694 0)
(0.00857619 0.0118253 -4.842e-31)
(0.00877042 0.0116741 -3.12072e-31)
(0.00896908 0.0115161 0)
(0.00917023 0.0113519 2.35388e-30)
(0.00937243 0.0111818 1.23806e-30)
(0.00957467 0.0110063 3.4334e-32)
(0.00977612 0.0108254 -1.14773e-30)
(0.00997613 0.0106394 7.9803e-40)
(0.0101742 0.0104485 -3.327e-40)
(0.01037 0.010253 -3.95546e-40)
(0.010563 0.0100528 1.37972e-39)
(0.010753 0.00984828 1.00172e-30)
(0.0109398 0.00963944 -3.31011e-31)
(0.0111232 0.00942644 -1.61974e-30)
(0.0113029 0.00920942 -2.96618e-30)
(0.0114789 0.00898851 0)
(0.0116508 0.00876384 -3.79567e-31)
(0.0118186 0.00853551 -4.12197e-31)
(0.0119823 0.00830343 0)
(0.0121419 0.00806778 1.30378e-30)
(0.0122972 0.00782859 1.30062e-30)
(0.0124481 0.00758608 -1.30308e-30)
(0.0125942 0.00734025 -3.84961e-31)
(0.0127361 0.00709142 4.09781e-31)
(0.0128728 0.00683943 1.29863e-30)
(0.0130049 0.00658483 0)
(0.0131318 0.00632742 0)
(0.0132538 0.00606748 0)
(0.0133707 0.00580506 -6.51447e-31)
(0.0134824 0.0055403 -6.52744e-31)
(0.013589 0.00527342 2.2021e-31)
(0.0136902 0.00500444 8.9668e-31)
(0.0137863 0.00473368 0)
(0.0138766 0.00446105 0)
(0.0139621 0.0041869 -2.59379e-31)
(0.0140414 0.00391108 1.03293e-30)
(0.014116 0.00363396 1.31916e-30)
(0.0141843 0.00335536 -6.59646e-31)
(0.0142479 0.00307553 3.9348e-31)
(0.0143052 0.00279433 -9.36003e-31)
(0.0143577 0.00251196 0)
(0.014404 0.0022284 1.12802e-31)
(0.0144451 0.00194364 -1.26254e-31)
(0.0144805 0.00165773 -2.42736e-31)
(0.0145101 0.00137061 3.43814e-32)
(0.0145346 0.00108244 2.66516e-32)
(0.0145522 0.000793252 1.66163e-31)
(0.0145658 0.000503249 0)
(0.0145723 0.000213269 0)
(-0.00456149 -0.00441355 2.50028e-31)
(1.59866e-05 0.00359245 -6.72515e-32)
(-0.00229364 0.00469459 5.84271e-29)
(-0.00561261 0.0116722 0)
(-0.0029266 0.0115367 -7.16487e-29)
(-0.0009952 0.0131019 1.64613e-28)
(0.00073917 0.00786854 4.43027e-30)
(0.00167676 0.0113185 -1.40521e-30)
(0.00228517 0.018077 -1.18058e-29)
(0.00137626 0.0123354 -6.3635e-28)
(0.0033031 0.0107442 -2.33118e-29)
(0.00550463 0.0103011 -7.24108e-28)
(0.00776787 0.00873988 2.5061e-28)
(0.00759283 0.00534839 2.92827e-29)
(0.0054729 0.00312136 -1.15035e-28)
(0.0135699 -0.00659911 0)
(0.0133091 0.00404345 0)
(0.022721 0.0155866 1.33312e-36)
(0.0260622 0.0200484 5.3523e-30)
(0.0228622 0.0188293 -1.18118e-29)
(0.0174654 0.0161622 -3.04487e-30)
(0.0131512 0.0142499 -6.83889e-30)
(0.0106364 0.0132375 -3.82581e-30)
(0.0092996 0.0127543 -2.03969e-30)
(0.00860351 0.0125053 -9.93224e-31)
(0.00826114 0.0123451 0)
(0.00811793 0.0122164 0)
(0.00809191 0.0120963 3.34138e-31)
(0.00813871 0.0119757 -4.60633e-38)
(0.00823274 0.0118506 -1.46893e-30)
(0.00835837 0.0117195 -1.34516e-30)
(0.00850554 0.0115821 8.34557e-31)
(0.00866758 0.0114383 0)
(0.00883983 0.0112881 9.31208e-31)
(0.00901902 0.0111319 9.64749e-31)
(0.00920271 0.0109698 3.2888e-41)
(0.00938916 0.0108022 -4.94671e-32)
(0.00957702 0.0106291 -2.17224e-30)
(0.00976522 0.0104508 8.89106e-31)
(0.00995294 0.0102675 8.37342e-31)
(0.0101395 0.0100794 -8.32316e-31)
(0.0103244 0.0098865 -7.87112e-31)
(0.0105072 0.00968908 1.36024e-30)
(0.0106875 0.00948723 3.33904e-31)
(0.010865 0.00928111 -2.56787e-39)
(0.0110395 0.0090708 -1.09795e-30)
(0.0112105 0.00885649 -1.10525e-30)
(0.0113781 0.00863831 0)
(0.0115421 0.00841625 -1.11005e-30)
(0.0117024 0.00819045 7.23228e-31)
(0.0118588 0.00796081 7.0293e-31)
(0.0120112 0.00772772 1.71502e-38)
(0.0121594 0.00749098 1.51617e-30)
(0.0123035 0.00725088 0)
(0.012443 0.00700765 0)
(0.0125779 0.00676133 -1.12114e-30)
(0.0127082 0.00651204 -1.1205e-30)
(0.0128337 0.00625991 -1.12261e-30)
(0.0129544 0.00600508 -1.12071e-30)
(0.0130702 0.00574765 -4.09161e-31)
(0.013181 0.00548783 -1.21741e-30)
(0.0132868 0.00522569 -2.31419e-31)
(0.0133875 0.00496146 1.52027e-38)
(0.0134828 0.00469522 0)
(0.0135731 0.00442717 0)
(0.013658 0.00415738 -5.58243e-31)
(0.0137375 0.00388598 2.97424e-31)
(0.0138117 0.00361312 5.6295e-31)
(0.0138803 0.0033388 -1.69715e-30)
(0.0139438 0.0030632 -2.81872e-31)
(0.0140014 0.00278619 -1.01781e-30)
(0.0140539 0.00250807 1.29542e-31)
(0.0141004 0.00222863 -1.14046e-31)
(0.0141421 0.00194817 -1.07242e-31)
(0.0141773 0.00166647 2.95406e-31)
(0.014208 0.00138379 0)
(0.0142318 0.00109998 0)
(0.0142512 0.000814994 1.47148e-31)
(0.0142644 0.000529382 -2.22331e-34)
(0.0142728 0.000244079 -2.11932e-32)
(-0.000919039 -0.00313849 8.16813e-31)
(-0.0015723 0.00895053 -5.09163e-31)
(-0.00312072 0.0251582 3.86325e-29)
(0.000271023 0.00485425 -3.07214e-29)
(0.000562869 0.00689053 0)
(0.000627386 0.00566537 -1.60976e-38)
(0.0005597 0.00431491 0)
(0.000806075 0.00584696 0)
(-0.00162292 0.00713809 0)
(-0.00152674 0.00818664 -2.77631e-28)
(0.00155283 0.00779098 -4.05849e-28)
(0.00244802 0.00705852 -1.8962e-28)
(0.00451867 0.00482058 2.95032e-28)
(0.0024092 0.00183173 1.47241e-29)
(0.0123413 0.00835277 -6.00263e-29)
(0.00726625 -0.00124481 1.7642e-29)
(0.00645467 0.00273843 0)
(0.0148304 0.01323 1.61231e-30)
(0.0222228 0.0201041 -7.67651e-30)
(0.0231938 0.0210573 -1.92854e-29)
(0.0198033 0.0187923 -3.5318e-30)
(0.015586 0.0161443 -7.16673e-30)
(0.0124113 0.0142829 -6.76288e-30)
(0.0104578 0.0132288 -5.22011e-30)
(0.00934993 0.0126629 -3.78467e-30)
(0.0087444 0.012335 -2.47578e-30)
(0.00842753 0.0121166 -9.55542e-33)
(0.00828144 0.0119477 1.09907e-30)
(0.00824146 0.0118005 2.96544e-38)
(0.00827033 0.0116615 3.5322e-31)
(0.00834551 0.011524 -8.66977e-31)
(0.00845271 0.0113848 1.94024e-31)
(0.00858241 0.011242 -6.03585e-31)
(0.00872809 0.0110949 6.62825e-31)
(0.00888512 0.0109428 5.19583e-32)
(0.00905012 0.0107857 -7.91561e-31)
(0.00922063 0.0106236 -8.89922e-32)
(0.00939476 0.0104563 -9.18752e-31)
(0.00957101 0.010284 4.67538e-31)
(0.00974829 0.0101068 -2.19834e-31)
(0.00992564 0.00992486 2.37985e-31)
(0.0101024 0.00973821 -3.07119e-31)
(0.0102779 0.00954697 3.14259e-31)
(0.0104516 0.00935129 3.22331e-31)
(0.0106233 0.00915123 7.0859e-31)
(0.0107924 0.008947 3.82499e-31)
(0.0109587 0.00873858 -9.0774e-31)
(0.011122 0.00852624 9.12326e-31)
(0.0112822 0.00830996 -1.29953e-30)
(0.011439 0.00808974 1.8188e-30)
(0.0115923 0.0078658 1.3287e-30)
(0.0117419 0.00763808 1.85264e-30)
(0.0118877 0.00740673 3.81708e-31)
(0.0120294 0.00717196 1.83314e-32)
(0.0121667 0.00693386 1.4253e-31)
(0.0122998 0.00669262 -1.34397e-30)
(0.0124284 0.00644826 -1.32429e-30)
(0.0125525 0.00620097 -1.34745e-30)
(0.0126719 0.00595085 -9.36535e-31)
(0.0127867 0.00569806 4.07644e-31)
(0.0128966 0.00544276 8.60005e-31)
(0.0130015 0.00518505 2.37859e-31)
(0.0131017 0.00492517 -7.02392e-31)
(0.0131965 0.00466315 0)
(0.0132865 0.00439931 2.4971e-31)
(0.0133709 0.00413355 -9.23627e-31)
(0.0134506 0.00386625 1.87293e-31)
(0.0135243 0.00359724 9.38016e-31)
(0.0135935 0.00332689 -4.67269e-31)
(0.0136565 0.00305499 -6.75901e-31)
(0.0137149 0.00278186 -1.99488e-31)
(0.013767 0.00250733 0)
(0.0138145 0.00223166 0)
(0.0138557 0.00195478 0)
(0.0138922 0.0016768 2.50153e-31)
(0.0139226 0.00139778 0)
(0.0139477 0.00111758 -2.37278e-32)
(0.0139675 0.000836129 -7.96038e-33)
(0.0139816 0.000554256 6.76331e-34)
(0.0139908 0.000272583 -1.56899e-32)
(-0.00158034 -0.00216451 3.8004e-32)
(-0.00162221 0.00496041 4.76573e-32)
(0.000806937 0.016679 0)
(0.00408035 0.0114747 -1.21788e-30)
(0.00355601 0.019823 0)
(0.00399647 0.0210887 2.01865e-37)
(0.00323004 0.014957 -1.02916e-29)
(0.00313707 0.021339 0)
(0.0031075 0.0335513 -1.97594e-28)
(0.000400629 0.00226765 -5.98149e-29)
(0.00125575 0.0062676 2.47609e-31)
(0.00107293 0.00453692 -1.18473e-28)
(0.000521859 0.00200326 5.28116e-29)
(0.00430294 0.00668645 3.89628e-29)
(0.00535171 0.00316786 0)
(0.00430254 -0.000973244 1.32858e-29)
(0.00474898 0.00222677 -3.30377e-30)
(0.00993648 0.0105465 1.30242e-29)
(0.0173406 0.0182367 3.35793e-29)
(0.0211517 0.0214245 1.03422e-29)
(0.0203535 0.0205497 -7.41022e-30)
(0.0171794 0.0179947 -5.6739e-30)
(0.0139152 0.0155971 3.95147e-30)
(0.0115417 0.0139806 0)
(0.0100668 0.0130293 0)
(0.00920796 0.0124737 1.1327e-30)
(0.00872265 0.0121245 -6.60556e-31)
(0.00846143 0.0118796 3.1217e-31)
(0.00833893 0.0116872 7.19337e-31)
(0.00830599 0.0115211 3.32077e-31)
(0.00833317 0.0113677 6.76199e-32)
(0.00840208 0.0112195 -4.04026e-31)
(0.00850056 0.0110724 -9.54589e-31)
(0.00862041 0.0109239 -4.86508e-31)
(0.00875572 0.0107727 -6.02488e-31)
(0.00890231 0.010618 6.45866e-31)
(0.00905698 0.0104591 0)
(0.00921742 0.0102959 -8.57891e-31)
(0.00938171 0.0101282 7.19761e-31)
(0.00954848 0.00995602 9.9391e-31)
(0.00971653 0.00977923 -1.03072e-30)
(0.009885 0.00959796 -8.10574e-31)
(0.0100531 0.00941219 1.13683e-30)
(0.0102202 0.00922205 0)
(0.0103858 0.00902759 -1.66839e-30)
(0.0105496 0.00882886 8.39563e-31)
(0.0107111 0.00862605 1.22327e-30)
(0.0108701 0.00841909 1.71115e-30)
(0.0110264 0.00820827 8.38439e-31)
(0.0111796 0.00799342 -1.26728e-30)
(0.0113298 0.00777471 -4.77543e-31)
(0.0114764 0.00755222 2.14309e-30)
(0.0116195 0.00732607 8.81375e-31)
(0.0117587 0.00709634 -8.81596e-31)
(0.0118939 0.00686323 8.87881e-31)
(0.012025 0.00662681 0)
(0.0121519 0.00638722 0)
(0.0122745 0.0061446 8.81812e-31)
(0.0123926 0.00589902 -8.8508e-31)
(0.0125063 0.00565073 -8.78902e-31)
(0.0126151 0.00539975 -4.16694e-31)
(0.0127194 0.00514639 -9.02662e-33)
(0.0128186 0.00489064 -4.70509e-31)
(0.0129132 0.00463282 4.35478e-31)
(0.0130024 0.00437293 0)
(0.0130869 0.00411124 -4.35583e-31)
(0.013166 0.00384776 6.99307e-31)
(0.01324 0.00358267 7.2062e-31)
(0.0133087 0.00331605 -4.34397e-31)
(0.0133721 0.00304793 2.74393e-31)
(0.0134303 0.00277846 2.76809e-31)
(0.0134829 0.00250757 0)
(0.0135305 0.00223554 0)
(0.0135722 0.0019622 -2.36373e-31)
(0.0136092 0.00168787 0)
(0.0136399 0.00141233 0)
(0.0136662 0.00113562 0)
(0.0136862 0.000857747 0)
(0.0137018 0.000579243 1.59191e-33)
(0.0137117 0.000301058 7.45485e-33)
(-0.0023498 -0.00055057 -5.34663e-31)
(-0.00277129 0.00326264 8.28404e-31)
(0.000508193 0.0082721 -5.79726e-32)
(0.00258561 0.00598701 -1.19535e-30)
(0.00257423 0.0110332 1.86103e-30)
(0.00366573 0.0125629 -3.09052e-29)
(0.003321 0.00929276 -1.05384e-30)
(0.0035876 0.0147127 -1.64729e-29)
(0.00536714 0.0239442 3.25488e-29)
(0.00319354 0.00742761 2.48439e-29)
(0.00210964 0.0163633 3.99025e-29)
(0.0018943 0.0137476 -4.21147e-29)
(-0.000622644 0.0056124 -7.18911e-30)
(-0.000100189 0.00249821 -1.64908e-29)
(0.00183743 0.000797934 -6.86568e-30)
(0.00282008 -0.000230061 -3.29199e-30)
(0.00363798 0.00226925 -7.7686e-31)
(0.00706994 0.00862259 2.41945e-32)
(0.0132493 0.0160057 -7.93172e-30)
(0.0182642 0.020641 0)
(0.0195824 0.021326 -5.23193e-30)
(0.0178489 0.0194429 -7.6273e-30)
(0.0150098 0.0169223 2.05918e-30)
(0.0124884 0.0148829 7.08997e-32)
(0.0107331 0.0135446 -4.24935e-31)
(0.00964085 0.0127269 0)
(0.008993 0.0122174 -1.19454e-30)
(0.00862116 0.0118755 -9.66178e-32)
(0.00842083 0.0116236 1.2848e-31)
(0.00833033 0.0114202 0)
(0.00831309 0.0112432 -2.01499e-31)
(0.00834639 0.0110802 1.40131e-31)
(0.00841573 0.0109243 -3.42072e-31)
(0.00851115 0.0107709 -4.75432e-31)
(0.00862582 0.0106177 -1.06827e-30)
(0.00875464 0.0104629 5.7994e-31)
(0.00889402 0.0103055 -7.58831e-31)
(0.00904102 0.0101448 -1.49323e-30)
(0.0091936 0.00998045 0)
(0.00934992 0.00981206 -4.87552e-40)
(0.00950877 0.00963962 -5.45224e-40)
(0.00966889 0.00946291 0)
(0.00982955 0.00928204 1.85917e-30)
(0.00998995 0.00909682 1.13765e-30)
(0.0101496 0.00890745 -7.89658e-31)
(0.0103079 0.00871391 1.59354e-30)
(0.0104646 0.00851618 8.02138e-31)
(0.0106191 0.00831448 1.19918e-30)
(0.0107713 0.0081087 -1.2276e-30)
(0.010921 0.00789897 8.26548e-31)
(0.0110677 0.00768536 8.32701e-31)
(0.0112113 0.00746787 8.42401e-31)
(0.0113515 0.00724671 4.57316e-31)
(0.0114881 0.00702185 -1.25675e-30)
(0.0116212 0.0067936 0)
(0.0117502 0.00656185 -3.81234e-31)
(0.0118754 0.00632696 -3.96991e-31)
(0.0119963 0.00608881 1.23389e-30)
(0.0121131 0.00584776 -4.42016e-31)
(0.0122253 0.00560376 -8.46091e-31)
(0.0123332 0.00535714 0)
(0.0124364 0.00510792 1.26276e-30)
(0.012535 0.00485634 1.63994e-32)
(0.0126288 0.00460255 3.4408e-31)
(0.0127175 0.00434665 4.15935e-31)
(0.0128017 0.0040889 6.66827e-31)
(0.0128802 0.00382925 5.42322e-31)
(0.0129545 0.00356807 2.81088e-31)
(0.0130226 0.00330513 -1.43514e-31)
(0.0130866 0.00304086 6.99498e-31)
(0.0131442 0.00277497 4.29399e-31)
(0.0131978 0.0025079 0)
(0.0132447 0.00223937 2.21584e-31)
(0.0132878 0.00196978 -1.13121e-31)
(0.0133241 0.00169892 3.10632e-32)
(0.0133565 0.00142699 -1.58151e-31)
(0.0133826 0.00115368 -5.18557e-32)
(0.0134041 0.000879206 -9.41116e-33)
(0.0134207 0.000603903 3.158e-33)
(0.0134319 0.000329322 2.83743e-32)
(-0.0022605 0.000804235 -1.88326e-31)
(-0.00277688 0.00301894 5.11489e-31)
(-0.0007216 0.00592199 0)
(0.000434932 0.00574489 0)
(0.000990258 0.0085827 -1.15466e-30)
(0.00273695 0.00968511 -1.66915e-30)
(0.00278511 0.0088649 -2.51736e-30)
(0.00273498 0.0120823 -3.23127e-30)
(0.00560726 0.0157939 0)
(0.00438683 0.00694702 0)
(0.00194359 0.0095772 1.69252e-29)
(0.00237511 0.00739528 0)
(0.00109899 0.00229754 0)
(0.000664906 0.000424069 0)
(0.00136235 -0.000214529 -3.47386e-30)
(0.00190275 -0.000275548 -2.70552e-30)
(0.00275409 0.00204653 -2.63978e-30)
(0.00535729 0.0072631 -5.70525e-30)
(0.0102803 0.0139859 -7.6021e-30)
(0.0154014 0.0193059 -2.49982e-30)
(0.0180582 0.0213066 6.31804e-30)
(0.017722 0.0203645 -6.28299e-32)
(0.0156266 0.0180828 -1.58602e-30)
(0.0132324 0.015827 -7.88045e-31)
(0.0113238 0.0141587 0)
(0.0100379 0.0130715 8.76904e-31)
(0.0092376 0.0123815 -3.65829e-31)
(0.00875919 0.0119264 3.69875e-31)
(0.00848469 0.0116034 6.25499e-34)
(0.00834059 0.0113547 0)
(0.00828252 0.0111481 -2.6629e-31)
(0.00828344 0.0109658 -3.45321e-32)
(0.00832609 0.0107973 1.97014e-32)
(0.00839912 0.0106362 4.02067e-31)
(0.00849457 0.0104784 4.49052e-39)
(0.00860683 0.0103216 -1.40902e-31)
(0.00873165 0.0101639 -7.37234e-31)
(0.00886593 0.0100043 -5.84454e-31)
(0.00900714 0.00984201 0)
(0.00915343 0.00967651 -6.42856e-31)
(0.00930316 0.00950744 6.68174e-31)
(0.00945518 0.00933467 0)
(0.00960849 0.00915788 7.03924e-31)
(0.00976233 0.00897715 1.06726e-30)
(0.00991601 0.0087923 3.78454e-31)
(0.0100689 0.00860348 1.61735e-38)
(0.0102205 0.00841053 0)
(0.0103707 0.0082136 3.6287e-31)
(0.0105188 0.00801265 3.51424e-31)
(0.0106647 0.00780779 7.77398e-31)
(0.0108079 0.00759891 7.84393e-31)
(0.0109484 0.00738631 -3.95301e-31)
(0.0110856 0.00716978 8.12166e-31)
(0.0112199 0.00694975 -7.87442e-31)
(0.0113503 0.00672598 4.0443e-31)
(0.0114775 0.00649892 0)
(0.0116005 0.00626835 3.76277e-31)
(0.0117199 0.00603472 1.57234e-30)
(0.011835 0.00579787 1.56921e-32)
(0.0119461 0.00555819 -4.06856e-31)
(0.0120527 0.00531566 0)
(0.0121549 0.00507054 -3.6787e-31)
(0.0122527 0.00482298 4.52753e-31)
(0.0123455 0.00457308 3.90839e-31)
(0.0124341 0.00432116 3.88135e-31)
(0.0125171 0.00406713 7.77657e-31)
(0.0125961 0.00381142 0)
(0.0126691 0.00355381 0)
(0.0127382 0.00329478 0)
(0.012801 0.00303401 -3.9255e-31)
(0.01286 0.00277196 3.90757e-31)
(0.0129124 0.00250836 0)
(0.012961 0.00224357 1.99663e-31)
(0.0130031 0.00197747 2.06235e-31)
(0.0130411 0.00171023 2.07478e-31)
(0.0130733 0.00144161 2.12138e-31)
(0.0131005 0.00117174 0)
(0.0131235 0.00089997 0)
(0.0131408 0.000628163 -4.98511e-32)
(0.0131537 0.000357024 3.4779e-32)
(-0.00185677 0.00164351 0)
(-0.00218592 0.00286219 4.82307e-31)
(-0.00116858 0.00506366 2.94021e-31)
(-0.000361837 0.00619834 2.76967e-31)
(0.000413761 0.00866583 5.28145e-31)
(0.00193603 0.00994173 -2.40533e-31)
(0.0023113 0.0102994 0)
(0.00242119 0.0125143 3.91506e-30)
(0.00498381 0.0139917 0)
(0.00464654 0.00897431 0)
(0.00316799 0.00832263 -9.17685e-31)
(0.00369712 0.00592031 -1.09794e-30)
(0.00300737 0.00243823 0)
(0.00195681 0.000429173 1.38526e-30)
(0.00154291 -0.000467499 -1.92129e-30)
(0.00156017 -0.000278372 5.99874e-31)
(0.00223081 0.00184395 8.85255e-32)
(0.00429553 0.00627347 -3.69936e-30)
(0.00821574 0.0122789 1.16262e-30)
(0.0129294 0.0177752 -6.71677e-31)
(0.0162511 0.0207297 1.86772e-30)
(0.0170343 0.0207629 0)
(0.015785 0.0189669 1.93708e-30)
(0.0137275 0.0167115 -1.36374e-30)
(0.011808 0.0148149 -6.1281e-31)
(0.0103888 0.0134802 5.47491e-31)
(0.00945497 0.0126028 1.09794e-32)
(0.00887553 0.0120228 3.76809e-31)
(0.00852997 0.0116197 -1.75139e-31)
(0.00833534 0.0113191 0)
(0.00823975 0.0110786 -8.99212e-32)
(0.00821128 0.0108735 -1.90553e-31)
(0.00822996 0.0106897 0)
(0.00828274 0.0105185 6.82626e-31)
(0.0083608 0.0103543 3.96992e-31)
(0.00845782 0.0101938 0)
(0.00856922 0.0100345 2.15137e-31)
(0.00869153 0.00987472 7.73598e-31)
(0.00882207 0.00971343 0)
(0.00895871 0.00954984 -5.79084e-31)
(0.00909977 0.00938343 6.0251e-31)
(0.00924395 0.00921375 0)
(0.00939016 0.00904059 -9.84616e-31)
(0.0095376 0.00886365 -1.02375e-30)
(0.00968535 0.00868299 0)
(0.00983276 0.00849832 6.7609e-31)
(0.00997969 0.00830981 0)
(0.0101252 0.0081173 7.01573e-31)
(0.0102693 0.00792091 7.13569e-31)
(0.0104112 0.00772048 0)
(0.0105511 0.00751627 0)
(0.0106883 0.00730806 -7.34675e-31)
(0.0108229 0.00709622 3.49435e-31)
(0.0109542 0.00688049 -1.46155e-32)
(0.0110826 0.00666131 1.14443e-30)
(0.0112072 0.00643844 3.76012e-31)
(0.0113286 0.00621232 3.87853e-31)
(0.0114459 0.00598276 7.5069e-31)
(0.0115597 0.00575017 0)
(0.0116691 0.00551447 7.47996e-31)
(0.0117746 0.00527598 0)
(0.0118757 0.00503478 -7.42356e-31)
(0.0119723 0.00479106 4.33719e-31)
(0.0120647 0.00454504 1.44377e-32)
(0.012152 0.00429676 -4.95901e-31)
(0.0122353 0.00404657 1.14466e-31)
(0.012313 0.00379437 -6.33601e-31)
(0.0123867 0.00354057 0)
(0.0124545 0.00328496 3.61378e-31)
(0.0125185 0.00302793 -7.22561e-31)
(0.0125763 0.00276927 -3.6125e-31)
(0.0126303 0.00250934 -3.62242e-31)
(0.012678 0.00224799 3.64931e-31)
(0.0127216 0.00198548 0)
(0.0127595 0.00172154 1.0233e-31)
(0.0127926 0.00145638 2.73696e-31)
(0.0128215 0.00118897 -2.2742e-32)
(0.0128448 0.000920545 8.37515e-32)
(0.012864 0.000651775 -9.55907e-32)
(0.0128775 0.000384123 0)
(-0.0015063 0.00218283 -2.77499e-33)
(-0.00173478 0.00268959 -6.18206e-32)
(-0.00122748 0.00424761 -2.75779e-31)
(-0.000585245 0.00577067 0)
(0.000195173 0.0079115 5.09411e-31)
(0.00135039 0.00942385 1.6853e-31)
(0.00198117 0.0104314 0)
(0.00247592 0.0121747 6.3471e-31)
(0.00434009 0.0130878 0)
(0.00461576 0.0102499 0)
(0.0040658 0.00865084 -2.14276e-30)
(0.00418521 0.00609795 1.48482e-30)
(0.00354058 0.00301443 -2.60633e-32)
(0.00250011 0.000806385 1.36174e-30)
(0.00178166 -0.000278281 5.78848e-31)
(0.00153238 -0.000103697 1.37296e-30)
(0.00198679 0.00176422 2.89889e-30)
(0.00362321 0.00557149 5.04154e-30)
(0.00678391 0.0108988 3.35831e-32)
(0.0109354 0.0162724 -4.60445e-30)
(0.0144615 0.0198284 -3.97123e-30)
(0.0160248 0.0207252 -7.98781e-30)
(0.0155683 0.0195344 -6.94458e-30)
(0.0139649 0.0174599 -5.23962e-31)
(0.0121608 0.0154561 0)
(0.0106804 0.0139217 0)
(0.0096415 0.0128644 -4.55547e-31)
(0.00897016 0.0121545 2.15868e-31)
(0.00855685 0.0116649 -2.94205e-33)
(0.00831416 0.0113077 -1.46878e-31)
(0.0081836 0.0110297 0)
(0.00812843 0.0107994 0)
(0.0081256 0.0105984 2.3463e-31)
(0.00816036 0.0104154 2.9612e-31)
(0.00822282 0.0102435 0)
(0.00830613 0.0100781 0)
(0.0084053 0.009916 1.81579e-31)
(0.0085166 0.00975514 1.82903e-31)
(0.0086372 0.00959402 -4.95126e-31)
(0.0087648 0.00943159 -4.69952e-39)
(0.00889768 0.00926709 -4.94376e-39)
(0.00903438 0.00909999 5.58901e-31)
(0.00917384 0.00892978 -2.12008e-31)
(0.00931495 0.0087563 -7.96426e-31)
(0.00945684 0.00857917 0)
(0.00959924 0.00839847 0)
(0.00974114 0.00821391 0)
(0.00988232 0.00802559 -6.5078e-31)
(0.0100222 0.00783332 0)
(0.0101605 0.00763725 0)
(0.0102967 0.0074372 4.08869e-31)
(0.0104309 0.00723343 1.34534e-32)
(0.0105623 0.00702572 -4.09251e-31)
(0.0106912 0.00681441 -6.97294e-31)
(0.0108168 0.0065993 0)
(0.0109395 0.00638074 0)
(0.0110586 0.0061586 1.0755e-30)
(0.0111744 0.00593321 4.47818e-32)
(0.0112862 0.00570451 7.58923e-31)
(0.0113944 0.00547279 1.1039e-30)
(0.0114985 0.00523812 -3.15747e-31)
(0.0115984 0.0050007 1.38541e-32)
(0.0116942 0.00476074 -8.59358e-31)
(0.0117854 0.00451831 -9.11274e-31)
(0.0118724 0.00427374 -9.51228e-31)
(0.0119544 0.00402701 -1.00807e-30)
(0.0120324 0.00377846 -1.47369e-30)
(0.012105 0.00352801 -6.65694e-33)
(0.0121736 0.00327598 2.77614e-31)
(0.0122365 0.00302227 -3.33805e-31)
(0.0122954 0.00276713 -3.3763e-31)
(0.0123487 0.00251053 -3.3006e-31)
(0.0123976 0.00225267 3.37328e-31)
(0.0124412 0.00199344 0)
(0.01248 0.00173298 -1.05304e-31)
(0.0125146 0.00147032 -2.41799e-31)
(0.0125438 0.00120616 0)
(0.012569 0.00094042 8.35042e-32)
(0.0125886 0.000674948 -7.94254e-34)
(0.0126032 0.000410796 -2.83735e-32)
(-0.00125306 0.00257243 0)
(-0.00146494 0.00263798 -1.69945e-31)
(-0.00122241 0.00371851 8.17771e-32)
(-0.000729921 0.00516366 -9.25438e-32)
(-2.28638e-05 0.0069561 9.91577e-31)
(0.000914219 0.00850154 -6.01941e-31)
(0.00168751 0.00976008 0)
(0.00245066 0.0111187 0)
(0.00384012 0.0117051 6.06656e-31)
(0.00441684 0.0100452 -6.90043e-31)
(0.0043269 0.00826488 -1.1808e-30)
(0.00421243 0.00585589 1.08339e-30)
(0.00363261 0.00320415 -7.04023e-31)
(0.00276288 0.0011495 1.65438e-31)
(0.00201736 6.31632e-05 -3.23502e-30)
(0.00164299 0.000174395 -3.18533e-30)
(0.0019146 0.001789 2.99335e-30)
(0.00320512 0.00509112 1.79605e-30)
(0.00578592 0.00981959 2.72334e-30)
(0.0093803 0.0149178 -7.87796e-31)
(0.0128394 0.01879 4.03552e-30)
(0.0148794 0.0203735 3.59128e-30)
(0.0150831 0.0198044 -9.13836e-31)
(0.0139678 0.0180329 6.52747e-38)
(0.0123714 0.0160371 -6.6787e-31)
(0.010901 0.0143656 0)
(0.0097925 0.0131495 -3.49806e-31)
(0.00904265 0.0123117 -1.32372e-31)
(0.00856623 0.0117323 -2.85051e-31)
(0.00827764 0.0113151 2.51725e-31)
(0.00811414 0.0109971 2.36347e-31)
(0.00803436 0.0107398 0)
(0.00801221 0.0105204 2.08787e-31)
(0.00803091 0.0103247 0)
(0.00807958 0.0101441 3.12975e-31)
(0.00815064 0.0099729 -5.39817e-31)
(0.00823883 0.00980731 3.75272e-31)
(0.00834015 0.00964464 1.64245e-32)
(0.00845164 0.00948302 -6.59222e-31)
(0.00857092 0.00932115 -8.90678e-40)
(0.00869613 0.00915805 -9.28379e-40)
(0.00882584 0.00899291 7.2699e-31)
(0.00895875 0.00882533 2.0445e-32)
(0.0090937 0.00865469 2.11801e-30)
(0.0092303 0.00848093 8.23676e-31)
(0.0093674 0.00830364 -5.72902e-31)
(0.00950466 0.00812284 0)
(0.00964138 0.00793826 -5.98011e-31)
(0.00977727 0.00774999 -6.10027e-31)
(0.00991174 0.00755783 -4.17671e-31)
(0.0100446 0.00736192 -4.25206e-31)
(0.0101754 0.00716211 4.06418e-31)
(0.0103041 0.00695857 4.11109e-31)
(0.0104301 0.00675122 -6.45449e-31)
(0.0105534 0.00654022 0)
(0.0106736 0.00632558 -6.55703e-31)
(0.0107908 0.00610744 1.31931e-38)
(0.0109046 0.00588589 -6.62437e-31)
(0.0110148 0.00566105 -3.70432e-31)
(0.0111214 0.00543309 2.76944e-31)
(0.0112241 0.00520211 -2.13623e-38)
(0.0113229 0.00496837 -3.98919e-31)
(0.0114175 0.00473192 -4.31117e-31)
(0.011508 0.00449309 -6.62608e-31)
(0.011594 0.00425192 6.54587e-31)
(0.0116757 0.00400867 0)
(0.0117528 0.00376344 1.85956e-31)
(0.0118254 0.00351638 8.60867e-31)
(0.0118934 0.00326762 -3.14115e-31)
(0.0119567 0.0030172 5.43892e-32)
(0.0120154 0.00276533 3.47797e-32)
(0.012069 0.00251199 0)
(0.0121184 0.00225738 0)
(0.0121624 0.00200143 0)
(0.0122026 0.00174373 1.47705e-31)
(0.0122375 0.00148422 -2.22039e-31)
(0.0122684 0.00122264 2.72796e-32)
(0.0122938 0.000960087 -1.48025e-32)
(0.0123144 0.000698073 1.62485e-40)
(0.0123297 0.000437016 -2.08702e-32)
(-0.00106142 0.00288974 -7.5536e-33)
(-0.00127108 0.00268909 -1.09243e-31)
(-0.00117369 0.00345382 -9.67591e-32)
(-0.000810907 0.00472058 8.63705e-31)
(-0.000206115 0.00626945 8.36592e-31)
(0.000597314 0.00774437 5.84915e-31)
(0.00141346 0.00901849 1.48358e-30)
(0.0022891 0.0100928 1.68717e-32)
(0.00343172 0.0104424 7.86297e-31)
(0.00413277 0.00934606 2.25633e-32)
(0.0042937 0.0076811 -6.36066e-31)
(0.00417275 0.00554203 2.40474e-30)
(0.00368314 0.00329312 -5.53488e-31)
(0.00294371 0.00147595 2.36876e-30)
(0.00223069 0.000457116 1.13234e-31)
(0.00180361 0.000509056 -5.6133e-30)
(0.00194069 0.00189688 -8.61609e-31)
(0.00295806 0.00478055 0)
(0.00508695 0.00899154 0)
(0.00818384 0.0137525 1.77908e-30)
(0.011437 0.0177371 3.18891e-30)
(0.0137215 0.0198241 0)
(0.0144294 0.0198272 -5.75553e-31)
(0.013778 0.0184228 -6.51158e-38)
(0.0124423 0.0165285 8.18362e-31)
(0.0110427 0.0147864 8.6318e-31)
(0.00990286 0.0134421 0)
(0.00909197 0.0124851 1.6789e-38)
(0.0085589 0.011816 -7.61895e-31)
(0.00822703 0.0113369 -6.74122e-31)
(0.00803216 0.0109772 6.16726e-31)
(0.00792947 0.0106918 7.3071e-31)
(0.00788968 0.0104531 5.80159e-31)
(0.00789411 0.0102441 8.32275e-31)
(0.00793054 0.0100543 2.78345e-31)
(0.00799084 0.0098769 0)
(0.00806925 0.00970731 0)
(0.00816166 0.00954234 -6.54036e-31)
(0.00826491 0.00937981 -3.01143e-31)
(0.00837656 0.00921803 -4.16613e-31)
(0.00849472 0.00905587 4.31565e-31)
(0.00861779 0.00889239 3.06819e-31)
(0.0087444 0.00872685 -8.05653e-31)
(0.00887385 0.00855891 0)
(0.00900501 0.00838799 0)
(0.00913725 0.00821394 -5.23537e-31)
(0.00926985 0.00803648 -1.38814e-30)
(0.00940234 0.00785549 -8.77443e-31)
(0.00953418 0.00767083 -1.96879e-30)
(0.00966498 0.00748245 -8.69567e-31)
(0.00979439 0.00729031 1.41133e-30)
(0.00992201 0.00709436 8.45177e-31)
(0.0100477 0.00689467 -5.91768e-31)
(0.0101709 0.00669116 0)
(0.0102918 0.00648402 -3.8493e-31)
(0.0104097 0.00627315 -1.00483e-30)
(0.0105248 0.00605882 -1.26747e-38)
(0.0106366 0.00584093 -6.23449e-31)
(0.0107452 0.00561982 0)
(0.0108501 0.0053954 -3.72237e-31)
(0.0109515 0.00516804 -3.93981e-31)
(0.011049 0.00493773 0)
(0.0111425 0.00470478 0)
(0.011232 0.00446929 -1.89303e-31)
(0.0113172 0.00423146 1.70997e-30)
(0.0113984 0.00399151 -1.0854e-30)
(0.0114748 0.00374947 -1.1267e-30)
(0.0115473 0.00350566 8.10727e-31)
(0.0116146 0.00325996 2.29433e-31)
(0.0116783 0.00301277 5.5664e-31)
(0.0117364 0.0027639 3.08189e-31)
(0.0117911 0.00251375 -5.68661e-33)
(0.01184 0.0022621 5.82797e-33)
(0.0118856 0.00200913 -7.38413e-31)
(0.0119257 0.00175431 -2.92962e-31)
(0.0119622 0.00149755 -4.1694e-31)