/*--------------------------------*- C++ -*----------------------------------*\
  =========                 |
  \\      /  F ield         | OpenFOAM: The Open Source CFD Toolbox
   \\    /   O peration     | Website:  https://openfoam.org
    \\  /    A nd           | Version:  7
     \\/     M anipulation  |
\*---------------------------------------------------------------------------*/
FoamFile
{
    version     2.0;
    format      ascii;
    class       volVectorField;
    location    "40";
    object      Ur;
}
// * * * * * * * * * * * * * * * * * * * * * * * * * * * * * * * * * * * * * //

dimensions      [0 1 -1 0 0 0 0];

internalField   uniform (0 0 0);

boundaryField
{
    innerWall
    {
        type            calculated;
        value           nonuniform List<vector> 
320
(
(-0.000149629 -0.0152405 0)
(-0.000647488 -0.0219778 0)
(-0.00215676 -0.0439017 0)
(-0.00252516 -0.0366865 0)
(-0.00327329 -0.0369495 0)
(-0.00340075 -0.0313681 0)
(-0.0044493 -0.0346721 0)
(-0.00728702 -0.0491251 0)
(-0.00708528 -0.042058 0)
(-0.00640907 -0.0339596 0)
(-0.00750968 -0.0359077 0)
(-0.00957129 -0.0416651 0)
(-0.00917542 -0.0366303 0)
(-0.0124993 -0.0460449 0)
(-0.0089884 -0.030713 0)
(-0.00497392 -0.0158354 0)
(-0.00479729 -0.0142858 0)
(-0.00505354 -0.0141237 0)
(-0.00532967 -0.0140212 0)
(-0.00560393 -0.0139139 0)
(-0.00587603 -0.0138012 0)
(-0.00614586 -0.0136831 0)
(-0.00641333 -0.0135598 0)
(-0.00667832 -0.0134313 0)
(-0.00694074 -0.0132976 0)
(-0.00720048 -0.0131588 0)
(-0.00745745 -0.0130149 0)
(-0.00771154 -0.0128659 0)
(-0.00796266 -0.012712 0)
(-0.00821071 -0.0125533 0)
(-0.0084556 -0.0123896 0)
(-0.00869722 -0.0122212 0)
(-0.00893549 -0.0120481 0)
(-0.00917032 -0.0118704 0)
(-0.00940161 -0.011688 0)
(-0.00962927 -0.0115012 0)
(-0.00985323 -0.0113099 0)
(-0.0100734 -0.0111143 0)
(-0.0102897 -0.0109143 0)
(-0.010502 -0.0107102 0)
(-0.0107102 -0.010502 0)
(-0.0109143 -0.0102897 0)
(-0.0111143 -0.0100734 0)
(-0.0113099 -0.00985323 0)
(-0.0115012 -0.00962927 0)
(-0.011688 -0.00940161 0)
(-0.0118704 -0.00917032 0)
(-0.0120481 -0.00893549 0)
(-0.0122212 -0.00869722 0)
(-0.0123896 -0.0084556 0)
(-0.0125533 -0.00821071 0)
(-0.012712 -0.00796266 0)
(-0.0128659 -0.00771154 0)
(-0.0130149 -0.00745745 0)
(-0.0131588 -0.00720048 0)
(-0.0132976 -0.00694074 0)
(-0.0134313 -0.00667832 0)
(-0.0135598 -0.00641333 0)
(-0.0136831 -0.00614586 0)
(-0.0138012 -0.00587603 0)
(-0.0139139 -0.00560393 0)
(-0.0140212 -0.00532967 0)
(-0.0141232 -0.00505335 0)
(-0.0142197 -0.00477509 0)
(-0.0143107 -0.00449498 0)
(-0.0143962 -0.00421314 0)
(-0.0144761 -0.00392968 0)
(-0.0145505 -0.00364471 0)
(-0.0146192 -0.00335832 0)
(-0.0146823 -0.00307065 0)
(-0.0147398 -0.00278179 0)
(-0.0147916 -0.00249185 0)
(-0.0148376 -0.00220096 0)
(-0.014878 -0.00190922 0)
(-0.0149126 -0.00161674 0)
(-0.0149415 -0.00132364 0)
(-0.0149646 -0.00103002 0)
(-0.0149819 -0.000736016 0)
(-0.0149935 -0.000441723 0)
(-0.0149993 -0.00014726 0)
(0.0149993 -0.00014726 0)
(0.0149935 -0.000441723 0)
(0.0149819 -0.000736016 0)
(0.0149646 -0.00103002 0)
(0.0149415 -0.00132364 0)
(0.0149126 -0.00161674 0)
(0.014878 -0.00190922 0)
(0.0148376 -0.00220096 0)
(0.0147916 -0.00249185 0)
(0.0147398 -0.00278179 0)
(0.0146823 -0.00307065 0)
(0.0146192 -0.00335832 0)
(0.0145505 -0.00364471 0)
(0.0144761 -0.00392968 0)
(0.0143962 -0.00421314 0)
(0.0143107 -0.00449498 0)
(0.0142197 -0.00477509 0)
(0.0141232 -0.00505335 0)
(0.0140212 -0.00532967 0)
(0.0139139 -0.00560395 0)
(0.0138249 -0.00588614 0)
(0.0141126 -0.00633875 0)
(0.0223824 -0.0105861 0)
(0.0465747 -0.0231579 0)
(0.0374103 -0.0195265 0)
(0.0374597 -0.020498 0)
(0.0380948 -0.0218282 0)
(0.0140817 -0.00844026 0)
(0.0127128 -0.00796317 0)
(0.0125533 -0.00821071 0)
(0.0123896 -0.0084556 0)
(0.0122212 -0.00869722 0)
(0.0120481 -0.00893549 0)
(0.0118704 -0.00917032 0)
(0.011688 -0.00940161 0)
(0.0115012 -0.00962927 0)
(0.0113099 -0.00985323 0)
(0.0111143 -0.0100734 0)
(0.0109143 -0.0102897 0)
(0.0107102 -0.010502 0)
(0.0105021 -0.0107103 0)
(0.0113954 -0.0120872 0)
(0.0356905 -0.0393784 0)
(0.0279816 -0.0321184 0)
(0.0228221 -0.0272586 0)
(0.0207334 -0.0257757 0)
(0.0242417 -0.0313792 0)
(0.0287811 -0.0388068 0)
(0.0223495 -0.0314053 0)
(0.0212315 -0.0311097 0)
(0.0183343 -0.0280311 0)
(0.0276018 -0.0440651 0)
(0.0219313 -0.0365901 0)
(0.0195809 -0.0341729 0)
(0.00773666 -0.0141386 0)
(0.00694101 -0.0132981 0)
(0.00667832 -0.0134313 0)
(0.00641333 -0.0135598 0)
(0.00614586 -0.0136831 0)
(0.00587603 -0.0138012 0)
(0.00560393 -0.0139139 0)
(0.00532967 -0.0140212 0)
(0.00505335 -0.0141232 0)
(0.00477509 -0.0142197 0)
(0.00449498 -0.0143107 0)
(0.00421314 -0.0143962 0)
(0.00392968 -0.0144761 0)
(0.00364471 -0.0145505 0)
(0.00335832 -0.0146192 0)
(0.00307065 -0.0146823 0)
(0.00278179 -0.0147398 0)
(0.00249185 -0.0147916 0)
(0.00220096 -0.0148376 0)
(0.00190922 -0.014878 0)
(0.00161674 -0.0149126 0)
(0.00132364 -0.0149415 0)
(0.00103002 -0.0149646 0)
(0.000736016 -0.0149819 0)
(0.000441723 -0.0149935 0)
(0.00014726 -0.0149993 0)
(0.00014726 0.0149993 0)
(0.000441723 0.0149935 0)
(0.000736016 0.0149819 0)
(0.00103002 0.0149646 0)
(0.00132364 0.0149415 0)
(0.00161674 0.0149126 0)
(0.00190922 0.014878 0)
(0.00220096 0.0148376 0)
(0.00249302 0.0147985 0)
(0.00298612 0.0158225 0)
(0.00847699 0.0405329 0)
(0.0105017 0.0457154 0)
(0.00927077 0.037011 0)
(0.0108688 0.0400382 0)
(0.013191 0.0450731 0)
(0.0112852 0.0359286 0)
(0.0129967 0.0387027 0)
(0.0140812 0.0393543 0)
(0.013531 0.0355973 0)
(0.0124229 0.0308445 0)
(0.00926885 0.02177 0)
(0.00631784 0.014066 0)
(0.00642574 0.0135861 0)
(0.00667836 0.0134314 0)
(0.00694074 0.0132976 0)
(0.00720048 0.0131588 0)
(0.00745745 0.0130149 0)
(0.00771154 0.0128659 0)
(0.00796266 0.012712 0)
(0.00821071 0.0125533 0)
(0.0084556 0.0123896 0)
(0.00869722 0.0122212 0)
(0.00893549 0.0120481 0)
(0.00917032 0.0118704 0)
(0.00940161 0.011688 0)
(0.00962927 0.0115012 0)
(0.00985323 0.0113099 0)
(0.0100734 0.0111143 0)
(0.0102897 0.0109143 0)
(0.010502 0.0107102 0)
(0.0107102 0.010502 0)
(0.0109143 0.0102897 0)
(0.0111143 0.0100734 0)
(0.0113099 0.00985323 0)
(0.0115012 0.00962927 0)
(0.011688 0.00940161 0)
(0.0118704 0.00917032 0)
(0.0120481 0.00893549 0)
(0.0122212 0.00869722 0)
(0.0123896 0.0084556 0)
(0.0125533 0.00821071 0)
(0.012712 0.00796266 0)
(0.0128659 0.00771154 0)
(0.0130149 0.00745745 0)
(0.0131588 0.00720048 0)
(0.0132976 0.00694074 0)
(0.0134313 0.00667832 0)
(0.0135598 0.00641333 0)
(0.0136831 0.00614586 0)
(0.0138012 0.00587603 0)
(0.0139139 0.00560393 0)
(0.0140212 0.00532967 0)
(0.0141232 0.00505335 0)
(0.0142197 0.00477509 0)
(0.0143107 0.00449498 0)
(0.0143962 0.00421314 0)
(0.0144761 0.00392968 0)
(0.0145505 0.00364471 0)
(0.0146192 0.00335832 0)
(0.0146823 0.00307065 0)
(0.0147398 0.00278179 0)
(0.0147916 0.00249185 0)
(0.0148376 0.00220096 0)
(0.014878 0.00190922 0)
(0.0149126 0.00161674 0)
(0.0149415 0.00132364 0)
(0.0149646 0.00103002 0)
(0.0149819 0.000736016 0)
(0.0149935 0.000441723 0)
(0.0149993 0.00014726 0)
(-0.0149993 0.00014726 0)
(-0.0149935 0.000441723 0)
(-0.0149819 0.000736016 0)
(-0.0149646 0.00103002 0)
(-0.0149415 0.00132364 0)
(-0.0149126 0.00161674 0)
(-0.014878 0.00190922 0)
(-0.0148376 0.00220096 0)
(-0.0147916 0.00249185 0)
(-0.0147398 0.00278179 0)
(-0.0146823 0.00307065 0)
(-0.0146192 0.00335832 0)
(-0.0145505 0.00364471 0)
(-0.0144761 0.00392968 0)
(-0.0143962 0.00421314 0)
(-0.0143107 0.00449498 0)
(-0.0142197 0.00477509 0)
(-0.0141232 0.00505335 0)
(-0.0140212 0.00532967 0)
(-0.0139139 0.00560393 0)
(-0.0138012 0.00587603 0)
(-0.0136831 0.00614586 0)
(-0.0135598 0.00641333 0)
(-0.0134313 0.00667832 0)
(-0.0132976 0.00694074 0)
(-0.0131588 0.00720048 0)
(-0.0130149 0.00745745 0)
(-0.0128659 0.00771154 0)
(-0.012712 0.00796266 0)
(-0.0125533 0.00821071 0)
(-0.0123896 0.0084556 0)
(-0.0127004 0.00903824 0)
(-0.0229878 0.0170489 0)
(-0.033945 0.0262239 0)
(-0.0269804 0.0217025 0)
(-0.026602 0.0222724 0)
(-0.0350695 0.0305527 0)
(-0.0416408 0.037741 0)
(-0.0241752 0.0227915 0)
(-0.0304344 0.0298426 0)
(-0.0261176 0.0266355 0)
(-0.0220035 0.0233393 0)
(-0.0107282 0.0118368 0)
(-0.00986467 0.011323 0)
(-0.00962937 0.0115013 0)
(-0.00940161 0.011688 0)
(-0.00917032 0.0118704 0)
(-0.00893549 0.0120481 0)
(-0.00869722 0.0122212 0)
(-0.0084556 0.0123896 0)
(-0.00821071 0.0125533 0)
(-0.00796266 0.012712 0)
(-0.00771154 0.0128659 0)
(-0.00745745 0.0130149 0)
(-0.00720048 0.0131588 0)
(-0.00694074 0.0132976 0)
(-0.00667832 0.0134313 0)
(-0.00641333 0.0135598 0)
(-0.00614586 0.0136831 0)
(-0.00587603 0.0138012 0)
(-0.00560393 0.0139139 0)
(-0.00532967 0.0140212 0)
(-0.00505335 0.0141232 0)
(-0.00477509 0.0142197 0)
(-0.00449498 0.0143107 0)
(-0.00421314 0.0143962 0)
(-0.00392968 0.0144761 0)
(-0.00364471 0.0145505 0)
(-0.00335832 0.0146192 0)
(-0.00307065 0.0146823 0)
(-0.00278179 0.0147398 0)
(-0.00249185 0.0147916 0)
(-0.00220096 0.0148376 0)
(-0.00190922 0.014878 0)
(-0.00161674 0.0149126 0)
(-0.00132364 0.0149415 0)
(-0.00103002 0.0149646 0)
(-0.000736016 0.0149819 0)
(-0.000441723 0.0149935 0)
(-0.00014726 0.0149993 0)
)
;
    }
    outerWall
    {
        type            calculated;
        value           uniform (0 0 0);
    }
    frontAndBack
    {
        type            empty;
    }
}


// ************************************************************************* //
