/*--------------------------------*- C++ -*----------------------------------*\
  =========                 |
  \\      /  F ield         | OpenFOAM: The Open Source CFD Toolbox
   \\    /   O peration     | Website:  https://openfoam.org
    \\  /    A nd           | Version:  7
     \\/     M anipulation  |
\*---------------------------------------------------------------------------*/
FoamFile
{
    version     2.0;
    format      ascii;
    class       volVectorField;
    location    "40";
    object      Us;
}
// * * * * * * * * * * * * * * * * * * * * * * * * * * * * * * * * * * * * * //

dimensions      [0 1 -1 0 0 0 0];

internalField   nonuniform List<vector> 
49920
(
(-1.16778e-10 -1.31864e-10 0)
(-7.2551e-11 -5.13061e-12 0)
(-4.89738e-11 3.06299e-11 0)
(-3.30561e-11 4.28929e-11 0)
(-1.94411e-11 4.67766e-11 0)
(-1.04449e-11 4.64641e-11 0)
(-3.69857e-12 4.66743e-11 0)
(2.27566e-12 4.59981e-11 0)
(8.17317e-12 4.77636e-11 0)
(1.59946e-11 4.96216e-11 0)
(2.51917e-11 4.84132e-11 0)
(3.64108e-11 4.319e-11 0)
(4.87668e-11 3.16711e-11 0)
(5.96488e-11 1.0921e-11 0)
(6.07651e-11 -2.71622e-11 0)
(5.54851e-11 -1.21603e-10 0)
(-3.05501e-11 -2.18906e-10 0)
(4.63218e-10 6.44843e-10 0)
(6.90875e-09 3.96911e-09 0)
(2.17156e-08 8.57129e-09 0)
(4.35435e-08 1.28174e-08 0)
(7.06649e-08 1.57222e-08 0)
(1.01568e-07 1.66791e-08 0)
(1.34965e-07 1.53149e-08 0)
(1.69794e-07 1.14589e-08 0)
(2.05232e-07 5.10487e-09 0)
(2.4067e-07 -3.63899e-09 0)
(2.75686e-07 -1.4598e-08 0)
(3.09999e-07 -2.75657e-08 0)
(3.43431e-07 -4.23263e-08 0)
(3.75883e-07 -5.86668e-08 0)
(4.07305e-07 -7.63832e-08 0)
(4.37685e-07 -9.52834e-08 0)
(4.67033e-07 -1.15188e-07 0)
(4.95376e-07 -1.35929e-07 0)
(5.22749e-07 -1.57354e-07 0)
(5.49189e-07 -1.79319e-07 0)
(5.74726e-07 -2.01693e-07 0)
(5.99381e-07 -2.2435e-07 0)
(6.23159e-07 -2.47173e-07 0)
(6.46044e-07 -2.70044e-07 0)
(6.68001e-07 -2.92845e-07 0)
(6.88974e-07 -3.15454e-07 0)
(7.08891e-07 -3.37743e-07 0)
(7.27681e-07 -3.5958e-07 0)
(7.45279e-07 -3.80833e-07 0)
(7.61653e-07 -4.01374e-07 0)
(7.76819e-07 -4.21094e-07 0)
(7.90868e-07 -4.39914e-07 0)
(8.0398e-07 -4.57798e-07 0)
(8.16445e-07 -4.74771e-07 0)
(8.28679e-07 -4.90931e-07 0)
(8.4122e-07 -5.0646e-07 0)
(8.54741e-07 -5.21628e-07 0)
(8.70031e-07 -5.36796e-07 0)
(8.87987e-07 -5.52409e-07 0)
(9.09588e-07 -5.68981e-07 0)
(9.35864e-07 -5.87082e-07 0)
(9.67862e-07 -6.0731e-07 0)
(1.00659e-06 -6.30268e-07 0)
(1.053e-06 -6.56529e-07 0)
(1.10788e-06 -6.86608e-07 0)
(1.17188e-06 -7.20932e-07 0)
(1.2454e-06 -7.59819e-07 0)
(1.32863e-06 -8.0345e-07 0)
(1.42146e-06 -8.51866e-07 0)
(1.5235e-06 -9.04953e-07 0)
(1.63411e-06 -9.62454e-07 0)
(1.75234e-06 -1.02397e-06 0)
(1.87702e-06 -1.08897e-06 0)
(2.00675e-06 -1.15683e-06 0)
(2.13991e-06 -1.22682e-06 0)
(2.27475e-06 -1.29815e-06 0)
(2.4094e-06 -1.37e-06 0)
(2.54191e-06 -1.4415e-06 0)
(2.6703e-06 -1.5118e-06 0)
(2.79263e-06 -1.58006e-06 0)
(2.90703e-06 -1.64546e-06 0)
(3.01174e-06 -1.70725e-06 0)
(3.10517e-06 -1.76472e-06 0)
(-4.70302e-08 1.3619e-08 0)
(-1.88297e-10 4.97841e-11 0)
(-1.15058e-10 8.49136e-11 0)
(-7.97366e-11 1.04313e-10 0)
(-4.99815e-11 1.17778e-10 0)
(-2.54367e-11 1.18935e-10 0)
(-5.32566e-12 1.19197e-10 0)
(8.03372e-12 1.15279e-10 0)
(1.87455e-11 1.21193e-10 0)
(3.94173e-11 1.31399e-10 0)
(6.55314e-11 1.2675e-10 0)
(9.27624e-11 1.10397e-10 0)
(1.19044e-10 7.93701e-11 0)
(1.41097e-10 3.09248e-11 0)
(1.60102e-10 -3.24377e-11 0)
(1.85326e-10 -1.41378e-10 0)
(1.82755e-10 -2.2173e-10 0)
(1.23107e-08 5.70678e-09 0)
(5.00064e-08 2.01407e-08 0)
(1.11563e-07 3.80028e-08 0)
(1.88526e-07 5.30639e-08 0)
(2.73598e-07 6.18363e-08 0)
(3.61892e-07 6.30731e-08 0)
(4.50394e-07 5.67313e-08 0)
(5.37351e-07 4.33317e-08 0)
(6.21823e-07 2.36132e-08 0)
(7.03377e-07 -1.647e-09 0)
(7.81882e-07 -3.17186e-08 0)
(8.57383e-07 -6.59495e-08 0)
(9.30013e-07 -1.0377e-07 0)
(9.99955e-07 -1.44682e-07 0)
(1.06741e-06 -1.88253e-07 0)
(1.13257e-06 -2.34099e-07 0)
(1.19563e-06 -2.81877e-07 0)
(1.25678e-06 -3.3128e-07 0)
(1.31617e-06 -3.82032e-07 0)
(1.37394e-06 -4.33878e-07 0)
(1.4302e-06 -4.86588e-07 0)
(1.48502e-06 -5.39947e-07 0)
(1.53844e-06 -5.93754e-07 0)
(1.59047e-06 -6.47814e-07 0)
(1.6411e-06 -7.01939e-07 0)
(1.69031e-06 -7.5594e-07 0)
(1.73806e-06 -8.09629e-07 0)
(1.78438e-06 -8.6282e-07 0)
(1.82934e-06 -9.15337e-07 0)
(1.8731e-06 -9.67022e-07 0)
(1.91596e-06 -1.01775e-06 0)
(1.95835e-06 -1.06746e-06 0)
(2.00091e-06 -1.11614e-06 0)
(2.04446e-06 -1.16388e-06 0)
(2.09002e-06 -1.2109e-06 0)
(2.13883e-06 -1.25752e-06 0)
(2.1923e-06 -1.30418e-06 0)
(2.25201e-06 -1.35148e-06 0)
(2.31966e-06 -1.4001e-06 0)
(2.39698e-06 -1.45084e-06 0)
(2.48567e-06 -1.50451e-06 0)
(2.5873e-06 -1.56197e-06 0)
(2.70316e-06 -1.624e-06 0)
(2.8342e-06 -1.69127e-06 0)
(2.9809e-06 -1.7643e-06 0)
(3.14318e-06 -1.84338e-06 0)
(3.32037e-06 -1.92854e-06 0)
(3.51116e-06 -2.01955e-06 0)
(3.71371e-06 -2.11593e-06 0)
(3.92561e-06 -2.21693e-06 0)
(4.14409e-06 -2.3216e-06 0)
(4.36603e-06 -2.42883e-06 0)
(4.58815e-06 -2.53743e-06 0)
(4.8071e-06 -2.64614e-06 0)
(5.01956e-06 -2.75369e-06 0)
(5.22236e-06 -2.85887e-06 0)
(5.41258e-06 -2.96055e-06 0)
(5.58756e-06 -3.0577e-06 0)
(5.745e-06 -3.1494e-06 0)
(5.88299e-06 -3.23486e-06 0)
(6e-06 -3.31342e-06 0)
(6.09488e-06 -3.38453e-06 0)
(6.16688e-06 -3.44779e-06 0)
(-2.05813e-08 5.8671e-08 0)
(1.33221e-09 4.29308e-08 0)
(-2.14338e-10 2.67143e-10 0)
(-1.22679e-10 1.75626e-10 0)
(-7.37637e-11 1.97419e-10 0)
(-3.24612e-11 1.98953e-10 0)
(3.01822e-12 2.086e-10 0)
(1.5861e-11 1.88608e-10 0)
(1.41214e-11 1.99197e-10 0)
(4.98691e-11 1.97297e-10 0)
(9.44187e-11 1.88073e-10 0)
(1.36522e-10 1.62357e-10 0)
(1.81749e-10 1.22333e-10 0)
(2.31862e-10 5.60471e-11 0)
(2.96739e-10 -1.78551e-11 0)
(3.01699e-10 -1.35284e-10 0)
(2.05325e-08 1.01739e-08 0)
(8.27003e-08 4.01105e-08 0)
(1.85568e-07 8.07923e-08 0)
(3.12441e-07 1.16986e-07 0)
(4.4815e-07 1.3996e-07 0)
(5.83754e-07 1.47762e-07 0)
(7.14972e-07 1.41583e-07 0)
(8.4015e-07 1.23484e-07 0)
(9.58959e-07 9.54883e-08 0)
(1.07168e-06 5.93152e-08 0)
(1.17885e-06 1.63486e-08 0)
(1.28105e-06 -3.23134e-08 0)
(1.37886e-06 -8.57973e-08 0)
(1.4728e-06 -1.43397e-07 0)
(1.56334e-06 -2.04531e-07 0)
(1.6509e-06 -2.68707e-07 0)
(1.73585e-06 -3.355e-07 0)
(1.81849e-06 -4.0454e-07 0)
(1.8991e-06 -4.75495e-07 0)
(1.97792e-06 -5.48069e-07 0)
(2.05514e-06 -6.21992e-07 0)
(2.13089e-06 -6.97021e-07 0)
(2.2053e-06 -7.72932e-07 0)
(2.27845e-06 -8.49517e-07 0)
(2.35039e-06 -9.26581e-07 0)
(2.4212e-06 -1.00394e-06 0)
(2.49097e-06 -1.0814e-06 0)
(2.55983e-06 -1.15881e-06 0)
(2.62802e-06 -1.23599e-06 0)
(2.69589e-06 -1.3128e-06 0)
(2.76396e-06 -1.38913e-06 0)
(2.83291e-06 -1.46488e-06 0)
(2.90365e-06 -1.54004e-06 0)
(2.97728e-06 -1.61464e-06 0)
(3.05514e-06 -1.68884e-06 0)
(3.13875e-06 -1.76285e-06 0)
(3.2298e-06 -1.83701e-06 0)
(3.33009e-06 -1.91177e-06 0)
(3.44144e-06 -1.98766e-06 0)
(3.56563e-06 -2.06528e-06 0)
(3.70424e-06 -2.14528e-06 0)
(3.85855e-06 -2.22829e-06 0)
(4.02936e-06 -2.31489e-06 0)
(4.21692e-06 -2.40556e-06 0)
(4.42077e-06 -2.50059e-06 0)
(4.63974e-06 -2.6001e-06 0)
(4.8719e-06 -2.70393e-06 0)
(5.11465e-06 -2.8117e-06 0)
(5.3648e-06 -2.92278e-06 0)
(5.61874e-06 -3.03632e-06 0)
(5.87258e-06 -3.15134e-06 0)
(6.12239e-06 -3.2667e-06 0)
(6.36428e-06 -3.38124e-06 0)
(6.59459e-06 -3.49381e-06 0)
(6.81002e-06 -3.6033e-06 0)
(7.00766e-06 -3.7087e-06 0)
(7.18509e-06 -3.80912e-06 0)
(7.34038e-06 -3.90381e-06 0)
(7.47208e-06 -3.99213e-06 0)
(7.57922e-06 -4.07362e-06 0)
(7.66126e-06 -4.14789e-06 0)
(7.71806e-06 -4.2147e-06 0)
(7.7498e-06 -4.27387e-06 0)
(7.75693e-06 -4.3253e-06 0)
(1.3803e-08 1.78136e-07 0)
(1.5602e-08 9.18635e-08 0)
(3.02927e-09 2.51316e-09 0)
(-3.86595e-11 4.50652e-10 0)
(-2.13734e-10 3.01504e-09 0)
(2.43523e-09 2.9469e-08 0)
(3.34048e-09 2.37249e-08 0)
(4.35376e-09 2.53542e-08 0)
(-2.22931e-10 4.34328e-09 0)
(4.37363e-11 2.7575e-10 0)
(1.19871e-10 2.5466e-10 0)
(1.84888e-10 2.19388e-10 0)
(3.00488e-10 2.0627e-10 0)
(4.66304e-10 1.5849e-10 0)
(4.57695e-10 5.28855e-13 0)
(3.78082e-08 2.06226e-08 0)
(1.37495e-07 7.474e-08 0)
(2.90517e-07 1.46054e-07 0)
(4.6962e-07 2.09023e-07 0)
(6.52335e-07 2.49293e-07 0)
(8.27365e-07 2.64792e-07 0)
(9.91014e-07 2.59015e-07 0)
(1.14315e-06 2.36418e-07 0)
(1.28494e-06 2.00772e-07 0)
(1.41787e-06 1.5491e-07 0)
(1.54331e-06 1.00889e-07 0)
(1.66246e-06 4.02036e-08 0)
(1.77632e-06 -2.60389e-08 0)
(1.88571e-06 -9.6994e-08 0)
(1.99131e-06 -1.71996e-07 0)
(2.09367e-06 -2.50501e-07 0)
(2.19328e-06 -3.32052e-07 0)
(2.29054e-06 -4.16254e-07 0)
(2.3858e-06 -5.02761e-07 0)
(2.47935e-06 -5.91263e-07 0)
(2.57143e-06 -6.81483e-07 0)
(2.66226e-06 -7.73172e-07 0)
(2.75201e-06 -8.66104e-07 0)
(2.84083e-06 -9.60076e-07 0)
(2.92886e-06 -1.0549e-06 0)
(3.01626e-06 -1.1504e-06 0)
(3.10324e-06 -1.24642e-06 0)
(3.19006e-06 -1.3428e-06 0)
(3.27713e-06 -1.4394e-06 0)
(3.36496e-06 -1.53611e-06 0)
(3.45427e-06 -1.6328e-06 0)
(3.54596e-06 -1.7294e-06 0)
(3.64118e-06 -1.82587e-06 0)
(3.74124e-06 -1.92221e-06 0)
(3.84769e-06 -2.01848e-06 0)
(3.96223e-06 -2.1148e-06 0)
(4.08664e-06 -2.21138e-06 0)
(4.22273e-06 -2.30845e-06 0)
(4.37222e-06 -2.40632e-06 0)
(4.53657e-06 -2.50535e-06 0)
(4.71692e-06 -2.60586e-06 0)
(4.91386e-06 -2.70818e-06 0)
(5.12733e-06 -2.81258e-06 0)
(5.35653e-06 -2.91921e-06 0)
(5.59987e-06 -3.02811e-06 0)
(5.85493e-06 -3.13914e-06 0)
(6.11863e-06 -3.25203e-06 0)
(6.38728e-06 -3.3663e-06 0)
(6.65684e-06 -3.48136e-06 0)
(6.92307e-06 -3.59647e-06 0)
(7.18177e-06 -3.71081e-06 0)
(7.42898e-06 -3.82354e-06 0)
(7.66109e-06 -3.9338e-06 0)
(7.87498e-06 -4.04078e-06 0)
(8.06806e-06 -4.14374e-06 0)
(8.23832e-06 -4.24206e-06 0)
(8.38432e-06 -4.33519e-06 0)
(8.50513e-06 -4.42271e-06 0)
(8.60028e-06 -4.50431e-06 0)
(8.66973e-06 -4.57974e-06 0)
(8.71379e-06 -4.64887e-06 0)
(8.73301e-06 -4.7116e-06 0)
(8.72817e-06 -4.76788e-06 0)
(8.7002e-06 -4.81772e-06 0)
(8.65012e-06 -4.86109e-06 0)
(8.1029e-08 4.18237e-07 0)
(7.64628e-08 2.67327e-07 0)
(4.53348e-08 1.14756e-07 0)
(3.1163e-10 1.49922e-09 0)
(-1.26108e-08 8.98591e-09 0)
(-7.97271e-10 4.00958e-08 0)
(8.79536e-09 3.099e-08 0)
(1.7012e-08 2.94948e-08 0)
(1.29867e-08 6.23959e-09 0)
(1.98379e-09 3.37663e-09 0)
(6.32971e-10 1.09098e-09 0)
(4.25344e-10 6.93236e-10 0)
(7.49721e-10 1.15688e-09 0)
(6.96041e-10 2.11308e-10 0)
(7.62235e-08 4.63026e-08 0)
(2.31428e-07 1.40842e-07 0)
(4.41123e-07 2.49148e-07 0)
(6.68721e-07 3.38072e-07 0)
(8.89231e-07 3.92683e-07 0)
(1.09265e-06 4.13216e-07 0)
(1.27788e-06 4.06087e-07 0)
(1.44717e-06 3.78157e-07 0)
(1.60342e-06 3.34797e-07 0)
(1.74923e-06 2.79786e-07 0)
(1.88668e-06 2.15703e-07 0)
(2.01736e-06 1.44329e-07 0)
(2.1425e-06 6.69223e-08 0)
(2.26308e-06 -1.55901e-08 0)
(2.37985e-06 -1.02498e-07 0)
(2.49344e-06 -1.93233e-07 0)
(2.60436e-06 -2.87323e-07 0)
(2.71305e-06 -3.84367e-07 0)
(2.81988e-06 -4.84011e-07 0)
(2.92518e-06 -5.85944e-07 0)
(3.02923e-06 -6.89886e-07 0)
(3.13228e-06 -7.95585e-07 0)
(3.23457e-06 -9.02818e-07 0)
(3.33629e-06 -1.01138e-06 0)
(3.43767e-06 -1.1211e-06 0)
(3.53896e-06 -1.23179e-06 0)
(3.64045e-06 -1.34332e-06 0)
(3.74255e-06 -1.45555e-06 0)
(3.84578e-06 -1.56834e-06 0)
(3.95081e-06 -1.68157e-06 0)
(4.05852e-06 -1.79515e-06 0)
(4.16999e-06 -1.90897e-06 0)
(4.2865e-06 -2.02297e-06 0)
(4.40954e-06 -2.1371e-06 0)
(4.54076e-06 -2.25134e-06 0)
(4.68191e-06 -2.36572e-06 0)
(4.83477e-06 -2.48027e-06 0)
(5.00101e-06 -2.59507e-06 0)
(5.18205e-06 -2.71021e-06 0)
(5.37894e-06 -2.82577e-06 0)
(5.59218e-06 -2.94184e-06 0)
(5.82158e-06 -3.05845e-06 0)
(6.06616e-06 -3.17558e-06 0)
(6.3241e-06 -3.29315e-06 0)
(6.59275e-06 -3.41098e-06 0)
(6.86872e-06 -3.5288e-06 0)
(7.14808e-06 -3.64627e-06 0)
(7.42651e-06 -3.76295e-06 0)
(7.69959e-06 -3.87835e-06 0)
(7.96299e-06 -3.99195e-06 0)
(8.21272e-06 -4.10319e-06 0)
(8.44525e-06 -4.21155e-06 0)
(8.65764e-06 -4.31652e-06 0)
(8.84756e-06 -4.41765e-06 0)
(9.01333e-06 -4.51458e-06 0)
(9.15386e-06 -4.60698e-06 0)
(9.2686e-06 -4.69462e-06 0)
(9.35743e-06 -4.77733e-06 0)
(9.42066e-06 -4.85498e-06 0)
(9.45886e-06 -4.92751e-06 0)
(9.47283e-06 -4.99488e-06 0)
(9.46351e-06 -5.05707e-06 0)
(9.43197e-06 -5.11407e-06 0)
(9.3793e-06 -5.16589e-06 0)
(9.30659e-06 -5.2125e-06 0)
(9.21495e-06 -5.25389e-06 0)
(1.74779e-07 8.00504e-07 0)
(1.83336e-07 6.34135e-07 0)
(1.64087e-07 4.63552e-07 0)
(1.12999e-07 3.07983e-07 0)
(7.2971e-08 2.45912e-07 0)
(7.18027e-08 2.15411e-07 0)
(8.07874e-08 1.77729e-07 0)
(8.3868e-08 1.37527e-07 0)
(7.36626e-08 8.96374e-08 0)
(4.12359e-08 4.22098e-08 0)
(2.78902e-09 9.60031e-10 0)
(9.87167e-10 9.92723e-10 0)
(3.45767e-08 1.92004e-08 0)
(1.77712e-07 1.21584e-07 0)
(3.978e-07 2.70176e-07 0)
(6.55395e-07 4.11386e-07 0)
(9.1453e-07 5.1525e-07 0)
(1.15529e-06 5.74152e-07 0)
(1.37234e-06 5.93165e-07 0)
(1.56774e-06 5.81221e-07 0)
(1.74568e-06 5.46515e-07 0)
(1.9101e-06 4.95176e-07 0)
(2.06413e-06 4.31405e-07 0)
(2.21006e-06 3.58015e-07 0)
(2.34954e-06 2.76908e-07 0)
(2.48382e-06 1.89409e-07 0)
(2.61382e-06 9.64797e-08 0)
(2.74027e-06 -1.14833e-09 0)
(2.86377e-06 -1.02894e-07 0)
(2.9848e-06 -2.08276e-07 0)
(3.10378e-06 -3.16885e-07 0)
(3.2211e-06 -4.28363e-07 0)
(3.33708e-06 -5.42391e-07 0)
(3.45203e-06 -6.58686e-07 0)
(3.56622e-06 -7.76991e-07 0)
(3.67993e-06 -8.97078e-07 0)
(3.79342e-06 -1.01874e-06 0)
(3.90698e-06 -1.14179e-06 0)
(4.02093e-06 -1.26606e-06 0)
(4.13566e-06 -1.39141e-06 0)
(4.25168e-06 -1.51768e-06 0)
(4.36961e-06 -1.64475e-06 0)
(4.49025e-06 -1.7725e-06 0)
(4.61458e-06 -1.90079e-06 0)
(4.74378e-06 -2.0295e-06 0)
(4.87925e-06 -2.15854e-06 0)
(5.02252e-06 -2.28778e-06 0)
(5.17527e-06 -2.41713e-06 0)
(5.33921e-06 -2.54648e-06 0)
(5.51597e-06 -2.67575e-06 0)
(5.70697e-06 -2.80484e-06 0)
(5.91328e-06 -2.93365e-06 0)
(6.13542e-06 -3.06206e-06 0)
(6.37327e-06 -3.18993e-06 0)
(6.62587e-06 -3.3171e-06 0)
(6.89144e-06 -3.44338e-06 0)
(7.16733e-06 -3.56851e-06 0)
(7.45013e-06 -3.69223e-06 0)
(7.73584e-06 -3.81425e-06 0)
(8.02007e-06 -3.93425e-06 0)
(8.29829e-06 -4.05192e-06 0)
(8.5661e-06 -4.16692e-06 0)
(8.81946e-06 -4.27895e-06 0)
(9.05483e-06 -4.38774e-06 0)
(9.2693e-06 -4.49304e-06 0)
(9.46066e-06 -4.59464e-06 0)
(9.62736e-06 -4.69237e-06 0)
(9.76847e-06 -4.78613e-06 0)
(9.88362e-06 -4.87581e-06 0)
(9.97292e-06 -4.96139e-06 0)
(1.00368e-05 -5.04282e-06 0)
(1.0076e-05 -5.12011e-06 0)
(1.00915e-05 -5.19327e-06 0)
(1.00842e-05 -5.26229e-06 0)
(1.00553e-05 -5.32718e-06 0)
(1.0006e-05 -5.38792e-06 0)
(9.93723e-06 -5.44451e-06 0)
(9.85021e-06 -5.49689e-06 0)
(9.7459e-06 -5.545e-06 0)
(9.62526e-06 -5.58878e-06 0)
(2.74732e-07 1.27979e-06 0)
(3.0845e-07 1.13397e-06 0)
(3.20699e-07 9.85775e-07 0)
(3.07636e-07 8.44852e-07 0)
(2.88911e-07 7.29407e-07 0)
(2.87908e-07 6.32733e-07 0)
(2.98425e-07 5.4495e-07 0)
(3.07216e-07 4.57425e-07 0)
(3.09126e-07 3.7074e-07 0)
(2.97475e-07 2.87706e-07 0)
(2.86199e-07 2.34874e-07 0)
(3.32021e-07 2.57681e-07 0)
(4.64477e-07 3.5749e-07 0)
(6.91071e-07 5.12906e-07 0)
(9.50609e-07 6.52889e-07 0)
(1.20671e-06 7.4793e-07 0)
(1.44344e-06 7.96045e-07 0)
(1.65797e-06 8.04973e-07 0)
(1.85311e-06 7.83935e-07 0)
(2.03301e-06 7.4069e-07 0)
(2.20131e-06 6.80956e-07 0)
(2.36077e-06 6.08692e-07 0)
(2.51335e-06 5.26589e-07 0)
(2.66044e-06 4.36492e-07 0)
(2.80304e-06 3.39702e-07 0)
(2.94192e-06 2.37177e-07 0)
(3.07767e-06 1.2965e-07 0)
(3.21079e-06 1.77104e-08 0)
(3.34171e-06 -9.81544e-08 0)
(3.4708e-06 -2.17525e-07 0)
(3.59842e-06 -3.40034e-07 0)
(3.72488e-06 -4.65354e-07 0)
(3.8505e-06 -5.9319e-07 0)
(3.97558e-06 -7.23276e-07 0)
(4.10042e-06 -8.55372e-07 0)
(4.22534e-06 -9.8926e-07 0)
(4.35067e-06 -1.12475e-06 0)
(4.47682e-06 -1.26165e-06 0)
(4.60424e-06 -1.3998e-06 0)
(4.73351e-06 -1.53905e-06 0)
(4.86535e-06 -1.67925e-06 0)
(5.00062e-06 -1.82025e-06 0)
(5.14038e-06 -1.96189e-06 0)
(5.28585e-06 -2.10401e-06 0)
(5.43846e-06 -2.24645e-06 0)
(5.59972e-06 -2.38903e-06 0)
(5.77126e-06 -2.53154e-06 0)
(5.95463e-06 -2.67378e-06 0)
(6.15126e-06 -2.81553e-06 0)
(6.36226e-06 -2.95654e-06 0)
(6.58828e-06 -3.09657e-06 0)
(6.82934e-06 -3.23532e-06 0)
(7.08471e-06 -3.37252e-06 0)
(7.35285e-06 -3.50787e-06 0)
(7.63132e-06 -3.64107e-06 0)
(7.91694e-06 -3.77184e-06 0)
(8.20583e-06 -3.89991e-06 0)
(8.4937e-06 -4.02502e-06 0)
(8.77607e-06 -4.14697e-06 0)
(9.0485e-06 -4.26559e-06 0)
(9.30689e-06 -4.38074e-06 0)
(9.54762e-06 -4.49232e-06 0)
(9.7677e-06 -4.6003e-06 0)
(9.96486e-06 -4.70464e-06 0)
(1.01375e-05 -4.80536e-06 0)
(1.02847e-05 -4.90248e-06 0)
(1.04061e-05 -4.99605e-06 0)
(1.05018e-05 -5.08612e-06 0)
(1.05723e-05 -5.17275e-06 0)
(1.06184e-05 -5.256e-06 0)
(1.06409e-05 -5.3359e-06 0)
(1.06411e-05 -5.41248e-06 0)
(1.062e-05 -5.48577e-06 0)
(1.05788e-05 -5.55574e-06 0)
(1.05185e-05 -5.62239e-06 0)
(1.04401e-05 -5.68566e-06 0)
(1.03448e-05 -5.74549e-06 0)
(1.02334e-05 -5.80179e-06 0)
(1.01068e-05 -5.85445e-06 0)
(9.96576e-06 -5.90335e-06 0)
(3.73416e-07 1.78695e-06 0)
(4.36005e-07 1.66418e-06 0)
(4.8532e-07 1.5395e-06 0)
(5.21148e-07 1.41516e-06 0)
(5.50292e-07 1.2916e-06 0)
(5.82617e-07 1.17257e-06 0)
(6.20673e-07 1.06038e-06 0)
(6.61884e-07 9.54663e-07 0)
(7.05511e-07 8.60038e-07 0)
(7.53328e-07 7.88209e-07 0)
(8.18472e-07 7.63728e-07 0)
(9.29001e-07 8.02655e-07 0)
(1.09898e-06 8.87262e-07 0)
(1.30855e-06 9.75571e-07 0)
(1.52747e-06 1.03456e-06 0)
(1.73949e-06 1.0575e-06 0)
(1.93936e-06 1.04874e-06 0)
(2.12724e-06 1.01473e-06 0)
(2.30509e-06 9.6117e-07 0)
(2.47497e-06 8.92427e-07 0)
(2.63856e-06 8.11679e-07 0)
(2.79707e-06 7.21189e-07 0)
(2.95139e-06 6.22583e-07 0)
(3.10218e-06 5.17056e-07 0)
(3.24992e-06 4.05515e-07 0)
(3.39504e-06 2.88676e-07 0)
(3.5379e-06 1.67124e-07 0)
(3.67884e-06 4.13531e-08 0)
(3.81818e-06 -8.82094e-08 0)
(3.95623e-06 -2.21185e-07 0)
(4.09329e-06 -3.57235e-07 0)
(4.22968e-06 -4.96051e-07 0)
(4.3657e-06 -6.37353e-07 0)
(4.50168e-06 -7.80886e-07 0)
(4.63798e-06 -9.26414e-07 0)
(4.77498e-06 -1.07373e-06 0)
(4.91313e-06 -1.22262e-06 0)
(5.05296e-06 -1.37291e-06 0)
(5.19508e-06 -1.52442e-06 0)
(5.34027e-06 -1.67697e-06 0)
(5.48944e-06 -1.83037e-06 0)
(5.64365e-06 -1.98443e-06 0)
(5.80415e-06 -2.13895e-06 0)
(5.97231e-06 -2.29368e-06 0)
(6.14958e-06 -2.44837e-06 0)
(6.33745e-06 -2.60275e-06 0)
(6.53728e-06 -2.75648e-06 0)
(6.75025e-06 -2.90924e-06 0)
(6.97711e-06 -3.06066e-06 0)
(7.21814e-06 -3.21036e-06 0)
(7.47289e-06 -3.35796e-06 0)
(7.74017e-06 -3.50307e-06 0)
(8.01796e-06 -3.64533e-06 0)
(8.30343e-06 -3.78443e-06 0)
(8.59306e-06 -3.92007e-06 0)
(8.88282e-06 -4.05204e-06 0)
(9.16837e-06 -4.1802e-06 0)
(9.44535e-06 -4.30446e-06 0)
(9.70961e-06 -4.4248e-06 0)
(9.95744e-06 -4.54127e-06 0)
(1.01857e-05 -4.65396e-06 0)
(1.03919e-05 -4.76299e-06 0)
(1.05744e-05 -4.8685e-06 0)
(1.07319e-05 -4.97066e-06 0)
(1.08641e-05 -5.0696e-06 0)
(1.0971e-05 -5.16548e-06 0)
(1.10529e-05 -5.25843e-06 0)
(1.11105e-05 -5.34855e-06 0)
(1.11449e-05 -5.43593e-06 0)
(1.11569e-05 -5.52062e-06 0)
(1.11478e-05 -5.60266e-06 0)
(1.11186e-05 -5.68205e-06 0)
(1.10704e-05 -5.75878e-06 0)
(1.10042e-05 -5.8328e-06 0)
(1.09211e-05 -5.90404e-06 0)
(1.08219e-05 -5.97242e-06 0)
(1.07075e-05 -6.03784e-06 0)
(1.05786e-05 -6.10016e-06 0)
(1.04359e-05 -6.15925e-06 0)
(1.028e-05 -6.21496e-06 0)
(4.73394e-07 2.28148e-06 0)
(5.64385e-07 2.17106e-06 0)
(6.48236e-07 2.0583e-06 0)
(7.25874e-07 1.94353e-06 0)
(8.00038e-07 1.8268e-06 0)
(8.74599e-07 1.71111e-06 0)
(9.52488e-07 1.60067e-06 0)
(1.03541e-06 1.50012e-06 0)
(1.12537e-06 1.41619e-06 0)
(1.22613e-06 1.35847e-06 0)
(1.34451e-06 1.33477e-06 0)
(1.48753e-06 1.34055e-06 0)
(1.65488e-06 1.35805e-06 0)
(1.83591e-06 1.36688e-06 0)
(2.02083e-06 1.35635e-06 0)
(2.20406e-06 1.32503e-06 0)
(2.38343e-06 1.27514e-06 0)
(2.55855e-06 1.20957e-06 0)
(2.72972e-06 1.13093e-06 0)
(2.89737e-06 1.04132e-06 0)
(3.06189e-06 9.42393e-07 0)
(3.22359e-06 8.35419e-07 0)
(3.38274e-06 7.2141e-07 0)
(3.53956e-06 6.0118e-07 0)
(3.69428e-06 4.75396e-07 0)
(3.84713e-06 3.44623e-07 0)
(3.99834e-06 2.09351e-07 0)
(4.14816e-06 7.00083e-08 0)
(4.29686e-06 -7.30177e-08 0)
(4.44472e-06 -2.19377e-07 0)
(4.59204e-06 -3.68748e-07 0)
(4.73914e-06 -5.20837e-07 0)
(4.88636e-06 -6.75368e-07 0)
(5.03407e-06 -8.3209e-07 0)
(5.1827e-06 -9.90764e-07 0)
(5.33274e-06 -1.15117e-06 0)
(5.48473e-06 -1.31309e-06 0)
(5.63936e-06 -1.47631e-06 0)
(5.79739e-06 -1.64063e-06 0)
(5.95976e-06 -1.80582e-06 0)
(6.12752e-06 -1.97163e-06 0)
(6.30187e-06 -2.13781e-06 0)
(6.4841e-06 -2.30405e-06 0)
(6.67554e-06 -2.47004e-06 0)
(6.87752e-06 -2.63539e-06 0)
(7.09118e-06 -2.79972e-06 0)
(7.31741e-06 -2.96257e-06 0)
(7.55669e-06 -3.12351e-06 0)
(7.8089e-06 -3.28205e-06 0)
(8.07327e-06 -3.43774e-06 0)
(8.34825e-06 -3.59016e-06 0)
(8.63151e-06 -3.73891e-06 0)
(8.92002e-06 -3.88368e-06 0)
(9.21013e-06 -4.02425e-06 0)
(9.49782e-06 -4.16046e-06 0)
(9.7789e-06 -4.29229e-06 0)
(1.00492e-05 -4.41976e-06 0)
(1.03051e-05 -4.54302e-06 0)
(1.05431e-05 -4.66225e-06 0)
(1.07605e-05 -4.77768e-06 0)
(1.09555e-05 -4.88956e-06 0)
(1.11265e-05 -4.99815e-06 0)
(1.12729e-05 -5.10371e-06 0)
(1.13945e-05 -5.20647e-06 0)
(1.14915e-05 -5.30662e-06 0)
(1.15645e-05 -5.40433e-06 0)
(1.16143e-05 -5.49973e-06 0)
(1.16418e-05 -5.59292e-06 0)
(1.16481e-05 -5.68395e-06 0)
(1.16343e-05 -5.77286e-06 0)
(1.16013e-05 -5.85963e-06 0)
(1.15503e-05 -5.94423e-06 0)
(1.14822e-05 -6.0266e-06 0)
(1.13978e-05 -6.10666e-06 0)
(1.1298e-05 -6.18432e-06 0)
(1.11835e-05 -6.25944e-06 0)
(1.10551e-05 -6.33189e-06 0)
(1.09132e-05 -6.40154e-06 0)
(1.07585e-05 -6.46821e-06 0)
(1.05914e-05 -6.53174e-06 0)
(5.77178e-07 2.75515e-06 0)
(6.94267e-07 2.64813e-06 0)
(8.07648e-07 2.53879e-06 0)
(9.18281e-07 2.42775e-06 0)
(1.02773e-06 2.31606e-06 0)
(1.13799e-06 2.20599e-06 0)
(1.25112e-06 2.10095e-06 0)
(1.36909e-06 2.00517e-06 0)
(1.49393e-06 1.92317e-06 0)
(1.6279e-06 1.85842e-06 0)
(1.77295e-06 1.81032e-06 0)
(1.92937e-06 1.77237e-06 0)
(2.09506e-06 1.73508e-06 0)
(2.2664e-06 1.69057e-06 0)
(2.44056e-06 1.63494e-06 0)
(2.61563e-06 1.56732e-06 0)
(2.79045e-06 1.48819e-06 0)
(2.96437e-06 1.39849e-06 0)
(3.13703e-06 1.29923e-06 0)
(3.3082e-06 1.19138e-06 0)
(3.47777e-06 1.07579e-06 0)
(3.64566e-06 9.53235e-07 0)
(3.8119e-06 8.24368e-07 0)
(3.97651e-06 6.89778e-07 0)
(4.13962e-06 5.49983e-07 0)
(4.30136e-06 4.05448e-07 0)
(4.46191e-06 2.56596e-07 0)
(4.6215e-06 1.03812e-07 0)
(4.78037e-06 -5.25487e-08 0)
(4.9388e-06 -2.12155e-07 0)
(5.09712e-06 -3.74697e-07 0)
(5.25567e-06 -5.39885e-07 0)
(5.41483e-06 -7.07445e-07 0)
(5.57506e-06 -8.77118e-07 0)
(5.73685e-06 -1.04865e-06 0)
(5.9008e-06 -1.2218e-06 0)
(6.06756e-06 -1.39633e-06 0)
(6.23794e-06 -1.57197e-06 0)
(6.41283e-06 -1.74848e-06 0)
(6.59325e-06 -1.92555e-06 0)
(6.78032e-06 -2.10287e-06 0)
(6.97524e-06 -2.28009e-06 0)
(7.17919e-06 -2.45682e-06 0)
(7.39331e-06 -2.6326e-06 0)
(7.61854e-06 -2.80698e-06 0)
(7.85551e-06 -2.97944e-06 0)
(8.10442e-06 -3.14946e-06 0)
(8.36489e-06 -3.31651e-06 0)
(8.63587e-06 -3.4801e-06 0)
(8.9156e-06 -3.63977e-06 0)
(9.20161e-06 -3.79514e-06 0)
(9.49077e-06 -3.94594e-06 0)
(9.77949e-06 -4.09198e-06 0)
(1.00639e-05 -4.23321e-06 0)
(1.03399e-05 -4.36968e-06 0)
(1.06039e-05 -4.50155e-06 0)
(1.08522e-05 -4.62906e-06 0)
(1.10821e-05 -4.75251e-06 0)
(1.12912e-05 -4.87224e-06 0)
(1.14778e-05 -4.9886e-06 0)
(1.16409e-05 -5.10192e-06 0)
(1.17799e-05 -5.21251e-06 0)
(1.18949e-05 -5.32065e-06 0)
(1.19861e-05 -5.42658e-06 0)
(1.20543e-05 -5.53047e-06 0)
(1.21002e-05 -5.63248e-06 0)
(1.21249e-05 -5.73269e-06 0)
(1.21292e-05 -5.83116e-06 0)
(1.21142e-05 -5.92791e-06 0)
(1.20809e-05 -6.02292e-06 0)
(1.20302e-05 -6.11615e-06 0)
(1.1963e-05 -6.20752e-06 0)
(1.188e-05 -6.29694e-06 0)
(1.17821e-05 -6.3843e-06 0)
(1.16699e-05 -6.46948e-06 0)
(1.15439e-05 -6.55234e-06 0)
(1.14048e-05 -6.63271e-06 0)
(1.12529e-05 -6.71045e-06 0)
(1.10888e-05 -6.78538e-06 0)
(1.09128e-05 -6.85733e-06 0)
(6.85396e-07 3.21347e-06 0)
(8.26098e-07 3.10466e-06 0)
(9.64772e-07 2.99381e-06 0)
(1.1022e-06 2.8818e-06 0)
(1.23944e-06 2.76985e-06 0)
(1.37777e-06 2.65973e-06 0)
(1.51855e-06 2.55365e-06 0)
(1.66312e-06 2.45404e-06 0)
(1.81269e-06 2.36284e-06 0)
(1.96817e-06 2.28048e-06 0)
(2.12977e-06 2.20502e-06 0)
(2.29691e-06 2.13247e-06 0)
(2.46845e-06 2.05837e-06 0)
(2.64322e-06 1.97927e-06 0)
(2.82025e-06 1.89318e-06 0)
(2.9987e-06 1.79923e-06 0)
(3.17784e-06 1.6972e-06 0)
(3.35707e-06 1.58722e-06 0)
(3.53594e-06 1.46962e-06 0)
(3.71408e-06 1.34485e-06 0)
(3.89126e-06 1.21336e-06 0)
(4.06731e-06 1.07564e-06 0)
(4.24218e-06 9.32156e-07 0)
(4.41585e-06 7.83342e-07 0)
(4.58839e-06 6.2962e-07 0)
(4.75993e-06 4.71385e-07 0)
(4.93064e-06 3.09009e-07 0)
(5.10072e-06 1.42844e-07 0)
(5.27045e-06 -2.67749e-08 0)
(5.44013e-06 -1.99531e-07 0)
(5.6101e-06 -3.7512e-07 0)
(5.78075e-06 -5.53251e-07 0)
(5.95254e-06 -7.3364e-07 0)
(6.12597e-06 -9.16012e-07 0)
(6.30163e-06 -1.10009e-06 0)
(6.4802e-06 -1.2856e-06 0)
(6.66243e-06 -1.47226e-06 0)
(6.84919e-06 -1.65974e-06 0)
(7.04145e-06 -1.84773e-06 0)
(7.24023e-06 -2.03586e-06 0)
(7.44661e-06 -2.22372e-06 0)
(7.66164e-06 -2.41086e-06 0)
(7.88626e-06 -2.59679e-06 0)
(8.12122e-06 -2.78098e-06 0)
(8.36693e-06 -2.96287e-06 0)
(8.62337e-06 -3.14189e-06 0)
(8.88996e-06 -3.31749e-06 0)
(9.16551e-06 -3.48913e-06 0)
(9.44812e-06 -3.65638e-06 0)
(9.73528e-06 -3.81886e-06 0)
(1.00239e-05 -3.97633e-06 0)
(1.03105e-05 -4.12868e-06 0)
(1.05915e-05 -4.2759e-06 0)
(1.0863e-05 -4.41815e-06 0)
(1.11216e-05 -4.55566e-06 0)
(1.13642e-05 -4.68875e-06 0)
(1.15882e-05 -4.81782e-06 0)
(1.17915e-05 -4.94326e-06 0)
(1.19727e-05 -5.0655e-06 0)
(1.2131e-05 -5.18492e-06 0)
(1.2266e-05 -5.30186e-06 0)
(1.23778e-05 -5.41665e-06 0)
(1.24667e-05 -5.52952e-06 0)
(1.25335e-05 -5.64068e-06 0)
(1.25788e-05 -5.75027e-06 0)
(1.26037e-05 -5.85839e-06 0)
(1.26091e-05 -5.96508e-06 0)
(1.25958e-05 -6.07036e-06 0)
(1.25647e-05 -6.1742e-06 0)
(1.25168e-05 -6.27655e-06 0)
(1.24528e-05 -6.37733e-06 0)
(1.23734e-05 -6.47645e-06 0)
(1.22793e-05 -6.57379e-06 0)
(1.2171e-05 -6.66922e-06 0)
(1.20492e-05 -6.76259e-06 0)
(1.19142e-05 -6.85376e-06 0)
(1.17665e-05 -6.94255e-06 0)
(1.16064e-05 -7.02882e-06 0)
(1.14344e-05 -7.11238e-06 0)
(1.12507e-05 -7.19306e-06 0)
(7.97934e-07 3.66349e-06 0)
(9.60306e-07 3.54986e-06 0)
(1.12142e-06 3.43429e-06 0)
(1.28188e-06 3.31762e-06 0)
(1.44242e-06 3.2009e-06 0)
(1.60391e-06 3.08534e-06 0)
(1.7672e-06 2.97224e-06 0)
(1.93312e-06 2.86277e-06 0)
(2.10228e-06 2.75752e-06 0)
(2.27499e-06 2.65617e-06 0)
(2.45119e-06 2.55728e-06 0)
(2.63052e-06 2.45869e-06 0)
(2.81247e-06 2.35813e-06 0)
(2.99657e-06 2.25374e-06 0)
(3.18233e-06 2.14422e-06 0)
(3.36924e-06 2.02876e-06 0)
(3.55683e-06 1.90694e-06 0)
(3.74461e-06 1.77861e-06 0)
(3.93221e-06 1.64384e-06 0)
(4.11932e-06 1.50282e-06 0)
(4.3057e-06 1.3558e-06 0)
(4.49121e-06 1.20312e-06 0)
(4.67579e-06 1.0451e-06 0)
(4.85945e-06 8.82103e-07 0)
(5.04224e-06 7.14468e-07 0)
(5.22431e-06 5.4254e-07 0)
(5.40583e-06 3.66655e-07 0)
(5.58704e-06 1.87141e-07 0)
(5.76822e-06 4.31593e-09 0)
(5.94971e-06 -1.81508e-07 0)
(6.1319e-06 -3.70027e-07 0)
(6.31523e-06 -5.60939e-07 0)
(6.50019e-06 -7.53945e-07 0)
(6.68738e-06 -9.48744e-07 0)
(6.87744e-06 -1.14503e-06 0)
(7.0711e-06 -1.34247e-06 0)
(7.26918e-06 -1.54073e-06 0)
(7.47256e-06 -1.73944e-06 0)
(7.6822e-06 -1.93818e-06 0)
(7.89903e-06 -2.13652e-06 0)
(8.12396e-06 -2.33395e-06 0)
(8.35778e-06 -2.52994e-06 0)
(8.60106e-06 -2.72393e-06 0)
(8.85404e-06 -2.91531e-06 0)
(9.11655e-06 -3.1035e-06 0)
(9.38787e-06 -3.28791e-06 0)
(9.6667e-06 -3.46803e-06 0)
(9.95116e-06 -3.64339e-06 0)
(1.02388e-05 -3.81367e-06 0)
(1.05265e-05 -3.97865e-06 0)
(1.08112e-05 -4.13824e-06 0)
(1.10892e-05 -4.29252e-06 0)
(1.13573e-05 -4.44169e-06 0)
(1.16121e-05 -4.58604e-06 0)
(1.18508e-05 -4.72596e-06 0)
(1.20711e-05 -4.86189e-06 0)
(1.22712e-05 -4.99429e-06 0)
(1.24498e-05 -5.12362e-06 0)
(1.26062e-05 -5.25028e-06 0)
(1.27401e-05 -5.37467e-06 0)
(1.28516e-05 -5.4971e-06 0)
(1.29412e-05 -5.61785e-06 0)
(1.30093e-05 -5.7371e-06 0)
(1.30569e-05 -5.85502e-06 0)
(1.30846e-05 -5.9717e-06 0)
(1.30933e-05 -6.08718e-06 0)
(1.3084e-05 -6.20147e-06 0)
(1.30574e-05 -6.31455e-06 0)
(1.30142e-05 -6.42637e-06 0)
(1.29552e-05 -6.53683e-06 0)
(1.2881e-05 -6.64585e-06 0)
(1.27922e-05 -6.7533e-06 0)
(1.26893e-05 -6.85906e-06 0)
(1.25728e-05 -6.96298e-06 0)
(1.24431e-05 -7.06492e-06 0)
(1.23005e-05 -7.16471e-06 0)
(1.21455e-05 -7.26219e-06 0)
(1.19782e-05 -7.35721e-06 0)
(1.17991e-05 -7.44957e-06 0)
(1.16083e-05 -7.53913e-06 0)
(9.14573e-07 4.11035e-06 0)
(1.09728e-06 3.98985e-06 0)
(1.27907e-06 3.86727e-06 0)
(1.46037e-06 3.74331e-06 0)
(1.6417e-06 3.61875e-06 0)
(1.82363e-06 3.49438e-06 0)
(2.00673e-06 3.37094e-06 0)
(2.19146e-06 3.24897e-06 0)
(2.37817e-06 3.1286e-06 0)
(2.567e-06 3.00946e-06 0)
(2.7579e-06 2.89065e-06 0)
(2.95069e-06 2.77095e-06 0)
(3.14512e-06 2.64903e-06 0)
(3.34094e-06 2.52374e-06 0)
(3.53782e-06 2.39413e-06 0)
(3.73543e-06 2.25954e-06 0)
(3.93342e-06 2.11954e-06 0)
(4.13145e-06 1.97391e-06 0)
(4.32923e-06 1.82262e-06 0)
(4.52652e-06 1.66572e-06 0)
(4.72317e-06 1.50339e-06 0)
(4.91907e-06 1.33583e-06 0)
(5.11418e-06 1.16332e-06 0)
(5.30854e-06 9.86134e-07 0)
(5.50224e-06 8.04569e-07 0)
(5.69544e-06 6.18934e-07 0)
(5.88834e-06 4.29538e-07 0)
(6.0812e-06 2.36691e-07 0)
(6.27434e-06 4.07043e-08 0)
(6.46814e-06 -1.58109e-07 0)
(6.66301e-06 -3.59438e-07 0)
(6.85946e-06 -5.62963e-07 0)
(7.05803e-06 -7.68362e-07 0)
(7.25934e-06 -9.753e-07 0)
(7.46409e-06 -1.18342e-06 0)
(7.67304e-06 -1.39236e-06 0)
(7.887e-06 -1.6017e-06 0)
(8.10681e-06 -1.811e-06 0)
(8.33331e-06 -2.01979e-06 0)
(8.56728e-06 -2.22754e-06 0)
(8.80935e-06 -2.43368e-06 0)
(9.05997e-06 -2.63762e-06 0)
(9.31925e-06 -2.83874e-06 0)
(9.58689e-06 -3.03643e-06 0)
(9.86212e-06 -3.2301e-06 0)
(1.01436e-05 -3.41924e-06 0)
(1.04295e-05 -3.6034e-06 0)
(1.07174e-05 -3.78225e-06 0)
(1.10046e-05 -3.95561e-06 0)
(1.12879e-05 -4.12344e-06 0)
(1.1564e-05 -4.28582e-06 0)
(1.18299e-05 -4.443e-06 0)
(1.20826e-05 -4.59532e-06 0)
(1.23195e-05 -4.7432e-06 0)
(1.25383e-05 -4.88712e-06 0)
(1.27376e-05 -5.02755e-06 0)
(1.2916e-05 -5.16499e-06 0)
(1.3073e-05 -5.29987e-06 0)
(1.32084e-05 -5.4326e-06 0)
(1.33222e-05 -5.5635e-06 0)
(1.34147e-05 -5.69285e-06 0)
(1.34866e-05 -5.82087e-06 0)
(1.35385e-05 -5.94769e-06 0)
(1.35712e-05 -6.07343e-06 0)
(1.35854e-05 -6.19813e-06 0)
(1.35818e-05 -6.3218e-06 0)
(1.35613e-05 -6.44442e-06 0)
(1.35245e-05 -6.56593e-06 0)
(1.3472e-05 -6.68625e-06 0)
(1.34044e-05 -6.80529e-06 0)
(1.33221e-05 -6.92293e-06 0)