/*--------------------------------*- C++ -*----------------------------------*\
  =========                 |
  \\      /  F ield         | OpenFOAM: The Open Source CFD Toolbox
   \\    /   O peration     | Website:  https://openfoam.org
    \\  /    A nd           | Version:  7
     \\/     M anipulation  |
\*---------------------------------------------------------------------------*/
FoamFile
{
    version     2.0;
    format      ascii;
    class       surfaceScalarField;
    location    "5500";
    object      alphaPhi;
}
// * * * * * * * * * * * * * * * * * * * * * * * * * * * * * * * * * * * * * //

dimensions      [0 3 -1 0 0 0 0];

internalField   nonuniform List<scalar> 
319200
(
7.19578e-19
6.3219e-18
1.0433e-17
-2.14304e-18
1.55818e-17
-4.37036e-18
3.38446e-17
-5.9152e-18
4.0113e-17
-1.11235e-17
4.76e-17
-6.11347e-18
5.87531e-17
-7.19736e-18
7.19926e-17
-2.71565e-18
7.69382e-17
-1.69398e-17
8.71928e-17
-9.19997e-18
9.3972e-17
-1.34244e-17
9.95852e-17
-1.34072e-17
9.86238e-17
-3.96109e-18
5.30331e-17
7.35079e-18
7.90041e-18
1.89267e-18
3.52727e-17
-3.90481e-18
8.05912e-17
6.11518e-19
9.78504e-17
-2.16743e-17
1.00851e-16
-8.94739e-18
1.04133e-16
-7.98683e-18
1.57617e-16
-1.26499e-17
1.50683e-16
-2.37515e-17
6.79006e-17
-2.16771e-17
9.82234e-17
-1.68179e-17
2.244e-16
-1.33087e-17
1.82219e-16
2.75268e-18
9.57173e-17
1.27429e-17
3.20485e-17
-1.37481e-18
1.41629e-17
-3.98555e-18
1.23768e-17
-3.75003e-18
2.53645e-17
-1.4057e-17
3.91118e-17
-1.94979e-17
4.34787e-17
-1.10208e-17
1.13446e-16
-3.69468e-18
2.02932e-16
-1.72796e-18
1.72218e-16
-1.49807e-17
6.74245e-17
-9.93709e-18
2.37494e-17
-3.45272e-18
2.11884e-17
9.74382e-18
-2.14735e-18
-4.52015e-18
8.10722e-17
-1.36901e-17
1.60511e-16
-1.67956e-17
1.34116e-16
-1.94e-17
6.21447e-17
-5.10697e-18
-1.69548e-17
-7.32799e-19
-4.59543e-17
2.26455e-18
1.99482e-17
-7.22074e-18
2.92812e-17
-5.09938e-18
3.69989e-17
-2.91175e-18
1.19644e-16
-1.19286e-17
1.19228e-16
-4.54884e-17
6.18885e-17
-1.50001e-17
3.67034e-17
-9.53218e-19
2.03147e-17
-6.68214e-18
6.87959e-18
-1.24114e-17
-1.17466e-17
-2.47942e-18
1.25907e-17
-3.47083e-18
1.01962e-17
-4.41747e-18
6.73286e-18
-7.39072e-18
-9.16612e-18
-8.295e-18
-2.4115e-17
-7.71431e-18
-1.04882e-18
-4.15272e-18
6.67789e-19
-7.45526e-18
-5.76503e-18
-5.90849e-18
-5.66551e-18
-4.4891e-18
-7.22955e-18
-7.89994e-18
-1.08472e-17
-7.87687e-18
-1.46092e-17
-2.14342e-18
-1.70308e-17
-2.74779e-18
-1.36448e-17
-2.89866e-18
-5.90654e-17
-1.00135e-17
-3.30051e-17
-6.7672e-18
-9.00647e-17
-1.21929e-17
-4.28091e-17
-8.72132e-18
-2.35241e-17
-1.06244e-17
-1.15536e-17
-7.21444e-18
-2.59343e-17
-7.06577e-18
-3.73583e-17
-7.60422e-18
-2.82205e-17
-8.86914e-18
-2.56926e-17
-2.28423e-18
-2.44223e-17
1.22569e-18
-4.10424e-17
-1.10634e-17
-4.56564e-17
-1.99047e-17
-3.45274e-17
-2.38626e-17
-5.09208e-17
-1.08843e-17
-3.58938e-17
-7.01388e-19
-7.65192e-17
-2.4386e-18
-5.03327e-17
-1.11804e-18
-1.59612e-16
-7.05366e-18
-8.83095e-17
-1.02976e-17
-1.66177e-16
3.11087e-18
5.06406e-19
1.78482e-17
-2.16021e-16
-2.93754e-18
-2.12844e-17
1.99055e-18
-1.14404e-16
-1.72997e-17
-9.84934e-17
-1.94633e-17
-8.36559e-17
-1.88945e-17
-4.95673e-17
-1.21018e-17
-8.92394e-17
-1.20327e-17
-2.44936e-17
-1.29999e-17
-1.02752e-16
-1.01765e-17
-2.18953e-16
6.16602e-18
-1.63938e-17
-2.84677e-17
-1.04842e-16
-1.35168e-17
-3.19625e-16
2.03772e-17
-1.59466e-16
4.24857e-18
-3.1428e-16
-1.81666e-17
3.21125e-17
8.51109e-18
-4.22796e-16
1.41287e-17
-4.7985e-17
7.81075e-18
-1.61799e-16
2.92533e-18
-1.88069e-16
8.86954e-18
-1.907e-16
-1.26732e-17
-1.57367e-16
-3.72249e-17
-8.41796e-17
-2.64201e-17
-1.37579e-16
-1.67385e-17
-1.3728e-16
-6.8826e-18
-1.79436e-16
7.98916e-18
-1.32225e-16
-3.85679e-17
-9.61452e-17
-4.1763e-17
-1.29999e-16
1.91784e-17
-5.2724e-17
5.68802e-17
-6.36806e-16
4.6794e-17
-1.90855e-16
3.42284e-17
-7.98893e-16
2.44732e-17
-2.6532e-16
-2.14131e-17
-3.98179e-16
-8.84303e-17
-2.18508e-16
-6.24288e-17
-3.27372e-16
-1.27886e-17
-2.35861e-16
-8.1622e-18
-3.40951e-16
-4.57339e-17
-2.97979e-16
-5.54066e-17
-5.51357e-16
1.47263e-17
-3.27135e-16
3.03709e-17
-5.53447e-16
-5.77796e-17
-1.93724e-16
-1.20818e-16
-2.25764e-16
-2.57823e-17
-3.19083e-16
8.32807e-17
-3.7009e-16
-5.01944e-18
-4.19628e-16
6.82188e-19
-9.18273e-16
-2.26447e-17
-3.87523e-16
-5.01584e-17
-5.30197e-16
-2.5067e-18
4.5502e-18
7.72453e-17
-8.20647e-16
4.90013e-17
-2.71368e-17
-7.87979e-18
-9.19131e-16
-3.43682e-17
-1.44701e-16
-3.57932e-17
-3.27842e-16
-8.35527e-17
-1.75157e-16
-1.30989e-16
-1.54133e-16
-3.94587e-18
-2.72534e-16
7.83826e-17
2.68075e-17
1.77149e-18
-2.48468e-16
-2.86503e-17
-1.64596e-16
1.65578e-17
-6.01339e-16
3.16558e-17
-1.531e-16
1.09476e-16
-4.39486e-16
2.70177e-17
-2.38277e-16
-3.71563e-17
-2.9679e-16
-7.65192e-17
-2.56148e-16
-6.54005e-17
-3.22931e-16
7.00295e-18
-4.76352e-16
7.08283e-17
-4.27045e-16
6.70369e-18
-3.40187e-16
-5.38598e-17
-2.56391e-16
-7.28323e-17
-2.20323e-16
-2.51504e-17
-2.56301e-16
-2.49268e-18
-3.28374e-16
4.63652e-17
-4.43005e-16
7.64366e-17
-4.81907e-17
-4.07251e-17
-5.72663e-16
-2.19272e-17
-8.82251e-17
-8.67491e-17
-3.49458e-16
-9.40616e-17
-3.54618e-16
2.3553e-17
-3.26282e-16
-6.91453e-17
-5.23757e-16
8.16242e-17
-8.65639e-16
1.14266e-16
5.85175e-16
5.79585e-17
-8.45274e-16
-1.06729e-16
-7.01338e-16
-5.50976e-17
-9.79484e-16
-1.33948e-16
-5.40461e-16
-1.99218e-16
-3.71191e-16
-1.52079e-16
-2.7188e-16
-6.73957e-17
-2.4192e-16
4.83362e-17
-2.22668e-16
6.24083e-17
-1.09257e-16
4.00519e-17
-7.13784e-17
7.03761e-17
-2.21029e-16
9.25243e-17
-5.31359e-16
1.42838e-16
-8.19717e-16
1.38264e-16
-6.7166e-16
-1.46404e-16
1.3777e-16
-1.5321e-16
-6.88331e-17
5.04976e-17
2.78315e-18
5.95381e-17
-2.01022e-16
1.17176e-16
-3.13062e-15
1.51062e-16
-4.266e-17
1.24417e-16
-3.52693e-15
-4.94032e-17
-3.68145e-16
-4.7314e-17
-9.96782e-16
-2.68143e-17
-8.74529e-16
-4.34963e-17
-7.81624e-16
-1.37032e-16
-1.17212e-15
6.51986e-18
-1.19777e-15
1.70234e-16
-8.52985e-16
1.85312e-16
-1.69996e-15
8.50823e-17
-1.29262e-15
3.64855e-17
-1.39891e-15
7.9177e-17
-1.44711e-15
5.56323e-17
-1.27406e-15
-1.60392e-16
-1.20073e-15
-1.99481e-17
-1.29816e-15
1.67277e-16
-1.17018e-15
-4.26076e-17
-1.04013e-15
-7.31594e-17
-1.10647e-15
1.9704e-16
-2.23526e-17
1.81379e-16
-4.37683e-15
4.96684e-17
-1.11577e-15
6.53226e-17
-4.14056e-15
-2.11325e-16
-2.06753e-15
-4.21434e-16
-1.78902e-15
-3.37494e-16
-1.6049e-15
-1.4148e-16
-1.18207e-15
-1.04349e-16
-2.23196e-15
-7.08944e-17
-5.78474e-16
7.9117e-18
-1.96066e-15
-3.89195e-17
-4.59509e-16
-1.45921e-17
-8.4798e-16
-4.20579e-17
-5.29421e-16
3.33295e-18
-3.70633e-16
-1.15805e-16
1.56569e-17
7.65166e-18
-1.21884e-15
2.19118e-16
-3.43623e-16
1.10141e-16
-1.40503e-15
-6.8113e-18
-3.80353e-16
-7.38252e-17
-5.81648e-16
-1.73082e-17
-1.41844e-15
-8.37206e-18
-7.09492e-16
-1.85816e-17
-8.82865e-16
-9.85921e-17
-6.32869e-16
-1.62495e-16
-3.60903e-16
-5.52217e-17
-1.52344e-16
1.32991e-16
1.16893e-16
1.30807e-16
2.99069e-16
9.78104e-17
3.50993e-16
1.13551e-16
7.12745e-16
-1.2704e-15
5.09074e-16
4.02664e-17
-1.55215e-15
-3.02146e-16
7.06674e-16
-1.19573e-16
-4.95432e-16
-5.76984e-16
-2.9814e-16
-5.93361e-17
-4.38116e-16
2.54406e-16
-6.14956e-16
1.85038e-16
-7.9049e-16
1.52324e-16
-7.70705e-16
-3.18058e-17
-1.09212e-15
2.49129e-16
-1.09822e-15
6.30392e-17
-1.73169e-15
-8.92461e-17
-2.62751e-15
-2.41916e-16
-1.27977e-15
-4.49074e-16
-1.66776e-15
-3.69614e-16
-1.41028e-15
-1.9257e-16
-1.39637e-15
6.32113e-17
-1.41591e-15
1.89032e-16
-1.29245e-15
4.28576e-17
-1.32385e-15
3.15071e-17
-5.40491e-16
8.11777e-17
-1.97041e-15
-1.7521e-17
-4.87405e-16
-2.55992e-16
-1.62634e-15
-6.35159e-17
-4.01475e-16
1.83238e-16
-1.68543e-15
1.15946e-17
-1.56237e-15
-2.45048e-17
-1.33488e-15
-2.32662e-17
-2.81869e-15
1.55162e-16
-9.33014e-16
1.42913e-16
-2.98815e-15
1.08612e-18
-1.04158e-15
-1.56331e-17
-8.93975e-16
-2.18375e-17
-1.10645e-15
1.75624e-17
-8.82849e-16
-4.42461e-17
-1.00679e-15
-1.1753e-16
-3.34745e-16
9.01784e-17
-3.21368e-15
2.23908e-16
-1.27703e-15
4.37617e-16
-2.22743e-15
1.55112e-16
-2.24639e-15
-1.40598e-16
-1.68022e-15
-6.26114e-16
-1.16775e-15
-5.70575e-16
-7.72689e-16
-2.07661e-16
-6.88794e-16
1.38289e-16
-9.66045e-16
2.10297e-16
-9.75959e-16
2.74115e-16
-7.71532e-16
6.6025e-17
-2.03107e-16
-1.12895e-16
1.80357e-16
1.8065e-17
4.31694e-16
1.1247e-17
9.3424e-16
5.44557e-17
4.68279e-17
1.73945e-16
-1.86377e-15
1.26763e-15
3.30409e-15
1.02493e-15
-1.90571e-15
-6.21426e-16
3.50807e-15
-1.60577e-16
-5.21126e-16
-1.53964e-16
-2.81554e-16
4.55645e-17
-5.84058e-16
1.95375e-16
-1.10109e-15
3.30982e-16
-1.63484e-15
3.43738e-16
-1.71656e-15
-2.65296e-17
-1.68956e-15
-6.65589e-17
-1.68239e-15
1.7807e-17
-1.70869e-15
-2.07689e-17
5.56082e-16
2.06115e-16
-4.11526e-15
2.81762e-16
-2.42565e-16
-7.27251e-17
-2.77896e-15
-2.67438e-16
-2.48437e-15
-9.77613e-17
-2.09491e-15
-2.83803e-17
-1.88647e-15
1.22619e-16
-1.89129e-15
1.72578e-16
-4.22993e-16
1.63233e-16
-3.59276e-15
-2.90963e-16
1.00762e-15
3.0842e-16
-5.22627e-15
-4.5116e-16
7.65139e-16
-9.25288e-16
1.58117e-15
-3.14341e-16
1.2144e-15
2.21803e-16
1.26892e-15
-1.92473e-16
1.00785e-15
1.28304e-18
3.93035e-16
2.48054e-16
4.36515e-17
-2.09841e-17
-5.45056e-16
2.30414e-16
-1.12513e-15
2.77961e-16
-1.61077e-15
1.53953e-16
-2.39584e-15
3.3387e-16
-5.97538e-15
3.55228e-16
-1.53557e-15
-2.73828e-16
-3.97025e-15
-4.84994e-16
-1.95612e-15
-2.52601e-16
-3.77393e-15
8.33481e-17
-3.82243e-15
2.20763e-16
-4.36221e-15
5.42575e-16
-4.41553e-15
4.09841e-17
-4.21115e-15
-1.93789e-16
-4.06189e-15
-1.61926e-16
-6.7164e-15
-7.00854e-16
9.59631e-16
1.29885e-16
-6.33645e-15
-2.35279e-16
-2.4771e-15
-1.91416e-16
-2.29196e-15
-2.11087e-16
-1.98354e-15
-3.11082e-16
-2.58968e-15
-1.02287e-16
-1.88488e-15
1.53253e-16
-8.3477e-16
-3.46707e-17
-3.69695e-15
-9.07779e-17
-7.92732e-16
1.356e-17
-3.69042e-15
2.57154e-17
-1.84144e-15
-1.66736e-17
-1.77262e-15
-1.94278e-17
-1.94416e-15
9.17006e-17
-1.85421e-15
1.65161e-16
-3.85888e-15
9.60781e-17
-1.37782e-15
-2.70045e-16
-3.42506e-15
-2.7313e-16
6.27524e-16
2.76607e-16
-4.51555e-15
4.65217e-17
7.02655e-16
-2.81145e-16
-2.43315e-15
-4.16462e-16
5.93225e-16
2.41324e-16
-1.38808e-15
5.1275e-16
-6.5184e-16
7.39566e-16
-2.55603e-15
2.04101e-16
-2.09151e-15
-1.90344e-16
-2.26479e-15
-3.32166e-16
-1.6641e-15
-6.90316e-16
-1.51689e-15
-2.12999e-16
-1.37097e-15
-1.69577e-16
-1.25848e-15
-1.40241e-16
-1.00688e-15
-2.80012e-17
-7.48242e-16
-7.90121e-17
-8.14345e-16
4.10717e-16
-1.32984e-15
5.23998e-16
-1.2541e-15
3.226e-16
-1.4523e-15
5.57317e-17
-1.34041e-15
3.06555e-17
-1.22165e-15
-2.63122e-16
-7.61846e-16
-3.52213e-16
-6.03031e-16
-2.00667e-17
-5.39475e-16
6.68076e-17
-4.88086e-16
-6.7265e-17
-5.85149e-16
7.9994e-17
-1.00456e-15
1.25321e-16
-1.78044e-15
2.61027e-16
-2.72689e-15
3.99252e-17
-4.1714e-15
7.02257e-17
-5.7041e-15
4.63932e-16
-1.00505e-14
4.7766e-16
-1.46854e-16
-1.06008e-19
-5.01822e-18
-9.15794e-19
-5.38776e-18
5.65466e-18
-7.27857e-19
1.34211e-17
-9.9288e-18
3.20967e-17
-1.00284e-17
4.44258e-17
-1.58891e-17
2.29074e-17
-1.09581e-17
3.81395e-17
-1.85095e-18
3.83714e-17
-1.67291e-17
4.58106e-17
1.26451e-18
5.27256e-17
-1.93971e-18
5.6629e-17
-6.43926e-18
4.78818e-17
-8.58901e-18
1.74767e-17
1.09274e-18
-1.94744e-17
1.59633e-18
3.1686e-17
-3.25331e-18
1.0838e-16
-1.97205e-17
5.44705e-17
-4.45216e-17
-4.48641e-18
-9.21252e-18
8.13024e-19
-2.42139e-18
9.11598e-17
-7.35766e-18
4.91999e-17
-3.55754e-17
4.40416e-17
-1.7295e-17
3.5732e-17
-8.88131e-18
1.22369e-16
-1.32355e-17
5.35201e-17
-2.26671e-17
1.82396e-17
-1.19196e-17
-1.10653e-17
4.0192e-19
-1.96412e-17
1.76984e-18
-2.41176e-17
-1.16231e-17
2.88774e-18
1.41009e-18
5.32212e-18
-2.17249e-18
-9.77558e-18
-9.98481e-18
3.52957e-17
-1.45298e-17
1.16214e-16
-2.43524e-17
7.01895e-17
-2.84297e-17
7.44697e-17
-1.72276e-17
5.88772e-17
-1.18105e-17
-7.33532e-17
-1.52993e-17
1.39467e-17
-5.19914e-18
1.63996e-17
-1.11821e-19
9.09679e-17
-6.41642e-18
9.08151e-17
-2.13588e-17
2.0088e-17
-1.22799e-17
4.87556e-18
-2.10602e-17
1.018e-17
-2.69895e-17
-1.16679e-17
-6.22754e-18
3.071e-18
-4.86408e-18
-2.11717e-17
1.96091e-19
3.83185e-17
2.63015e-18
4.88061e-17
-4.07851e-17
-2.08712e-17
-2.50337e-17
-6.55513e-18
-1.41047e-17
-5.30547e-18
-6.51701e-18
2.4011e-17
-2.31744e-18
-2.8236e-17
-3.36701e-18
-1.13579e-17
-2.10829e-18
-5.39677e-18
-9.215e-18
-1.52485e-17
-1.56019e-17
-1.49296e-17
-2.41239e-17
-2.29065e-17
-1.45584e-17
-2.03684e-17
-1.02619e-17
-5.39528e-18
-8.4496e-18
-1.74966e-17
-2.38224e-17
-2.35786e-17
-1.70423e-17
-2.30042e-17
-1.0935e-17
-2.28358e-17
-2.50029e-17
-2.30495e-17
-2.29918e-17
-2.76245e-17
-1.91722e-17
-2.20854e-17
-1.22862e-17
-2.1151e-17
-1.85618e-17
-3.47069e-17
-1.04427e-17
-3.23882e-17
-2.06533e-17
-4.13336e-17
-1.8981e-17
-2.48626e-17
-1.53674e-17
-4.02247e-17
-1.29733e-17
-5.12189e-17
-1.54696e-17
-4.67624e-17
-1.23172e-17
-1.38317e-16
-6.13657e-18
-5.25623e-17
-7.75463e-18
-4.79628e-17
-2.00475e-17
-5.41697e-17
-1.67749e-17
-6.48438e-17
-1.22383e-17
-8.46377e-17
-1.5471e-17
-7.89311e-17
-1.70422e-17
-8.29249e-17
-3.5938e-17
-7.73422e-17
-2.5778e-17
-1.38936e-16
-4.06393e-18
-1.38762e-17
1.50738e-18
-1.88656e-16
-2.82998e-18
-3.4491e-17
-3.44805e-19
-2.15678e-16
1.09196e-18
2.79267e-17
-1.66436e-17
-9.71291e-17
-2.91039e-17
-8.61214e-17
-3.20461e-17
-8.52583e-17
-2.44966e-17
-6.30051e-17
-2.59392e-17
-1.18278e-16
-1.30718e-17
-1.15818e-16
-1.19599e-17
-1.07298e-16
-1.44119e-17
-5.32418e-17
-2.06682e-17
-1.10278e-16
-2.22431e-17
-1.37617e-16
9.17471e-18
-1.27077e-16
-1.07879e-17
-1.1567e-16
-2.98066e-17
-2.41662e-16
1.16349e-17
-6.724e-17
2.37874e-18
-2.15915e-16
-2.21647e-17
-5.81415e-17
-4.0227e-17
-1.96239e-16
-2.3975e-17
-1.35248e-16
-1.83871e-17
-9.89049e-17
-1.51712e-17
-9.63031e-17
-4.44739e-20
-9.95422e-17
-2.05245e-17
-1.11915e-16
-2.4868e-17
-9.23616e-17
-1.4016e-17
-1.25123e-16
-8.78231e-18
-1.19389e-16
6.44859e-18
2.11871e-17
2.40606e-17
-2.75548e-16
1.39384e-17
-4.87843e-17
-4.46341e-17
-1.42072e-16
-5.71958e-17
-7.43533e-17
-3.86012e-18
-9.65935e-17
3.98085e-19
-1.00176e-16
-2.09076e-19
-2.15658e-16
-1.28874e-17
-2.31856e-16
-3.06136e-17
-4.21603e-16
-1.46795e-17
-3.49694e-16
-1.6368e-17
-4.47647e-16
-5.03219e-17
-4.0036e-16
-4.19006e-17
-7.82672e-16
9.09211e-17
-5.17449e-16
6.06499e-17
-6.74823e-16
-8.67106e-17
-4.59896e-16
-6.13439e-17
-5.66811e-16
-4.41369e-18
-5.20786e-16
-8.90539e-17
-4.03152e-16
-9.37868e-17
-3.84594e-16
-1.4632e-17
-4.34321e-16
-1.99372e-17
-2.25591e-16
-8.1245e-17
-4.11594e-16
-3.17143e-17
-2.60234e-16
2.49433e-17
-3.49465e-16
-3.37353e-17
-2.34718e-16
-7.79331e-18
-2.45727e-16
1.56395e-17
-1.54185e-16
-1.03734e-17
-3.21531e-16
-3.04394e-17
-3.98473e-16
-2.81565e-17
-5.79755e-16
2.35211e-17
-5.8489e-16
-3.2603e-17
-4.36398e-16
-9.64671e-17
-4.72631e-16
-9.89071e-17
-1.32244e-16
-1.51099e-17
-7.40441e-16
1.00367e-16
-1.46271e-16
1.89118e-17
-5.83086e-16
1.87444e-17
-3.08318e-16
1.77926e-17
-3.00543e-16
3.28969e-17
-3.14261e-16
-1.35772e-18
-2.49781e-16
-4.43322e-17
-4.92518e-16
-7.05443e-17
-3.13988e-16
-5.60522e-17
-2.40421e-16
-1.729e-17
-2.88134e-16
3.68187e-17
-3.38853e-16
-1.11069e-17
-2.22592e-16
-1.33948e-16
-1.09508e-16
-1.09504e-16
-6.13031e-17
-6.26273e-17
-3.66691e-17
-5.98053e-17
-1.53819e-16
-3.84907e-17
-2.46207e-16
1.08621e-16
-6.6782e-16
1.78481e-16
-7.44422e-16
8.69882e-17
-5.77211e-16
-1.66527e-16
-3.2233e-16
-1.81309e-16
-5.01406e-16
-4.74887e-17
-2.45753e-16
8.35931e-17
-6.14996e-16
4.34237e-17
-5.75119e-16
4.18448e-19
-8.67399e-16
3.08525e-17
-7.22201e-16
-1.27783e-16
-6.40791e-16
-2.11325e-16
-5.85769e-16
-5.54061e-17
-4.81009e-16
1.96654e-17
-2.03002e-16
1.22843e-17
1.42089e-17
5.506e-17
5.25107e-19
1.41298e-16
2.67137e-17
-4.25986e-17
-6.28991e-16
1.01127e-16
-1.11127e-15
7.69519e-17
-4.69101e-16
-1.78873e-16
-1.35418e-17
-3.23934e-17
4.65715e-16
-1.16024e-16
6.96247e-16
-3.96325e-17
7.00772e-16
-4.53709e-17
4.20347e-16
-2.19669e-17
6.86468e-16
1.47394e-16
-1.92298e-15
2.78749e-16
9.40327e-16
7.42612e-17
2.68592e-16
3.52498e-17
4.65953e-17
2.18921e-17
-4.78038e-16
2.94771e-16
-1.03433e-15
2.84318e-16
-9.38945e-16
1.06874e-17
-5.67424e-16
-3.22599e-16
-1.06567e-15
-1.51265e-16
-1.94113e-16
-6.54885e-17
-1.04948e-15
1.57887e-16
-8.60864e-16
-3.45132e-17
-7.38197e-16
-1.43191e-16
-1.06034e-15
1.05588e-16
-1.23186e-15
1.22064e-16
-1.01458e-15
-2.68552e-17
-1.07485e-15
1.82429e-17
-1.15636e-15
6.4578e-17
-1.03383e-15
4.51827e-17
-1.09037e-15
3.6464e-17
-2.79982e-16
-1.70976e-16
-8.82022e-16
-2.00871e-16
-1.12886e-15
-8.04167e-17
-1.80339e-15
6.68273e-17
-2.2105e-15
5.47583e-17
-2.19664e-15
6.61157e-17
-2.84405e-15
-3.62103e-17
-1.37487e-15
-1.10338e-16
-2.53068e-15
-3.25486e-16
-5.11513e-16
-1.73708e-16
-2.38127e-15
-2.49948e-17
-4.62819e-16
1.24108e-16
-1.54547e-15
-5.39629e-19
-1.05009e-15
6.8628e-17
-1.71738e-15
-1.66253e-16
-3.694e-16
-3.63908e-16
-3.53175e-16
-1.42162e-16
-1.75405e-15
1.86675e-16
-9.90381e-16
1.33923e-16
-1.95082e-15
-7.56786e-17
-9.04754e-16
-2.12014e-16
-1.06833e-15
-1.23937e-16
-9.82876e-16
2.38714e-18
-8.94544e-16
5.64515e-17
-6.1962e-16
7.77769e-17
-2.17802e-16
9.05302e-17
-1.63808e-16
1.4091e-16
1.3773e-15
2.75347e-16
-3.91705e-16
-4.03684e-17
2.94918e-15
-8.65873e-16
1.81475e-16
1.52397e-16
2.09483e-15
8.92871e-17
-1.08345e-16
-9.57885e-17
-7.33771e-16
-5.70193e-17
-8.75915e-16
-1.42914e-16
-6.40345e-16
-2.03575e-16
-8.36414e-16
2.41523e-16
-9.42161e-16
2.03355e-16
-1.18172e-15
1.29263e-16
-1.15683e-15
2.71865e-16
-3.46396e-16
-2.44015e-16
-1.33614e-15
-1.08185e-16
-6.18124e-16
-8.71544e-17
-1.73953e-15
-1.08464e-16
-2.03935e-15
-8.81476e-17
-2.07818e-15
-7.19903e-17
-1.68827e-15
-2.35009e-16
-1.21846e-15
-1.88026e-16
-1.32084e-15
1.81033e-16
-1.72309e-15
3.58134e-16
-3.00448e-15
2.9781e-17
-5.78533e-16
-1.64361e-16
-2.70963e-15
-5.89259e-17
-7.76582e-16
-1.80376e-16
-1.95426e-15
-1.23686e-16
-1.49153e-15
-6.25873e-17
-1.64182e-15
2.10798e-16
-2.23364e-15
9.97426e-17
-3.82961e-16
1.30988e-16
-1.81183e-15
-1.65745e-19
-4.92036e-17
-4.31485e-17
-8.40352e-16
6.9097e-17
-1.12918e-15
5.8906e-17
-1.01999e-15
9.80239e-17
-3.36604e-15
2.20262e-16
-9.47166e-16
-5.41183e-17
-3.42538e-15
-2.79788e-16
-8.10176e-16
-1.64694e-16
-1.59488e-15
1.21774e-16
-1.82613e-15
1.51612e-16
-2.14649e-15
6.76694e-17
-2.16766e-15
-4.4421e-16
-1.99425e-15
-4.4935e-16
-1.88185e-15
3.71877e-17
-1.55043e-15
9.11374e-17
-9.15878e-16
3.16635e-16
-6.34693e-16
4.21333e-16
-2.99398e-16
4.68137e-16
2.33729e-16
9.32769e-17
6.79579e-16
1.0284e-17
1.07434e-15
2.34575e-16
7.69638e-17
2.23334e-16
1.26663e-15
-1.16252e-16
1.54353e-15
9.35219e-17
-2.75042e-15
-3.43549e-16
1.66201e-15
-4.31962e-17
1.08535e-15
7.47645e-17
3.07269e-18
2.91041e-16
-9.74505e-16
4.0286e-16
-1.29745e-15
8.56889e-17
-1.30878e-15
1.08636e-16
-1.36818e-15
3.20122e-16
-1.53384e-15
1.00228e-16
-1.71484e-15
1.39045e-16
-1.89898e-15
1.59786e-16
9.8684e-17
4.74415e-17
-3.68465e-15
-2.58439e-16
7.06916e-16
-3.77003e-16
-1.67244e-15
-1.99142e-17
-2.05262e-15
2.41432e-16
-2.05772e-15
1.83968e-16
-1.82151e-15
1.481e-17
-1.66191e-15
1.49279e-16
-2.03559e-16
2.08372e-16
-1.01593e-15
-7.72001e-16
-1.97354e-16
2.25412e-16
2.21936e-16
-1.87896e-16
-6.25305e-17
-3.78391e-17
-1.01611e-15
-1.03743e-16
-9.32249e-16
-5.41234e-16
-5.9946e-16
-2.50283e-16
-7.67336e-16
-2.72866e-16
-5.68333e-16
-4.68447e-16
-5.96631e-16
2.81834e-17
-9.9712e-16
1.26602e-16
-1.19933e-15
2.00738e-16
-1.17447e-15
5.50044e-17
-1.33348e-15
1.32662e-16
-1.63467e-15
4.61397e-16
-1.65139e-15
2.67523e-16
-1.96034e-15
-4.80578e-17
-2.37904e-15
-3.3229e-17
-3.39564e-15
-7.88049e-17
-1.78933e-15
-3.71152e-16
-1.84002e-15
-1.93757e-16
-1.73174e-15
4.30029e-16
-1.5893e-15
-9.0727e-17
-1.70091e-15
-9.47316e-17
-4.45254e-15
-1.47675e-16
1.07834e-15
5.28697e-16
-5.7256e-15
-8.26677e-18
-1.36402e-15
-3.1124e-16
-2.33257e-15
-1.82436e-16
-2.4816e-15
-1.01826e-16
-3.19425e-15
6.42134e-17
-2.55706e-15
8.40768e-17
-2.7666e-15
-3.69673e-16
-1.59611e-15
-4.2506e-16
-2.25798e-15
-3.11235e-16
-1.32267e-15
1.17788e-16
-1.15453e-15
2.44419e-16
-1.59348e-15
1.38547e-16
-1.63469e-15
2.17093e-17
-1.55054e-15
3.88899e-17
-2.40423e-15
2.68463e-16
-7.2859e-16
4.23099e-16
-5.41859e-15
3.45045e-16
-1.7644e-15
3.40366e-16
-5.51903e-15
-1.40427e-16
-8.2209e-16
-5.04903e-16
-1.94093e-15
-6.64322e-16
-1.71983e-15
-6.23662e-16
-1.7559e-15
1.1769e-16
-1.83049e-15
5.29735e-16
-1.65749e-15
3.88386e-16
-1.78947e-15
2.83361e-16
-2.32898e-15
2.79673e-16
-3.22453e-15
1.90086e-16
-3.49207e-15
-1.37432e-16
-3.07297e-15
-8.66618e-16
-2.47492e-15
-7.15285e-16
-2.62311e-15
-6.03023e-18
-2.66381e-15
1.22273e-16
-2.62453e-15
3.1767e-18
-2.25002e-15
1.99028e-16
-1.93461e-15
3.0931e-16
-2.26442e-15
4.52951e-16
-1.57169e-15
4.69177e-17
-1.44219e-15
-2.26637e-16
-1.53961e-15
3.53837e-17
-1.93265e-15
2.23792e-16
-1.51747e-15
5.74834e-17
-1.28025e-15
1.39673e-17
-2.56058e-15
4.47257e-17
-9.3581e-16
6.63788e-17
-9.4411e-16
-6.01681e-17
-1.49055e-15
2.30139e-16
-2.20719e-15
1.02344e-16
-2.72155e-15
-2.5883e-16
-3.48431e-15
-1.26978e-16
-5.16017e-15
6.82725e-16
3.837e-16
1.15696e-18
-1.58522e-17
-1.65779e-18
-6.25854e-18
2.89044e-18
5.60139e-18
2.68298e-18
3.93306e-18
3.18501e-18
1.03278e-17
1.5549e-17
-2.42948e-19
-1.28115e-17
-4.29661e-18
2.95892e-17
-6.93209e-18
2.09324e-17
-1.82764e-17
-2.57126e-17
-1.03669e-17
-3.53943e-17
-1.17576e-17
2.07989e-17
-6.35003e-18
8.53841e-18
-9.43376e-18
2.36932e-18
-1.72792e-17
-2.98538e-17
5.05182e-18
-6.05461e-18
-3.37452e-18
2.06201e-17
8.92646e-18
2.94703e-17
-2.26636e-18
6.26192e-18
-1.40477e-17
2.81105e-17
-1.31809e-17
-1.84484e-17
-1.42988e-17
-1.21898e-18
2.17504e-17
2.17862e-17
-9.84211e-18
2.45836e-17
-1.36086e-18
8.93091e-18
-2.93448e-17
-1.80602e-18
-3.34245e-17
1.28401e-17
-2.44895e-17
-4.0341e-17
-3.2254e-17
-5.67553e-17
-2.37201e-17
2.3187e-17
-1.21164e-17
-2.00181e-17
-7.48863e-18
-3.75146e-17
-4.09588e-19
-2.84205e-17
2.29931e-18
3.94141e-18
-8.99143e-18
2.59961e-17
-2.35713e-18
-2.63611e-17
-2.50055e-17
-1.71449e-17
-2.33885e-17
1.51914e-18
-1.75874e-17
1.02314e-17
-7.81487e-18
-3.27779e-18
5.74534e-18
-1.56345e-17
-6.91862e-18
-2.16207e-17
-1.5637e-17
3.44769e-18
-1.22559e-17
-1.86957e-17
-1.4491e-17
-3.25442e-17
-8.76759e-18
1.1923e-17
-1.08749e-17
-3.91003e-19
-1.64842e-17
-6.77786e-18
-2.63622e-17
-5.56471e-17
-2.94544e-17
-4.64064e-17
-1.05115e-17
-3.32543e-18
6.22774e-18
-9.4256e-18
-1.70304e-17
-1.30148e-17
-2.69365e-17
-2.06219e-17
-1.97921e-17
-2.41861e-17
-2.30959e-17
-3.86273e-17
-2.97428e-17
-5.01004e-17
-1.87268e-17
-3.52275e-17
-1.06012e-17
-3.32869e-17
-3.37391e-18
3.33187e-18
-2.14854e-18
-2.74829e-17
-2.61196e-17
-3.50944e-17
-9.8352e-18
-3.63881e-17
-1.95563e-17
-3.31615e-17
-1.50224e-17
-3.63372e-17
-1.55165e-17
-4.11351e-17
-1.42872e-17
-4.34921e-17
-2.94909e-17
-4.69882e-17
-1.28868e-17
-5.01129e-17
-3.16116e-17
-4.82484e-17
-3.25045e-17
-5.12409e-17
-3.07044e-17
-5.78417e-17
-2.29177e-17
-6.31224e-17
-2.11101e-17
-6.24914e-17
-2.43542e-17
-4.26164e-17
-1.39296e-17
-1.5729e-16
-2.66469e-17
-5.74094e-17
-1.74003e-17
-2.15078e-16
-2.56666e-17
-5.58323e-17
-2.41762e-17
-6.79475e-17
-3.46948e-17
-5.02166e-17
-1.59834e-17
-8.34139e-17
-7.54787e-18
-1.02775e-16
-1.90535e-17
-8.94929e-17
-2.95809e-17
-8.84358e-17
-2.1275e-17
-1.57813e-16
-3.71682e-17
-1.19756e-16
-2.60562e-18
-1.28432e-16
-1.53073e-17
-1.26062e-16
-2.81447e-17
-6.75546e-17
-6.38185e-18
-1.70832e-16
-1.56885e-17
-1.25023e-16
-1.77482e-17
-1.28069e-16
-2.156e-17
-1.33339e-16
-3.27057e-17
-1.39145e-16
-3.12751e-17
-1.74482e-16
-3.25613e-17
-1.86256e-16
-1.04774e-17
-2.00575e-16
-4.1932e-17
-1.33241e-16
-3.95881e-17
-1.22247e-16
-1.27533e-17
-1.36895e-16
-1.26169e-17
-1.2611e-16
-1.18972e-17
-8.25871e-17
-9.76651e-18
-9.43436e-17
-1.06161e-17
-1.40429e-16
-2.46284e-17
-1.35934e-16
-2.83822e-17
-1.44508e-16
-3.33459e-18
-1.37252e-16
-2.08603e-18
-2.52577e-16
-9.23675e-18
-1.63594e-16
-3.47851e-17
-1.97544e-16
-6.6995e-17
-1.31211e-16
-4.82767e-17
-1.50106e-16
-1.81081e-17
-1.96898e-16
-7.73307e-18
-1.53752e-16
-1.77167e-17
-1.2369e-16
-3.3139e-17
-1.09925e-16
-1.85285e-17
-1.48357e-16
-9.96094e-18
-1.53902e-16
-1.94482e-18
-1.38327e-16
-1.89028e-17
-1.68824e-16
-3.34526e-17
-1.48898e-16
-2.83549e-17
-2.43972e-16
-3.84747e-17
-1.74571e-16
-5.3365e-17
-1.59755e-16
-1.28051e-17
-1.80697e-16
1.52173e-17
-2.29459e-16
2.23782e-17
-2.53008e-16
1.33499e-17
-2.36238e-16
-2.86551e-17
-2.82684e-16
-1.00406e-17
-3.34105e-16
9.71939e-18
-3.78132e-16
-5.19252e-18
-2.09459e-16
-7.26761e-18
-2.21159e-16
-6.38471e-17
-2.65632e-16
4.49748e-18
-2.3497e-16
-2.51471e-17
-2.50412e-16
-6.32207e-17
-2.87004e-16
-4.67501e-17
-2.77905e-16
-1.40258e-17
-3.0471e-16
1.67562e-17
-5.78947e-16
7.13468e-17
-5.29618e-16
-5.36018e-17
-3.39913e-16
-1.43907e-16
-4.46742e-16
-1.06558e-16
-1.7997e-16
-9.53593e-17
-2.48028e-16
-8.76101e-18
-2.55121e-16
5.17662e-17
-2.79894e-16
-3.22361e-17
-2.37169e-16
-9.67167e-17
-2.33517e-16
-6.67345e-18
-3.09999e-16
3.19777e-17
-4.58948e-16
2.33146e-17
-6.52823e-16
9.0795e-17
-7.66487e-16
7.45123e-18
-4.85437e-16
-1.51656e-16
-3.78329e-16
-1.16932e-16
-3.50941e-16
-3.22937e-17
-3.84701e-16
2.20299e-17
-3.42463e-16
-2.41998e-17
-3.60161e-16
-8.07286e-18
-3.89353e-16
3.68834e-17
-3.87622e-16
1.26325e-17
-3.66509e-16
-1.85557e-17
-2.1752e-16
-1.23613e-17
-3.8481e-16
-5.33583e-17
-3.64547e-16
-7.57499e-17
-2.36061e-16
-1.34433e-16
-1.05615e-16
-4.59905e-17
-1.25491e-16
2.20556e-17
-1.04556e-15
5.68836e-17
-6.0532e-16
8.12663e-17
-1.04269e-15
-6.89448e-17
-2.68063e-16
-7.71215e-17
-3.59779e-16
2.18233e-17
-5.80622e-16
8.33429e-17
-8.3668e-16
7.72107e-17
-8.18207e-16
-6.34807e-17
-6.01184e-16
-1.30951e-16
-4.58417e-16
-9.70872e-17
-4.76941e-16
-4.20839e-17
-4.54482e-16
1.03665e-17
-5.35767e-16
3.51667e-17
-5.51209e-16
-3.55066e-17
-3.62476e-16
-1.22856e-17
-2.15687e-16
4.32584e-17
-2.2014e-16
4.26133e-17
-2.51126e-16
1.90955e-17
1.87776e-18
-2.04838e-16
-1.10629e-16
-1.20275e-17
-3.17867e-16
-2.97377e-16
3.24612e-16
-2.54406e-16
6.42209e-16
-1.48898e-16
7.85601e-16
1.15625e-16
8.03476e-16
7.53097e-18
7.04528e-16
-1.25647e-17
6.76564e-16
-2.27112e-16
6.888e-16
-1.36467e-16
6.57786e-16
9.59113e-17
6.45023e-16
2.69612e-16
3.69209e-16
1.23835e-16
5.90366e-18
-2.22346e-17
-3.15916e-16
-4.44222e-17
-3.50281e-16
7.24375e-17
-2.7636e-16
7.22872e-17
-2.17942e-16
-1.76493e-18
-7.94841e-16
-7.66678e-17
-7.65259e-16
7.28697e-17
-7.86973e-16
-1.71175e-16
-4.99358e-16
-6.87542e-17
-7.2688e-16
-1.70136e-16
-9.90028e-16
8.27493e-18
-1.14649e-15
2.06092e-16
-8.23285e-16
1.00967e-16
-1.39454e-15
4.95813e-17
-1.04758e-15
9.23252e-17
-1.51429e-15
-8.8042e-18
-1.07128e-15
-7.22495e-17
-9.61762e-16
-8.29763e-17
-1.06623e-15
-7.58562e-17
-1.27712e-15
4.27303e-17
-1.42339e-15
4.24196e-17
-1.44672e-15
6.47345e-17
-1.53704e-15
1.19486e-16
-1.71828e-15
6.79684e-17
-1.66982e-15
-5.12983e-17
-1.3984e-15
-1.85317e-16
-1.34913e-15
-1.03225e-16
-1.44982e-15
-1.54741e-16
-8.66329e-16
-2.643e-16
-5.33477e-16
-1.23603e-16
-5.37962e-16
9.68394e-17
-1.41813e-15
1.55817e-16
-8.05713e-16
-6.10079e-17
-1.1048e-15
-1.19087e-16
-1.23117e-15
-1.37262e-16
-9.08007e-16
-2.55797e-16
-7.68042e-16
-6.39663e-17
-9.63838e-16
1.84041e-16
-1.30363e-15
2.55786e-16
-1.54041e-15
2.58092e-16
-1.43615e-15
4.71474e-17
-9.91504e-16
2.04106e-18
-6.37013e-16
5.56422e-17
-4.40691e-16
-5.04716e-18
2.56637e-16
1.24391e-16
-1.3811e-15
6.01968e-17
7.92768e-16
6.51748e-17
-3.31736e-16
2.1803e-16
1.86471e-15
2.98828e-16
9.1747e-17
-2.70043e-16
-9.96054e-17
-1.10109e-16
-3.71684e-16
-2.17655e-16
-6.53593e-16
-2.42033e-16
-9.9071e-16
-6.54021e-17
-1.10451e-15
2.56845e-16
-9.73411e-16
3.67018e-17
-8.97718e-16
9.86005e-17
-8.76669e-16
1.67772e-16
-1.52279e-15
-1.20617e-17
-8.99198e-16
5.27056e-17
-1.12293e-15
-1.69639e-17
-1.22702e-15
-2.64195e-17
-1.44711e-15
8.67598e-17
-1.51332e-15
1.22052e-16
-1.626e-15
-4.97456e-17
-1.36399e-15
-4.3068e-16
-8.54883e-16
-3.65938e-16
-4.67344e-16
-1.1526e-16
-2.11915e-16
-1.38442e-16
-4.2529e-16
3.62382e-17
-9.32326e-16
5.73952e-16
-1.56705e-15
5.64438e-16
-1.55718e-15
-1.55639e-17
-1.52724e-15
3.05233e-17
-1.29095e-15
5.32333e-17
-1.19524e-15
1.80732e-16
-1.87041e-15
5.20431e-17
7.11006e-17
-3.07447e-17
-1.15354e-15
1.69428e-16
-1.57708e-15
1.80386e-16
-1.12857e-15
-9.12772e-17
-1.38122e-15
-3.54438e-16
-5.23149e-16
-3.48032e-16
-1.20214e-15
-1.0035e-16
-1.83499e-15
2.2878e-16
-2.20097e-15
4.82968e-17
-2.10433e-15
-8.44316e-17
-1.91538e-15
-1.16037e-16
-2.04596e-15
3.84314e-16
-2.31817e-15
3.5261e-16
-1.8127e-15
-2.75297e-16
-1.04714e-15
-1.63394e-16
-8.25488e-16
2.29922e-16
-1.37318e-15
1.93227e-16
1.28008e-15
2.37011e-16
2.39481e-16
-1.05806e-15
1.82416e-15
-3.06409e-16
1.39477e-16
2.60928e-17
1.77519e-15
-1.01274e-15
3.39324e-15
-1.14088e-15
3.48002e-15
-9.05911e-16
9.48061e-18
1.93602e-15
4.09231e-16
6.59262e-16
-6.30291e-16
4.56755e-16
-1.20801e-15
9.05487e-17
-9.94308e-16
-1.62457e-16
-1.0726e-15
-7.25452e-18
-1.14457e-15
1.35367e-17
-1.24343e-15
1.95861e-16
-9.96949e-16
1.30335e-16
-8.27982e-16
-5.04464e-17
-7.93546e-16
5.64805e-17
-8.00577e-16
1.98743e-16
-8.80191e-16
1.20956e-18
-1.22596e-15
1.39213e-16
-1.78313e-15
3.43464e-16
-1.71218e-15
1.83664e-16
-1.01868e-15
-1.56504e-16
-7.55997e-16
2.01822e-16
-9.40923e-16
4.68452e-16
-7.38798e-16
1.62583e-16
-4.13101e-16
-4.32422e-16
-7.20371e-16
-4.31106e-16
-4.03129e-16
-9.94716e-17
-5.7989e-16
-1.83576e-17
-3.82275e-16
-2.41705e-16
-5.20069e-16
-1.18151e-16
-1.19872e-15
-1.18303e-16
-1.9823e-15
2.33181e-16
-2.52222e-15
-5.37019e-19
-2.42753e-15
-8.04034e-16
-2.21186e-15
-4.04008e-16
-1.87471e-15
-1.69093e-16
-1.55542e-15
-2.01089e-17
-1.64593e-15
2.69528e-16
-1.75965e-15
4.17488e-16
-1.84343e-15
6.99785e-16
-2.10489e-15
4.27887e-16
-1.76941e-15
3.37302e-16
-1.27836e-15
-1.66108e-16
-9.39441e-16
-7.61176e-17
-1.25809e-15
1.2603e-16
-1.11068e-15
-3.06983e-16
-3.69847e-16
-2.7642e-16
-7.45475e-16
2.58702e-16
-3.7109e-15
3.33466e-16
2.03032e-15
-8.22388e-17
-3.7929e-15
-2.55753e-16
-9.62342e-16
1.75525e-16
-1.83607e-15
3.06912e-16
-2.58124e-15
4.28739e-16
-3.29166e-15
2.53292e-16
-2.79312e-15
-6.6325e-17
-2.62935e-15
-4.14382e-16
-2.48617e-15
-1.23713e-16
-2.62323e-15
-2.19819e-16
-2.42075e-15
-4.19099e-16
-1.45342e-15
-6.02456e-16
-1.2695e-15
-7.49474e-17
-1.66406e-15
6.24447e-16
-2.11162e-15
4.89495e-16
-3.17729e-15