/*--------------------------------*- C++ -*----------------------------------*\
  =========                 |
  \\      /  F ield         | OpenFOAM: The Open Source CFD Toolbox
   \\    /   O peration     | Website:  https://openfoam.org
    \\  /    A nd           | Version:  7
     \\/     M anipulation  |
\*---------------------------------------------------------------------------*/
FoamFile
{
    version     2.0;
    format      ascii;
    class       volScalarField;
    location    "5500";
    object      alpha.wetting;
}
// * * * * * * * * * * * * * * * * * * * * * * * * * * * * * * * * * * * * * //

dimensions      [0 0 0 0 0 0 0];

internalField   nonuniform List<scalar> 
160000
(
0.519796
0.519797
0.483223
0.481837
0.453645
0.462306
0.546694
0.582684
0.530748
0.512302
0.495323
0.484715
0.486801
0.488063
0.489266
0.517719
0.538762
0.543988
0.543988
0.543988
0.538362
0.479227
0.484452
0.513834
0.528465
0.469607
0.46155
0.46091
0.458295
0.458295
0.510057
0.550042
0.550042
0.545713
0.545215
0.480866
0.480981
0.480982
0.480981
0.526274
0.535138
0.535787
0.468879
0.456329
0.455609
0.454164
0.555371
0.561169
0.561168
0.559067
0.47007
0.442483
0.441937
0.441936
0.441936
0.441936
0.522807
0.522807
0.490492
0.488674
0.505548
0.519983
0.520382
0.520382
0.511408
0.517254
0.517644
0.517644
0.517498
0.432727
0.432728
0.432727
0.432728
0.432727
0.487962
0.523075
0.531001
0.52829
0.531923
0.531922
0.534361
0.534919
0.534919
0.512686
0.496969
0.496968
0.496968
0.496967
0.497021
0.497019
0.496966
0.496962
0.496966
0.497881
0.497884
0.489928
0.489929
0.531905
0.532656
0.532361
0.532528
0.512786
0.512782
0.512784
0.48227
0.482266
0.48227
0.482262
0.48227
0.509488
0.542484
0.540785
0.540785
0.540786
0.51335
0.513352
0.492808
0.476638
0.490793
0.551442
0.550526
0.529948
0.529952
0.529942
0.529952
0.533239
0.546866
0.546863
0.546865
0.546862
0.546865
0.512927
0.494771
0.494766
0.494771
0.494766
0.500838
0.500837
0.500838
0.49657
0.499105
0.499095
0.493346
0.493334
0.493347
0.493332
0.493349
0.493335
0.52925
0.529245
0.483257
0.483257
0.483249
0.483254
0.480653
0.480655
0.480643
0.511143
0.511157
0.511161
0.484248
0.484817
0.495702
0.516849
0.501383
0.471883
0.471884
0.440218
0.440218
0.440218
0.46999
0.5803
0.580291
0.580297
0.580291
0.507461
0.507461
0.526843
0.540742
0.540771
0.540742
0.540745
0.540738
0.497651
0.484717
0.486104
0.486107
0.475248
0.37587
0.364191
0.429607
0.459444
0.491836
0.52849
0.528503
0.422192
0.334412
0.462346
0.734388
0.734446
0.734388
0.734401
0.646209
0.485237
0.432995
0.432987
0.478466
0.569564
0.569548
0.568689
0.568689
0.567917
0.554625
0.543419
0.535902
0.521933
0.50106
0.501063
0.56937
0.569305
0.569362
0.569315
0.564329
0.474745
0.465301
0.465304
0.465274
0.46531
0.465282
0.509978
0.509968
0.507641
0.491454
0.491464
0.491442
0.491464
0.491441
0.548885
0.557522
0.557502
0.557508
0.504018
0.486922
0.437219
0.379583
0.284961
0.23868
0.286751
0.543697
0.740566
0.740526
0.740561
0.729961
0.644057
0.540299
0.508513
0.494968
0.430628
0.430626
0.531922
0.53777
0.537753
0.53777
0.48135
0.458018
0.472433
0.472436
0.449337
0.406415
0.406435
0.556884
0.584833
0.584805
0.584833
0.561825
0.441703
0.441701
0.441664
0.498962
0.498921
0.492532
0.436522
0.436518
0.436523
0.452445
0.583406
0.583351
0.58336
0.532378
0.523024
0.523022
0.479631
0.479636
0.502356
0.542878
0.542874
0.531973
0.348657
0.240394
0.17404
0.174053
0.258217
0.773977
0.774069
0.773977
0.774058
0.773976
0.696903
0.598258
0.493094
0.447882
0.433669
0.418268
0.418268
0.482592
0.558303
0.558229
0.558298
0.524262
0.423622
0.361568
0.311291
0.281955
0.281998
0.281922
0.282006
0.393816
0.540788
0.596159
0.596156
0.587785
0.583633
0.583625
0.583617
0.565907
0.527405
0.463368
0.453273
0.453215
0.517303
0.517252
0.517295
0.51725
0.42419
0.42419
0.42419
0.424189
0.452515
0.581721
0.581861
0.581719
0.575196
0.490973
0.476251
0.476233
0.477996
0.552972
0.552911
0.552971
0.552911
0.541509
0.475628
0.475622
0.475628
0.475584
0.475628
0.475539
0.475628
0.475734
0.557453
0.557381
0.557412
0.557381
0.557412
0.547712
0.547718
0.53055
0.489833
0.489212
0.489212
0.489846
0.532822
0.511249
0.511249
0.511238
0.521178
0.521175
0.521178
0.510927
0.456538
0.446344
0.411844
0.411846
0.407808
0.339926
0.353106
0.515494
0.515466
0.620614
0.643492
0.500636
0.500041
0.552968
0.492876
0.469401
0.462588
0.465365
0.486571
0.503487
0.513263
0.513263
0.503118
0.485999
0.48775
0.487749
0.517422
0.537668
0.491688
0.488152
0.487899
0.496899
0.481225
0.537071
0.537071
0.528609
0.463785
0.460259
0.458296
0.458295
0.514858
0.513866
0.515265
0.535613
0.547548
0.545701
0.48091
0.479677
0.479677
0.488136
0.535857
0.535856
0.533998
0.509409
0.456302
0.454313
0.454136
0.454136
0.499968
0.560483
0.558868
0.510426
0.454866
0.514088
0.514088
0.512367
0.479797
0.522434
0.504458
0.488673
0.48862
0.488558
0.519585
0.51726
0.507555
0.507555
0.509475
0.482551
0.482551
0.482551
0.494937
0.495304
0.495304
0.46041
0.4789
0.527255
0.531001
0.531001
0.513894
0.477491
0.481344
0.532171
0.508225
0.500749
0.500748
0.500748
0.50202
0.50202
0.496967
0.496963
0.496966
0.496962
0.496965
0.500024
0.500027
0.489928
0.489927
0.530816
0.532656
0.532655
0.528697
0.532526
0.532528
0.469418
0.469416
0.511054
0.48227
0.523737
0.542487
0.542484
0.542487
0.542484
0.507755
0.486237
0.481081
0.478805
0.478804
0.476636
0.476636
0.511273
0.55237
0.552366
0.55237
0.552366
0.552367
0.546864
0.546865
0.546863
0.546865
0.546863
0.546865
0.546862
0.494774
0.494767
0.494771
0.507823
0.493341
0.500835
0.500838
0.493344
0.493345
0.493342
0.493345
0.493341
0.494676
0.520374
0.520373
0.531886
0.531889
0.531843
0.49728
0.49728
0.49728
0.480656
0.480648
0.480655
0.480643
0.480654
0.480647
0.480543
0.480541
0.480539
0.482558
0.516849
0.516851
0.473426
0.471884
0.48043
0.448669
0.442492
0.491135
0.549166
0.580291
0.517297
0.517294
0.52129
0.538186
0.540748
0.540742
0.54075
0.540742
0.540746
0.540742
0.532935
0.421583
0.421577
0.43183
0.385381
0.265249
0.217191
0.242451
0.526862
0.691742
0.642526
0.51138
0.384339
0.334412
0.33441
0.415979
0.734113
0.734387
0.734398
0.658144
0.534215
0.43707
0.432988
0.512812
0.569564
0.569548
0.569564
0.569548
0.568859
0.535297
0.500905
0.509134
0.516961
0.496746
0.501053
0.555377
0.569295
0.569311
0.569305
0.53476
0.480414
0.465308
0.46531
0.465278
0.46531
0.46527
0.465314
0.465274
0.509628
0.568613
0.568627
0.568613
0.568616
0.507133
0.557501
0.557523
0.557502
0.557508
0.524469
0.42418
0.404942
0.375808
0.243022
0.216262
0.216297
0.564603
0.740567
0.740527
0.740565
0.718723
0.622271
0.585416
0.550871
0.484959
0.430615
0.430613
0.504284
0.53777
0.537753
0.53777
0.47741
0.458018
0.458016
0.458013
0.460559
0.400916
0.406412
0.584804
0.584846
0.584805
0.584836
0.584804
0.503101
0.441701
0.441664
0.441694
0.441657
0.441687
0.436533
0.436518
0.494864
0.583367
0.583414
0.583359
0.583376
0.572349
0.537081
0.500692
0.453133
0.474536
0.538725
0.53873
0.410714
0.334281
0.333973
0.260915
0.17404
0.174053
0.17404
0.514443
0.774069
0.773977
0.771182
0.674796
0.582323
0.523243
0.487934
0.444199
0.418253
0.418252
0.418253
0.490154
0.558305
0.558227
0.558278
0.513291
0.396019
0.338365
0.299872
0.282012
0.281998
0.427499
0.620975
0.620968
0.62097
0.596174
0.596169
0.571472
0.496971
0.484355
0.496959
0.516605
0.525558
0.519242
0.470006
0.459324
0.492584
0.502124
0.490964
0.490932
0.517235
0.42419
0.42419
0.42419
0.444814
0.581721
0.581863
0.581721
0.581742
0.532615
0.476251
0.476233
0.476247
0.476228
0.476244
0.476784
0.538601
0.552915
0.536388
0.496354
0.475628
0.475585
0.565785
0.565731
0.565811
0.565728
0.565761
0.54658
0.527369
0.527655
0.528543
0.494331
0.490084
0.488998
0.488989
0.488998
0.510499
0.531257
0.54371
0.543707
0.543708
0.54371
0.510742
0.510725
0.521178
0.457518
0.445706
0.445697
0.4457
0.426764
0.426739
0.408545
0.339919
0.386223
0.439581
0.528238
0.585227
0.643606
0.50087
0.500041
0.552968
0.541668
0.541391
0.4862
0.48664
0.515946
0.50197
0.504792
0.502632
0.49853
0.485998
0.489746
0.489746
0.512229
0.538585
0.538584
0.488454
0.487899
0.486288
0.529389
0.534115
0.50701
0.504078
0.504078
0.505019
0.489179
0.521018
0.521016
0.479339
0.502708
0.535915
0.547547
0.508096
0.483478
0.524188
0.523772
0.515481
0.484004
0.476201
0.477424
0.501269
0.507866
0.515047
0.511882
0.480691
0.480963
0.482444
0.521719
0.517622
0.484557
0.479854
0.479629
0.479629
0.479833
0.505825
0.53886
0.53886
0.53652
0.466031
0.46603
0.517209
0.516888
0.514602
0.517265
0.517265
0.516014
0.482551
0.482551
0.480862
0.480862
0.491795
0.491794
0.477489
0.47749
0.477488
0.47749
0.477487
0.509527
0.528556
0.530271
0.530271
0.521622
0.502896
0.479314
0.492357
0.512113
0.512113
0.496964
0.496965
0.496964
0.491725
0.491724
0.491687
0.45831
0.45831
0.458309
0.474028
0.480389
0.474118
0.517807
0.492877
0.465154
0.511053
0.542135
0.544138
0.511258
0.511258
0.511255
0.511257
0.511255
0.519042
0.497042
0.497042
0.493746
0.476635
0.500483
0.540008
0.54331
0.505467
0.493594
0.493596
0.498372
0.521726
0.509112
0.488558
0.488558
0.488556
0.493099
0.50765
0.542598
0.542596
0.541598
0.508371
0.49334
0.493341
0.493342
0.493343
0.493344
0.512136
0.52334
0.523341
0.489885
0.489881
0.489884
0.495398
0.53188
0.53188
0.487093
0.487092
0.487092
0.48709
0.504931
0.504931
0.50493
0.501304
0.518967
0.518967
0.518541
0.480537
0.480539
0.480541
0.517864
0.517868
0.517845
0.481627
0.405762
0.400155
0.492828
0.580287
0.580298
0.580287
0.580289
0.507712
0.495323
0.495322
0.495321
0.495318
0.532851
0.540742
0.512869
0.464978
0.421802
0.328259
0.247868
0.217154
0.217155
0.217154
0.521831
0.76572
0.747247
0.655364
0.532091
0.41576
0.336801
0.334412
0.369945
0.519479
0.593534
0.565927
0.472972
0.431848
0.462772
0.526722
0.569558
0.569552
0.543977
0.536208
0.536215
0.544382
0.497141
0.496736
0.496744
0.496733
0.496744
0.532064
0.562657
0.562664
0.498919
0.47393
0.47393
0.47393
0.481653
0.533639
0.519582
0.476325
0.465314
0.507966
0.543194
0.555142
0.568629
0.568613
0.517839
0.455652
0.506541
0.531215
0.510977
0.50858
0.508577
0.508578
0.48366
0.358323
0.237732
0.216283
0.216297
0.21626
0.564585
0.740526
0.740566
0.733877
0.592437
0.510224
0.47697
0.45968
0.438443
0.430613
0.430615
0.48979
0.537753
0.537756
0.465499
0.451057
0.465103
0.469508
0.428401
0.390419
0.400901
0.533999
0.584803
0.54216
0.532462
0.532459
0.532461
0.497877
0.444813
0.441701
0.441663
0.455873
0.533599
0.58339
0.583396
0.583382
0.583388
0.558091
0.511212
0.518991
0.549381
0.533682
0.470804
0.373904
0.279396
0.205186
0.174078
0.174023
0.174066
0.174046
0.174066
0.174034
0.223348
0.63469
0.773984
0.773977
0.668871
0.546849
0.50176
0.501764
0.522225
0.484265
0.430118
0.422799
0.446625
0.476544
0.532636
0.558223
0.531525
0.44638
0.396854
0.371328
0.326854
0.299873
0.345869
0.570706
0.620975
0.620975
0.620975
0.600128
0.539621
0.529198
0.513392
0.484355
0.484354
0.522301
0.5223
0.511552
0.497609
0.462955
0.459329
0.487901
0.521912
0.515368
0.479165
0.429751
0.429731
0.511858
0.581766
0.581719
0.581855
0.581721
0.581725
0.521723
0.523586
0.531643
0.53165
0.531641
0.503904
0.476233
0.51103
0.538613
0.537601
0.49037
0.475628
0.475611
0.477025
0.565731
0.565768
0.564138
0.560932
0.534392
0.475758
0.475766
0.492776
0.597565
0.597534
0.597568
0.597532
0.597547
0.563049
0.491183
0.491176
0.491184
0.491173
0.491185
0.499613
0.538122
0.497106
0.497105
0.497096
0.498009
0.491403
0.417916
0.4179
0.417913
0.4179
0.417915
0.417899
0.39896
0.497931
0.626107
0.64372
0.502398
0.529764
0.525939
0.527235
0.53643
0.532956
0.513757
0.515947
0.50197
0.511633
0.511632
0.511633
0.501144
0.489028
0.489028
0.486038
0.486897
0.48823
0.488188
0.496796
0.486288
0.483202
0.482758
0.500245
0.529018
0.529018
0.517464
0.518199
0.518198
0.458578
0.458579
0.458594
0.459195
0.459195
0.46399
0.532062
0.532063
0.503474
0.478363
0.476554
0.476201
0.476201
0.476344
0.485269
0.515047
0.51399
0.513991
0.513005
0.504846
0.483762
0.483763
0.48098
0.479854
0.4841
0.487454
0.487455
0.476012
0.475697
0.466031
0.466031
0.46603
0.466032
0.527835
0.493073
0.493073
0.493426
0.458889
0.419874
0.518028
0.518029
0.514172
0.449213
0.437388
0.500727
0.52262
0.522619
0.522588
0.522588
0.522588
0.479314
0.479315
0.479313
0.479315
0.479312
0.479314
0.47931
0.479313
0.479311
0.510141
0.51014
0.497139
0.498823
0.498824
0.488873
0.469333
0.509624
0.499073
0.458309
0.458309
0.458308
0.457594
0.403546
0.403548
0.43659
0.498621
0.548398
0.549877
0.549876
0.549877
0.549877
0.518764
0.519046
0.519047
0.48408
0.476636
0.476633
0.476635
0.476631
0.525225
0.522189
0.499635
0.499635
0.499635
0.480987
0.480988
0.480987
0.490132
0.490128
0.488555
0.499747
0.502595
0.505569
0.482124
0.458395
0.440151
0.486937
0.507305
0.526659
0.531599
0.556173
0.564512
0.52334
0.489885
0.489872
0.489884
0.489871
0.489881
0.530464
0.511889
0.511892
0.511889
0.511891
0.506105
0.474509
0.46687
0.466866
0.466867
0.466863
0.466864
0.463879
0.480533
0.500265
0.534552
0.55546
0.506323
0.433502
0.398348
0.39229
0.397968
0.554939
0.580294
0.557633
0.53343
0.539838
0.539838
0.539836
0.539835
0.504679
0.460783
0.488365
0.540148
0.48418
0.36925
0.315929
0.272898
0.236924
0.217155
0.336666
0.681738
0.808738
0.797244
0.714289
0.629753
0.605726
0.558598
0.442874
0.350887
0.350888
0.402362
0.483161
0.490772
0.379097
0.379106
0.38284
0.505163
0.569552
0.569558
0.553821
0.549708
0.549702
0.520107
0.496741
0.496744
0.532821
0.556869
0.556867
0.552069
0.53321
0.500123
0.47393
0.47393
0.47393
0.523247
0.572804
0.572804
0.572804
0.532607
0.496136
0.484102
0.484107
0.484101
0.536116
0.511657
0.422236
0.403596
0.492681
0.552307
0.569526
0.569527
0.551274
0.492054
0.378439
0.265041
0.216288
0.216298
0.216262
0.29969
0.74052
0.740566
0.740525
0.607115
0.518113
0.484687
0.446987
0.437558
0.437556
0.437542
0.502135
0.537747
0.53776
0.499316
0.451057
0.451056
0.459779
0.515581
0.473253
0.390419
0.390138
0.433907
0.563381
0.582598
0.582598
0.582598
0.560177
0.445066
0.441709
0.441686
0.441705
0.541114
0.601085
0.601079
0.567475
0.517012
0.504312
0.504321
0.51121
0.51011
0.513752
0.503958
0.456435
0.332081
0.200536
0.174084
0.174038
0.174078
0.218822
0.528657
0.6523
0.688314
0.688321
0.688302
0.553171
0.535637
0.511509
0.558139
0.573085
0.573065
0.573066
0.533616
0.501356
0.48904
0.46138
0.46066
0.470521
0.544123
0.538932
0.487598
0.406449
0.32232
0.317392
0.317361
0.497096
0.620974
0.620974
0.620973
0.547235
0.467854
0.443083
0.476401
0.521117
0.497302
0.442619
0.410137
0.410137
0.410126
0.434967
0.55288
0.606293
0.624061
0.624062
0.609133
0.524062
0.45131
0.429751
0.43772
0.581715
0.581753
0.57915
0.562288
0.544979
0.514953
0.510259
0.510257
0.515617
0.526582
0.507013
0.468312
0.447831
0.447811
0.478337
0.52831
0.532707
0.510332
0.468936
0.468937
0.468932
0.437614
0.424547
0.485651
0.475748
0.480386
0.490002
0.550913
0.597562
0.597534
0.597555
0.597282
0.529479
0.491179
0.492391
0.492358
0.491185
0.491173
0.491185
0.538104
0.542555
0.542553
0.542555
0.498002
0.497998
0.51118
0.456269
0.38327
0.383254
0.38327
0.383249
0.396783
0.483238
0.611126
0.643834
0.527416
0.539272
0.523142
0.520977
0.517167
0.512867
0.494563
0.498273
0.501247
0.494488
0.501893
0.492688
0.498077
0.496934
0.496335
0.486037
0.491368
0.48615
0.488189
0.496795
0.49266
0.495507
0.482758
0.485054
0.479554
0.473664
0.473666
0.471578
0.472907
0.531362
0.531362
0.529604
0.535454
0.534374
0.448572
0.446334
0.444918
0.444849
0.495674
0.538545
0.496794
0.536217
0.533823
0.495963
0.487785
0.487784
0.487785
0.488891
0.499336
0.496605
0.491281
0.491088
0.490082
0.47601
0.476011
0.476011
0.476011
0.501864
0.500829
0.469696
0.469039
0.534028
0.560818
0.561112
0.561537
0.561597
0.560262
0.419284
0.419277
0.419277
0.419277
0.419278
0.419323
0.46659
0.49225
0.522223
0.513618
0.513618
0.521094
0.521095
0.519005
0.479315
0.479313
0.49077
0.502334
0.502335
0.500208
0.477622
0.472439
0.472438
0.472438
0.462348
0.462347
0.462348
0.469329
0.53578
0.535774
0.535779
0.535774
0.535777
0.535774
0.403546
0.403544
0.403548
0.403541
0.411682
0.547409
0.540876
0.523605
0.528478
0.518792
0.518797
0.519046
0.519046
0.519046
0.511702
0.476632
0.476633
0.491488
0.476281
0.497569
0.486579
0.471781
0.486013
0.491668
0.49167
0.478732
0.478733
0.482388
0.560637
0.560645
0.560654
0.560645
0.56064
0.4029
0.402893
0.402904
0.402889
0.407608
0.548977
0.564511
0.564512
0.564511
0.517808
0.492182
0.492183
0.481915
0.469966
0.469968
0.469964
0.469966
0.469962
0.507846
0.527566
0.527554
0.527565
0.527554
0.4912
0.437755
0.437739
0.437755
0.437739
0.479161
0.578202
0.578192
0.483918
0.553523
0.392287
0.39229
0.411782
0.523876
0.547277
0.53343
0.501534
0.505188
0.529366
0.522828
0.494196
0.459587
0.436651
0.436645
0.47802
0.436499
0.348916
0.371336
0.556649
0.748214
0.832902
0.832881
0.813765
0.715891
0.593566
0.551507
0.571308
0.557285
0.461689
0.42905
0.528001
0.532849
0.532868
0.532841
0.379097
0.379084
0.379105
0.379085
0.569066
0.56955
0.527893
0.506908
0.505719
0.505718
0.546376
0.556882
0.55688
0.556878
0.51327
0.481529
0.481526
0.481523
0.481517
0.515767
0.513407
0.521829
0.563265
0.572804
0.525013
0.484214
0.484214
0.528081
0.541282
0.541295
0.541282
0.530091
0.485233
0.353484
0.461201
0.507149
0.442735
0.387703
0.373467
0.373461
0.348312
0.267198
0.223152
0.310904
0.521887
0.700265
0.740545
0.740525
0.628972
0.504537
0.456477
0.444966
0.444966
0.465787
0.514041
0.537751
0.537743
0.537747
0.519413
0.474877
0.451055
0.466368
0.516215
0.516208
0.482726
0.468899
0.390138
0.390138
0.390138
0.536189
0.582598
0.520088
0.445074
0.445068
0.458438
0.601094
0.601085
0.601106
0.601085
0.560304
0.523935
0.523473
0.514842
0.488483
0.488483
0.488483
0.511115
0.511112
0.430025
0.270314
0.1741
0.174056
0.240303
0.529999
0.725608
0.725672
0.725608
0.725645
0.628179
0.486757
0.375419
0.375419
0.37872
0.573079
0.573065
0.573083
0.517978
0.460656
0.46066
0.460631
0.46066
0.460618
0.46066
0.526001
0.52271
0.435284
0.379993
0.361154
0.410807
0.54592
0.620972
0.620973
0.620974
0.574323
0.457266
0.424981
0.424984
0.51002
0.538768
0.538693
0.538708
0.469239
0.469215
0.410126
0.410123
0.410119
0.472785
0.615279
0.595686
0.534734
0.535573
0.581699
0.581718
0.581702
0.581721
0.536751
0.493023
0.48515
0.483
0.479949
0.488173
0.541993
0.541994
0.539187
0.488444
0.459848
0.450233
0.447823
0.447809
0.451998
0.533015
0.539207
0.539246
0.539229
0.527135
0.539174
0.41999
0.419982
0.419988
0.442615
0.547225
0.597552
0.597534
0.570626
0.491168
0.491183
0.491164
0.491182
0.491155
0.491182
0.516213
0.529878
0.52988
0.507647
0.466275
0.466258
0.522794
0.522798
0.507142
0.51118
0.51118
0.51118
0.496602
0.383259
0.383277
0.448313
0.558339
0.558307
0.643949
0.501595
0.522381
0.510012
0.502454
0.492512
0.492513
0.492512
0.492513
0.492512
0.493721
0.492688
0.492688
0.495049
0.495049
0.506896
0.515473
0.50961
0.48615
0.486604
0.48652
0.48652
0.513108
0.513107
0.483905
0.485868
0.492689
0.470402
0.471538
0.465729
0.49354
0.530665
0.531482
0.535454
0.533273
0.446874
0.442954
0.442954
0.44396
0.448575
0.539577
0.547186
0.544681
0.510026
0.488495
0.488162
0.503673
0.501653
0.48687
0.481876
0.497787
0.497784
0.476011
0.47601
0.476011
0.47601
0.476023
0.513405
0.513406
0.493937
0.493761
0.500791
0.5104
0.560505
0.561025
0.561537
0.561511
0.561504
0.439434
0.419277
0.419277
0.4879
0.540817
0.540818
0.515345
0.492251
0.513047
0.51486
0.51486
0.498537
0.479656
0.479656
0.479654
0.479655
0.479166
0.479165
0.479165
0.479164
0.515643
0.515643
0.514464
0.462348
0.462347
0.484063
0.502641
0.504322
0.518113
0.478258
0.491655
0.535778
0.535774
0.521653
0.403546
0.403548
0.403544
0.4614
0.525589
0.508922
0.508922
0.508923
0.52863
0.52863
0.525539
0.48527
0.486513
0.512083
0.512082
0.505553
0.471054
0.471054
0.471049
0.471052
0.471046
0.47105
0.471047
0.484621
0.481013
0.508348
0.56057
0.56065
0.560646
0.560658
0.560646
0.560652
0.554265
0.402898
0.402902
0.402892
0.402899
0.500911
0.541626
0.538961
0.523287
0.53172
0.53172
0.520554
0.48661
0.486607
0.508922
0.50892
0.505734
0.472339
0.469962
0.469966
0.474806
0.524598
0.506645
0.457736
0.437755
0.437746
0.437755
0.437743
0.551954
0.578232
0.578192
0.578227
0.578195
0.578196
0.392284
0.392287
0.445902
0.501518
0.501522
0.501525
0.501529
0.516791
0.524783
0.511347
0.481658
0.448643
0.445861
0.423913
0.317854
0.19187
0.191569
0.432232
0.759657
0.832907
0.832881
0.829229
0.676108
0.522271
0.482676
0.482678
0.523338
0.557225
0.525108
0.522911
0.532854
0.532873
0.532849
0.532857
0.379084
0.379096
0.379071
0.385125
0.550645
0.56836
0.539046
0.515603
0.505718
0.511246
0.556887
0.556884
0.556882
0.555863
0.517412
0.481532
0.487692
0.522555
0.522554
0.522555
0.485089
0.476959
0.476953
0.476959
0.476951
0.48641
0.519138
0.541282
0.541295
0.541282
0.511913
0.410797
0.44907
0.319457
0.380888
0.390318
0.350958
0.358509
0.373478
0.362992
0.30847
0.300387
0.388936
0.542071
0.657199
0.678309
0.660481
0.628992
0.53963
0.457987
0.444823
0.444818
0.504904
0.537742
0.537755
0.537743
0.537748
0.50073
0.449275
0.449275
0.449275
0.468836
0.516224
0.516215
0.462447
0.462465
0.390138
0.390138
0.510434
0.536224
0.5329
0.478724
0.445079
0.445074
0.462029
0.601083
0.601096
0.571145
0.539303
0.535501
0.535482
0.535503
0.535484
0.535498
0.535479
0.516639
0.46367
0.413335
0.327809
0.218526
0.174086
0.216112
0.497888
0.725605
0.725637
0.715803
0.693632
0.65537
0.459096
0.442481
0.375419
0.375419
0.375418
0.529291
0.573082
0.572813
0.486787
0.460661
0.460645
0.473315
0.583508
0.585307
0.585266
0.585307
0.528665
0.41147
0.369153
0.369137
0.443415
0.519362
0.585829
0.590753
0.526904
0.450335
0.424981
0.424984
0.42498
0.477096
0.538693
0.538771
0.538708
0.46483
0.464847
0.410124
0.410125
0.410119
0.513426
0.603641
0.548438
0.534739
0.535666
0.562903
0.552097
0.552096
0.558985
0.580067
0.512107
0.47993
0.479949
0.479865
0.479949
0.541969
0.541993
0.541994
0.537557
0.507839
0.492291
0.471459
0.448106
0.465943
0.539207
0.539306
0.539229
0.539301
0.539229
0.539229
0.419983
0.41999
0.419975
0.419967
0.532654
0.556703
0.593165
0.617572
0.617568
0.617562
0.602162
0.562178
0.545376
0.552048
0.552046
0.517504
0.498789
0.50764
0.480838
0.466244
0.46624
0.466239
0.466239
0.466227
0.46623
0.466236
0.41865
0.38327
0.403815
0.574085
0.662351
0.733227
0.813686
0.533898
0.491739
0.499789
0.492861
0.492861
0.517699
0.517699
0.504408
0.492862
0.513709
0.493616
0.496714
0.510481
0.510481
0.509625
0.515474
0.487257
0.487256
0.486951
0.502677
0.518004
0.512004
0.483905
0.483905
0.493748
0.492687
0.470402
0.473809
0.465728
0.491534
0.53335
0.531412
0.524533
0.532373
0.448066
0.449839
0.443935
0.482931
0.495301
0.501662
0.547186
0.547119
0.52554
0.504813
0.522736
0.522021
0.478283
0.478284
0.478283
0.479201
0.476372
0.47601
0.476419
0.49011
0.492817
0.494555
0.513406
0.512666
0.499837
0.489141
0.476314
0.486141
0.559792
0.561024
0.559811
0.5001
0.554275
0.419277
0.419277
0.419277
0.419293
0.419711
0.452881
0.543688
0.543688
0.534845
0.507482
0.515028
0.515028
0.514462
0.514462
0.505379
0.479166
0.479165
0.479165
0.479164
0.479164
0.469022
0.468368
0.468368
0.465031
0.472387
0.502641
0.502642
0.496929
0.478256
0.478258
0.522259
0.535774
0.51925
0.519253
0.403548
0.403546
0.40355
0.484409
0.553514
0.553514
0.508921
0.508921
0.508921
0.490499
0.485135
0.485132
0.512082
0.512082
0.498386
0.4754
0.4754
0.539147
0.53915
0.539148
0.534872
0.483255
0.461638
0.461632
0.461638
0.461631
0.483691
0.512634
0.551127
0.560638
0.56065
0.529622
0.532396
0.402903
0.402898
0.402905
0.42962
0.551137
0.551137
0.514923
0.508605
0.508603
0.508605
0.513038
0.532424
0.532424
0.506228
0.469964
0.469967
0.469962
0.469966
0.469961
0.473137
0.524503
0.506765
0.450272
0.43775
0.437755
0.459012
0.578185
0.578218
0.578192
0.578222
0.578194
0.578198
0.577664
0.392281
0.392284
0.392286
0.524602
0.531433
0.501529
0.501803
0.560708
0.560706
0.556742
0.527246
0.476584
0.40489
0.292931
0.154977
0.0566053
0.0736356
0.329909
0.736773
0.832881
0.810594
0.704681
0.586811
0.521055
0.485135
0.459844
0.459827
0.532866
0.532884
0.53286
0.532879
0.532854
0.532865
0.532846
0.379085
0.379073
0.379095
0.379061
0.406281
0.566402
0.566536
0.526378
0.507633
0.557649
0.557646
0.544557
0.540563
0.555856
0.536516
0.488226
0.486691
0.486688
0.486691
0.497626
0.493293
0.485577
0.476959
0.476952
0.511981
0.522767
0.52277
0.522772
0.534398
0.54128
0.517692
0.408208
0.423108
0.298672
0.298658
0.298686
0.298642
0.298693
0.365153
0.450052
0.454773
0.45522
0.4932
0.564103
0.624819
0.636686
0.602863
0.53929
0.477196
0.444869
0.444819
0.444823
0.444811
0.444823
0.454424
0.516346
0.537737
0.537738
0.522645
0.528841
0.528834
0.516786
0.516231
0.516224
0.516215
0.516205
0.390138
0.390138
0.420494
0.522438
0.525919
0.485264
0.445082
0.457093
0.555768
0.596404
0.586545
0.578183
0.578179
0.569529
0.527411
0.495561
0.495559
0.52433
0.529785
0.495105
0.427134
0.343641
0.259605
0.183534
0.174108
0.210726
0.553839
0.725636
0.708767
0.59159
0.548845
0.546622
0.453659
0.453641
0.375419
0.401079
0.509069
0.523005
0.534143
0.525092
0.4868
0.497108
0.572204
0.583487
0.583508
0.55592
0.521188
0.498235
0.488002
0.488002
0.496258
0.481358
0.474499
0.483858
0.532225
0.585072
0.560597
0.479962
0.424985
0.424981
0.448998
0.538692
0.538792
0.538708
0.538775
0.538708
0.53836
0.410126
0.410123
0.410121
0.481807
0.596923
0.534741
0.534734
0.535377
0.606342
0.584758
0.580732
0.580728
0.580725
0.523227
0.479949
0.479863
0.479949
0.479904
0.5304
0.52542
0.504279
0.496958
0.496955
0.496961
0.469612
0.452496
0.492691
0.539296
0.539207
0.539302
0.539229
0.539247
0.539202
0.41999
0.419983
0.419992
0.548842
0.559609
0.556727
0.561494
0.617578
0.604794
0.53201
0.529013
0.552074
0.552072
0.552068
0.505671
0.477965
0.477961
0.478385
0.477933
0.478255
0.520463
0.520484
0.520463
0.515051
0.515053
0.515055
0.485599
0.400923
0.400953
0.464276
0.655344
0.760894
0.813769
0.49514
0.491739
0.491739
0.504468
0.504181
0.500275
0.500276
0.499958
0.516172
0.516172
0.503853
0.496638
0.497352
0.491218
0.49116
0.488313
0.488314
0.515448
0.515447
0.502563
0.518004
0.503916
0.50036
0.509782
0.509416
0.503018
0.497386
0.490602
0.469326
0.52357
0.533349
0.498988
0.476875
0.473324
0.470093
0.515666
0.515667
0.492767
0.47891
0.496753
0.50128
0.501943
0.501023
0.501023
0.525796
0.531514
0.531717
0.531717
0.528866
0.528195
0.5099
0.508385
0.506406
0.479518
0.479472
0.476314
0.476313
0.476314
0.476313
0.476314
0.476313
0.47688
0.522389
0.511288
0.45028
0.419814
0.419304
0.419277
0.486242
0.53027
0.569106
0.573593
0.573593
0.522205
0.488031
0.488031
0.488031
0.488025
0.487997
0.487997
0.487997
0.495515
0.507979
0.507979
0.496089
0.479165
0.479164
0.507066
0.523053
0.479579
0.465032
0.465033
0.465033
0.465035
0.481897
0.523491
0.517239
0.51724
0.524791
0.524793
0.515501
0.406288
0.484726
0.48522
0.485247
0.491499
0.511633
0.530901
0.530901
0.530901
0.530893
0.501415
0.477098
0.477098
0.477099
0.477101
0.479547
0.537077
0.537078
0.499161
0.499161
0.49916
0.49916
0.50774
0.507743
0.501614
0.461639
0.461634
0.481666
0.561962
0.503455
0.412318
0.405396
0.405394
0.405386
0.526573
0.552738
0.55274
0.542667
0.516147
0.517885
0.525124
0.53243
0.532429
0.532429
0.532428
0.488235
0.469966
0.469967
0.480099
0.480101
0.469963
0.469967
0.469963
0.511938
0.506728
0.479357
0.47054
0.473332
0.506214
0.540811
0.516422
0.458603
0.4586
0.458603
0.486938
0.446216
0.392266
0.507331
0.545646
0.545645
0.531432
0.539281
0.574321
0.574322
0.516364
0.497906
0.487552
0.393219
0.226322
0.103518
0.0566053
0.0566076
0.0566139
0.311092
0.709415
0.771995
0.643538
0.539052
0.533426
0.533423
0.518896
0.462991
0.459835
0.459827
0.459835
0.462358
0.460174
0.455631
0.455622
0.455631
0.38596
0.385976
0.379095
0.379106
0.396031
0.550372
0.56657
0.566536
0.566549
0.566536
0.5269
0.491036
0.491036
0.491031
0.491036
0.491027
0.516383
0.527969
0.527967
0.520748
0.482742
0.476964
0.476955
0.506592
0.511978
0.498988
0.45712
0.457118
0.457118
0.447456
0.412673
0.386416
0.370464
0.304294
0.352089
0.370347
0.41302
0.455029
0.486257
0.494411
0.508186
0.516619
0.490513
0.468423
0.468665
0.515067
0.534125
0.52013
0.517811
0.490473
0.449528
0.444817
0.444823
0.444803
0.444823
0.446549
0.483341
0.498632
0.528111
0.52884
0.506564
0.443691
0.416807
0.416795
0.416804
0.416806
0.390138
0.401689
0.522086
0.546417
0.546418
0.530909
0.497323
0.514513
0.548022
0.549487
0.517178
0.491297
0.491296
0.533816
0.533819
0.510216
0.485544
0.449097
0.410442
0.410432
0.410425
0.410428
0.327808
0.216053
0.184555
0.322981
0.640883
0.725604
0.663664
0.466094
0.384773
0.384769
0.384767
0.452263
0.512013
0.520646
0.52065
0.484165
0.484164
0.484162
0.484158
0.518592
0.582467
0.583488
0.563074
0.491479
0.478113
0.529928
0.536743
0.536753
0.496261
0.474492
0.474504
0.474464
0.474511
0.474483
0.52623
0.467232
0.424983
0.441141
0.504404
0.5387
0.518124
0.423265
0.41518
0.415178
0.415179
0.410124
0.410126
0.446907
0.628752
0.628753
0.621508
0.621501
0.621495
0.61909
0.560524
0.542095
0.54593
0.520239
0.481332
0.479939
0.479949
0.479905
0.479949
0.513389
0.504285
0.504279
0.511998
0.528374
0.528373
0.528374
0.505566
0.45854
0.458534
0.469624
0.533284
0.513289
0.454244
0.42001
0.41999
0.46238
0.583432
0.587342
0.559618
0.572539
0.639817
0.639818
0.639817
0.573806
0.529011
0.531365
0.542818
0.493591
0.477965
0.477961
0.477957
0.477933
0.477928
0.512804
0.520488
0.498892
0.476672
0.476667
0.476663
0.475932
0.437849
0.437811
0.511366
0.529774
0.582129
0.756428
0.813851
0.504643
0.494864
0.493547
0.504468
0.50139
0.507381
0.499958
0.499959
0.494812
0.489545
0.499493
0.496615
0.50076
0.500758
0.489447
0.489448
0.494812
0.499483
0.501078
0.50255
0.511437
0.503915
0.512613
0.510397
0.509416
0.513506
0.513506
0.491138
0.508272
0.536007
0.536007
0.526727
0.533148
0.533147
0.465094
0.462043
0.460158
0.460373
0.465042
0.540197
0.542415
0.520174
0.501812
0.505107
0.519632
0.527584
0.525028
0.489071
0.489377
0.488611
0.491959
0.48022
0.480033
0.478705
0.476314
0.476312
0.476314
0.476313
0.476314
0.499448
0.539838
0.541355
0.542966
0.543405
0.544827
0.545299
0.543964
0.419277
0.419277
0.41941
0.423968
0.511014
0.540453
0.535975
0.537969
0.537969
0.532111
0.493782
0.487997
0.489844
0.521101
0.521102
0.503059
0.480788
0.480787
0.479165
0.482946
0.50389
0.523708
0.523709
0.498973
0.465034