/*--------------------------------*- C++ -*----------------------------------*\
  =========                 |
  \\      /  F ield         | OpenFOAM: The Open Source CFD Toolbox
   \\    /   O peration     | Website:  https://openfoam.org
    \\  /    A nd           | Version:  7
     \\/     M anipulation  |
\*---------------------------------------------------------------------------*/
FoamFile
{
    version     2.0;
    format      ascii;
    class       volScalarField;
    location    "5500";
    object      epss;
}
// * * * * * * * * * * * * * * * * * * * * * * * * * * * * * * * * * * * * * //

dimensions      [0 0 0 0 0 0 0];

internalField   nonuniform List<scalar> 
160000
(
0.55073
0.516988
0.541219
0.50214
0.471202
0.543943
0.479411
0.554015
0.523412
0.452119
0.482288
0.521719
0.459009
0.467043
0.572301
0.532655
0.565008
0.558488
0.484238
0.49214
0.507932
0.525516
0.502741
0.465141
0.487994
0.456107
0.453575
0.500956
0.482435
0.539307
0.541712
0.493852
0.415964
0.487784
0.504749
0.477824
0.465633
0.428896
0.554042
0.504762
0.504723
0.505669
0.476248
0.535277
0.472446
0.475187
0.493601
0.548365
0.486368
0.538401
0.499146
0.420521
0.464982
0.494225
0.434136
0.537308
0.438131
0.559899
0.576212
0.532451
0.388895
0.513326
0.519586
0.544119
0.569364
0.439039
0.479802
0.459425
0.591766
0.6512
0.444096
0.554683
0.459372
0.528992
0.479404
0.501535
0.470956
0.511797
0.445489
0.49723
0.435375
0.409621
0.477114
0.503833
0.507623
0.520714
0.522627
0.564333
0.521326
0.47539
0.56472
0.444529
0.425637
0.445744
0.486367
0.555762
0.498845
0.527129
0.523532
0.564195
0.507997
0.593235
0.463881
0.525136
0.572316
0.490544
0.579137
0.492625
0.47248
0.473078
0.449648
0.551181
0.445311
0.515519
0.532232
0.501331
0.549368
0.51056
0.446596
0.481263
0.508797
0.542534
0.483839
0.463962
0.439739
0.393794
0.430973
0.516128
0.489382
0.48613
0.521771
0.542153
0.478984
0.408694
0.46637
0.48847
0.537085
0.507817
0.551506
0.586127
0.481851
0.457972
0.610619
0.484532
0.417173
0.485593
0.47826
0.485211
0.501838
0.550567
0.57384
0.52365
0.566595
0.481911
0.583453
0.498734
0.494724
0.43323
0.47716
0.466901
0.527178
0.508269
0.535468
0.457756
0.57724
0.478951
0.483123
0.540937
0.509699
0.544237
0.433932
0.407745
0.501568
0.405206
0.468555
0.536033
0.502434
0.490579
0.411771
0.430593
0.571464
0.452719
0.542112
0.57518
0.564603
0.552686
0.533913
0.546119
0.580122
0.515471
0.497179
0.539182
0.518418
0.461866
0.43793
0.588345
0.513039
0.365836
0.321607
0.364076
0.423374
0.483824
0.530463
0.551221
0.52244
0.459411
0.453735
0.493554
0.521009
0.526345
0.517988
0.521749
0.538385
0.533727
0.514178
0.525948
0.537477
0.476015
0.39235
0.372005
0.401022
0.482218
0.600279
0.618995
0.593917
0.555046
0.497512
0.582381
0.491629
0.523641
0.624979
0.531529
0.559207
0.499772
0.503787
0.485766
0.551196
0.500569
0.563157
0.510731
0.543843
0.570263
0.527853
0.550013
0.507658
0.519666
0.48732
0.487464
0.366915
0.375989
0.416073
0.477537
0.544036
0.582602
0.579151
0.529694
0.54335
0.593636
0.51338
0.344589
0.313115
0.432501
0.542325
0.606648
0.569679
0.480086
0.486632
0.589031
0.525684
0.394866
0.498341
0.545068
0.507105
0.528458
0.577384
0.599959
0.521995
0.405865
0.474307
0.513192
0.555813
0.542402
0.51674
0.485765
0.481824
0.490627
0.465147
0.520454
0.507458
0.483253
0.500228
0.614703
0.543234
0.507619
0.49455
0.482599
0.469223
0.60248
0.499333
0.537967
0.424196
0.298794
0.284468
0.328976
0.392742
0.453302
0.494314
0.518709
0.534389
0.533864
0.529157
0.551625
0.552637
0.486816
0.427997
0.38718
0.407487
0.512347
0.591977
0.582332
0.603907
0.597927
0.587183
0.455104
0.371216
0.369935
0.404207
0.426507
0.441627
0.469847
0.503517
0.500804
0.498731
0.508709
0.507878
0.514178
0.528095
0.494639
0.413432
0.451618
0.568007
0.568691
0.535025
0.541344
0.458371
0.489965
0.473664
0.416917
0.408576
0.435827
0.479156
0.5345
0.533387
0.528581
0.496031
0.49003
0.482978
0.480136
0.489275
0.536873
0.564938
0.565171
0.527561
0.540282
0.466955
0.441788
0.481711
0.390825
0.388877
0.470492
0.512279
0.494031
0.489189
0.413416
0.508685
0.45228
0.529091
0.534514
0.56326
0.546627
0.523549
0.534247
0.543208
0.487873
0.471811
0.470176
0.452735
0.463126
0.502817
0.521353
0.495004
0.52409
0.481845
0.510734
0.56172
0.438802
0.486571
0.600794
0.407585
0.459349
0.423178
0.57086
0.513942
0.549923
0.563753
0.535359
0.484621
0.51554
0.510286
0.495248
0.480872
0.53036
0.51277
0.492957
0.452529
0.545437
0.537829
0.418165
0.431391
0.475784
0.530454
0.511672
0.468252
0.474651
0.566709
0.510516
0.407705
0.429795
0.496841
0.455753
0.486363
0.525715
0.501187
0.529209
0.559489
0.466267
0.437111
0.639462
0.478142
0.428233
0.500322
0.539184
0.480774
0.558974
0.47151
0.43029
0.503918
0.561476
0.491063
0.445064
0.521507
0.494836
0.516328
0.411761
0.579596
0.493405
0.472584
0.543061
0.520058
0.515801
0.506469
0.487539
0.542603
0.549455
0.498154
0.516617
0.559424
0.452921
0.455647
0.416664
0.43234
0.482269
0.563526
0.516093
0.518876
0.478985
0.52149
0.520943
0.522318
0.453299
0.472209
0.498359
0.49512
0.488906
0.405505
0.418747
0.538829
0.52161
0.504947
0.466696
0.446393
0.474121
0.414732
0.457875
0.532458
0.483993
0.502183
0.481739
0.497579
0.544771
0.477699
0.511118
0.552742
0.420137
0.486668
0.538635
0.46344
0.442486
0.47982
0.470391
0.495142
0.560577
0.537056
0.539873
0.517483
0.506776
0.504226
0.484445
0.465987
0.417388
0.433131
0.498887
0.503508
0.503441
0.508372
0.493757
0.503191
0.525964
0.494716
0.521385
0.545841
0.582684
0.424154
0.402111
0.468473
0.535475
0.417062
0.524236
0.567804
0.531485
0.482713
0.456101
0.475395
0.455466
0.461472
0.535561
0.489144
0.514651
0.534156
0.557278
0.442059
0.564379
0.552415
0.508286
0.501552
0.465596
0.514625
0.475235
0.534127
0.479375
0.489121
0.466893
0.499975
0.520061
0.530498
0.479311
0.443412
0.509998
0.486864
0.498695
0.496
0.512901
0.557013
0.431142
0.4941
0.484323
0.47916
0.507742
0.484953
0.512333
0.526158
0.496925
0.552384
0.601417
0.495586
0.514776
0.512349
0.573735
0.513779
0.417545
0.410097
0.467395
0.494655
0.473532
0.46179
0.435717
0.36248
0.328084
0.348636
0.38807
0.4398
0.483085
0.506991
0.495601
0.456574
0.431906
0.44528
0.48051
0.50963
0.518434
0.528695
0.547333
0.552774
0.541803
0.540822
0.547591
0.533369
0.502061
0.490897
0.508143
0.536992
0.581929
0.603034
0.585583
0.545218
0.515617
0.495356
0.536729
0.492597
0.505358
0.503011
0.488015
0.409274
0.426692
0.540842
0.538821
0.506359
0.501807
0.555078
0.537079
0.569431
0.570934
0.487793
0.48822
0.566835
0.45851
0.417005
0.332427
0.31375
0.363686
0.415412
0.466763
0.493262
0.515658
0.531847
0.53891
0.551058
0.523974
0.440157
0.394596
0.449169
0.528607
0.563747
0.543835
0.492506
0.486231
0.569031
0.55352
0.43025
0.4132
0.504849
0.517537
0.5028
0.553775
0.581161
0.54959
0.466714
0.433899
0.495396
0.535665
0.527541
0.503949
0.467508
0.433595
0.448769
0.498707
0.545486
0.57234
0.566829
0.558504
0.581964
0.548
0.498937
0.495454
0.590403
0.509137
0.46609
0.506154
0.487406
0.325659
0.254141
0.294408
0.349124
0.422345
0.479575
0.519187
0.542814
0.552104
0.554581
0.552152
0.54875
0.541538
0.511039
0.467091
0.447061
0.474383
0.539035
0.593095
0.592617
0.576451
0.580032
0.563315
0.459194
0.326774
0.320199
0.381593
0.432557
0.4489
0.464566
0.498046
0.515178
0.51229
0.51793
0.516687
0.508924
0.520352
0.525045
0.502572
0.504316
0.540629
0.546987
0.507242
0.503658
0.498116
0.474833
0.457143
0.453843
0.460647
0.480287
0.505893
0.54474
0.566315
0.555498
0.516303
0.513079
0.542115
0.550524
0.540357
0.539008
0.543677
0.546638
0.532506
0.524668
0.502049
0.434594
0.436252
0.447251
0.442835
0.509202
0.564133
0.561674
0.57047
0.550151
0.556757
0.529018
0.556694
0.534053
0.503587
0.552917
0.520618
0.463585
0.588197
0.450096
0.504615
0.578059
0.4867
0.522047
0.551988
0.515173
0.463677
0.537948
0.494933
0.459685
0.523911
0.547763
0.446626
0.586809
0.508075
0.572645
0.472825
0.593151
0.609915
0.482316
0.577707
0.454759
0.586504
0.512917
0.461951
0.553109
0.461459
0.413898
0.474525
0.522599
0.454749
0.40326
0.477451
0.408848
0.45349
0.525928
0.463996
0.509931
0.494452
0.538994
0.565242
0.553461
0.522142
0.504334
0.491877
0.411274
0.499106
0.517541
0.482487
0.483729
0.478824
0.565638
0.524914
0.500158
0.539002
0.538428
0.518088
0.495058
0.4993
0.501044
0.50701
0.413898
0.536122
0.56196
0.552897
0.479044
0.419158
0.501329
0.550534
0.544341
0.511213
0.488214
0.477109
0.423612
0.443238
0.415093
0.528482
0.530512
0.508053
0.467061
0.559441
0.537241
0.468475
0.553746
0.569143
0.596376
0.524054
0.584236
0.476427
0.502972
0.58921
0.549805
0.50175
0.497894
0.462883
0.430692
0.493898
0.464209
0.451555
0.464652
0.536257
0.488268
0.517628
0.462487
0.467572
0.541111
0.55265
0.483006
0.53846
0.572057
0.524249
0.589657
0.597522
0.536449
0.51535
0.510273
0.538869
0.536911
0.482347
0.527154
0.489888
0.458454
0.496111
0.513246
0.547428
0.501304
0.468737
0.511523
0.506153
0.535674
0.560035
0.507424
0.521893
0.506672
0.490372
0.501701
0.521743
0.549749
0.542298
0.523861
0.537613
0.547268
0.546096
0.551501
0.518385
0.518928
0.550213
0.51583
0.456624
0.454296
0.49433
0.500501
0.513932
0.491318
0.488538
0.526487
0.519412
0.456931
0.406755
0.474824
0.47488
0.451791
0.503113
0.507956
0.502308
0.515766
0.528921
0.487414
0.528302
0.501923
0.422119
0.443491
0.540024
0.49471
0.507267
0.527855
0.537969
0.558374
0.49642
0.501116
0.503451
0.508275
0.50535
0.505447
0.514507
0.472432
0.442338
0.459791
0.465679
0.494567
0.546447
0.591205
0.511439
0.453526
0.471687
0.525183
0.520688
0.54553
0.577843
0.552828
0.514569
0.530235
0.517839
0.510458
0.46233
0.391282
0.357937
0.423553
0.467238
0.47945
0.47285
0.457591
0.442957
0.425145
0.410504
0.419589
0.450864
0.486556
0.506558
0.502086
0.488795
0.486128
0.493828
0.509996
0.524738
0.52976
0.541854
0.562457
0.569075
0.558518
0.554258
0.558819
0.552431
0.537982
0.542464
0.568768
0.579253
0.54933
0.515498
0.507692
0.510526
0.516989
0.525364
0.542902
0.524578
0.48691
0.517054
0.535725
0.493864
0.482888
0.54256
0.528189
0.506216
0.551722
0.571344
0.545906
0.488584
0.473225
0.502139
0.490484
0.520918
0.48164
0.44133
0.325899
0.307066
0.368204
0.436483
0.503215
0.519415
0.522575
0.535789
0.550237
0.556018
0.54986
0.525013
0.500219
0.508283
0.538521
0.544234
0.521822
0.499426
0.49698
0.518587
0.527271
0.492947
0.478356
0.523899
0.546901
0.515704
0.493751
0.506429
0.513541
0.502922
0.463706
0.459338
0.490742
0.497907
0.482908
0.468796
0.480072
0.51759
0.558023
0.563846
0.555259
0.553322
0.545135
0.53552
0.531523
0.537643
0.549409
0.529711
0.452051
0.338399
0.381455
0.448393
0.345969
0.298678
0.330377
0.395297
0.469749
0.507517
0.51681
0.515635
0.519198
0.533066
0.546905
0.544036
0.529802
0.519382
0.512676
0.511169
0.530767
0.56863
0.580005
0.549439
0.522013
0.526135
0.514848
0.451036
0.37676
0.366307
0.412906
0.481661
0.515822
0.52459
0.532615
0.537904
0.526593
0.514884
0.528271
0.547028
0.556315
0.559717
0.544355
0.518534
0.511287
0.51633
0.518061
0.520266
0.503487
0.475272
0.472343
0.475415
0.467487
0.480913
0.532887
0.574785
0.562878
0.527
0.489825
0.483522
0.527413
0.554002
0.531959
0.509366
0.535657
0.583133
0.576472
0.527377
0.480867
0.46185
0.468843
0.529627
0.540183
0.521198
0.54847
0.548767
0.506698
0.475507
0.477346
0.485241
0.494105
0.514725
0.531095
0.568754
0.57329
0.524735
0.558005
0.539778
0.501516
0.482693
0.528131
0.560049
0.503359
0.489347
0.481658
0.514147
0.55683
0.477052
0.476294
0.507018
0.478614
0.509911
0.578374
0.497671
0.504536
0.544125
0.440055
0.448496
0.437685
0.428304
0.421955
0.430178
0.469549
0.426134
0.474083
0.44562
0.525869
0.515395
0.505807
0.525904
0.41999
0.475768
0.444624
0.463753
0.48464
0.481109
0.540086
0.423585
0.548033
0.487247
0.422616
0.556747
0.522082
0.475463
0.538654
0.63047
0.563499
0.534519
0.490774
0.466018
0.454278
0.479636
0.473898
0.595098
0.511198
0.419363
0.42306
0.473752
0.494377
0.486465
0.46588
0.499607
0.498863
0.527738
0.508865
0.526651
0.436391
0.48057
0.581751
0.482835
0.507407
0.540216
0.547947
0.511586
0.516179
0.471014
0.494051
0.446647
0.520092
0.54098
0.519673
0.499973
0.505766
0.512362
0.475748
0.482001
0.587769
0.569895
0.529578
0.463102
0.421555
0.471474
0.538838
0.475775
0.529735
0.583741
0.453672
0.480931
0.510981
0.51566
0.436442
0.436187
0.443715
0.442975
0.493991
0.448375
0.531175
0.47587
0.507472
0.522208
0.531547
0.479517
0.562002
0.551361
0.491877
0.442216
0.507574
0.485261
0.467616
0.484934
0.452178
0.44841
0.483762
0.503851
0.494271
0.497625
0.521844
0.472813
0.509371
0.542924
0.522897
0.492646
0.479355
0.452871
0.473973
0.526947
0.531296
0.524501
0.51813
0.563533
0.491259
0.470447
0.479924
0.524403
0.53321
0.515861
0.515142
0.484763
0.502887
0.489372
0.494313
0.527718
0.494744
0.502442
0.520421
0.506931
0.495212
0.558148
0.507897
0.467566
0.456429
0.448384
0.496768
0.533958
0.535098
0.471493
0.514475
0.517458
0.549115
0.540162
0.513331
0.503061
0.453775
0.476494
0.526175
0.495061
0.490477
0.483301
0.478042
0.499835
0.540171
0.516348
0.478308
0.439034
0.405169
0.397275
0.453462
0.51255
0.494384
0.472213
0.494886
0.487255
0.490375
0.535913
0.544419
0.507171
0.518339
0.595013
0.584469
0.511434
0.498286
0.492132
0.47262
0.392697
0.393084
0.429979
0.449499
0.477409
0.477838
0.479015
0.49431
0.503924
0.492951
0.470458
0.453314
0.462963
0.493534
0.515117
0.511015
0.493472
0.485198
0.494783
0.511321
0.519505
0.524686
0.536413
0.541404
0.526547
0.510965
0.515745
0.531967
0.546761
0.561171
0.573662
0.57483
0.552318
0.51034
0.47172
0.46
0.478392
0.507441
0.530974
0.552787
0.561082
0.558673
0.552882
0.539665
0.552823
0.590129
0.584394
0.560178
0.547244
0.529996
0.521765
0.544082
0.549492
0.555886
0.562473
0.5175
0.494033
0.438198
0.359369
0.334624
0.374193
0.440428
0.51791
0.542217
0.539881
0.54201
0.550009
0.545481
0.527449
0.507379
0.496108
0.504913
0.533482
0.552268
0.535644
0.499618
0.474873
0.481659
0.510179
0.524898
0.506708
0.491176
0.477109
0.455384
0.45836
0.514869
0.575231
0.571078
0.515916
0.477023
0.470623
0.481601
0.498553
0.516452
0.533438
0.541731
0.537603
0.535017
0.551812
0.566563
0.551738
0.519541
0.516732
0.548953
0.561348
0.521955
0.426577
0.332272
0.339339
0.398113
0.426314
0.418562
0.41629
0.456316
0.496105
0.506136
0.49577
0.486658
0.491722
0.505902
0.519343
0.524866
0.521508
0.519575
0.521616
0.517885
0.514432
0.527107
0.546253
0.55798
0.565433
0.550304
0.504191
0.459565
0.440409
0.450301
0.477664
0.52431
0.549425
0.551679
0.541227
0.527631
0.5237
0.528796
0.530747
0.524993
0.509711
0.484646
0.467692
0.458203
0.445911
0.452329
0.490747
0.526326
0.537637
0.529529
0.499281
0.465657
0.466577
0.509801
0.55187
0.572574
0.578402
0.571795
0.56432
0.554015
0.536714
0.534422
0.531281
0.53088
0.524988
0.508952
0.493253
0.503632
0.512349
0.515713
0.519127
0.506097
0.545827
0.560184
0.540426
0.537418
0.512708
0.500109
0.519684
0.514391
0.518141
0.517921
0.518657
0.568314
0.605106
0.553522
0.501468
0.515777
0.591049
0.476555
0.442941
0.495968
0.547568
0.530794
0.495493
0.548297
0.488579
0.52423
0.567234
0.584128
0.518315
0.539235
0.552489
0.561942
0.52837
0.4956
0.47513
0.46671
0.452362
0.429223
0.492793
0.506647
0.513089
0.559042
0.4783
0.498634
0.556739
0.546448
0.642265
0.443895
0.402687
0.528398
0.565749
0.461285
0.466018
0.425408
0.411427
0.517843
0.540541
0.580135
0.535164
0.536375
0.588679
0.479958
0.443714
0.507538
0.469967
0.493562
0.557214
0.501557
0.452978
0.500627
0.578715
0.531044
0.486959
0.428629
0.468638
0.512904
0.457542
0.522275
0.54917
0.532994
0.49847
0.523819
0.457773
0.410521
0.490273
0.48447
0.48823
0.513098
0.539691
0.501571
0.493064
0.539209
0.493607
0.502404
0.550726
0.523904
0.525389
0.523485
0.562902
0.534434
0.467666
0.484152
0.48174
0.515481
0.496482
0.545326
0.534533
0.477916
0.491006
0.452957
0.454052
0.512258
0.498821
0.483073
0.440027
0.548615
0.522698
0.503675
0.512305
0.480747
0.463592
0.503722
0.502348
0.5047
0.506867
0.524793
0.5313
0.506615
0.515256
0.525198
0.485118
0.499186
0.535954
0.532706
0.459691
0.448709
0.504277
0.545074
0.467906
0.468496
0.444336
0.464008
0.503843
0.498639
0.50579
0.527958
0.505435
0.44186
0.423579
0.482853
0.564041
0.517592
0.44814
0.493152
0.515743
0.497386
0.5163
0.509416
0.490746
0.455469
0.49985
0.547414
0.540081
0.518368
0.513366
0.519696
0.475658
0.476179
0.491376
0.514237
0.51529
0.537606
0.506874
0.461608
0.464609
0.474111
0.485466
0.472125
0.509321
0.485357
0.478708
0.525668
0.531
0.502863
0.514045
0.523356
0.505859
0.483641
0.468691
0.468658
0.461099
0.484821
0.547328
0.55339
0.494275
0.46712
0.464599
0.476745
0.530564
0.561745
0.507987
0.437128
0.440326
0.460475
0.468238
0.506837
0.504661
0.513431
0.522534
0.492717
0.498696
0.510198
0.51546
0.518715
0.509837
0.490576
0.497811
0.536355
0.562154
0.558345
0.442006
0.374866
0.391823
0.424474
0.460403
0.500729
0.50551
0.509215
0.527444
0.549788
0.550565
0.520811
0.480333
0.454514
0.454597
0.473452
0.488151
0.485513
0.475735
0.47787
0.498294
0.520137
0.524947
0.513469
0.493124
0.469656
0.457513
0.471434
0.504634
0.535728
0.547947
0.541111
0.527829
0.514002
0.502058
0.498582
0.495653
0.486228
0.495138
0.529046
0.553871
0.553382
0.542688
0.536714
0.537165
0.532737
0.551894
0.573361
0.545238
0.514066
0.523544
0.546722
0.560114
0.54869
0.498473
0.466393
0.470637
0.46457
0.424597
0.374659
0.367514
0.387074
0.430824
0.502477
0.543215
0.553115
0.547212
0.539969
0.532662
0.522549
0.512161
0.506244
0.507194
0.51914
0.541402
0.557236
0.554708
0.536577
0.516971
0.509687
0.503261
0.472154
0.429585
0.421697
0.456282
0.496169
0.536387
0.563261
0.543325
0.492152
0.456657
0.452684
0.471691
0.50554
0.53687
0.551862
0.550044
0.548248
0.557413
0.55824
0.532363
0.501875
0.503454
0.532102
0.561494
0.571563
0.538685
0.449228
0.360448
0.348335
0.386994
0.427651
0.46654
0.486007
0.501402
0.504643
0.491062
0.472656
0.466508
0.478868
0.505591
0.535668
0.55245
0.544592
0.518893
0.489866
0.461079
0.437487
0.438443
0.468486
0.498842
0.506269
0.495074
0.474568
0.449137
0.430527
0.434978
0.462834
0.507963
0.543378
0.551186
0.533627
0.508434
0.492846
0.502435
0.529567
0.541996
0.522903
0.499785
0.501181
0.510571
0.499092
0.481265
0.492347
0.520575
0.521799
0.492087
0.468655
0.473172
0.507659
0.550054
0.56828
0.568827
0.570495
0.570438
0.546189
0.516107
0.51024
0.521986
0.538825
0.537183
0.52058
0.512053
0.517196
0.515489
0.517331
0.520368
0.514084
0.503806
0.487624
0.477654
0.485205
0.505528
0.506532
0.525461
0.529708
0.517093
0.514508
0.554213
0.612544
0.593058
0.525421
0.545508
0.530568
0.493079
0.486707
0.498438
0.465064
0.478459
0.560687
0.559022
0.507272
0.448832
0.483919
0.519435
0.502731
0.509671
0.488634
0.563577
0.606891
0.521249
0.518813
0.508359
0.646128
0.492757
0.567791
0.568314
0.438345
0.479826
0.529111
0.485181
0.565226
0.550907
0.610964
0.530494
0.47493
0.537416
0.43905
0.453364
0.441533
0.414938
0.530938
0.519619
0.493052
0.445926
0.456063
0.445838
0.519548
0.582456
0.532226
0.532886
0.605404
0.528533
0.553728
0.421432
0.50953
0.506378
0.493999
0.488485
0.466501
0.531478
0.525162
0.486199
0.45158
0.456839
0.497647
0.493509
0.542524
0.532397
0.497332
0.498998
0.514004
0.505466
0.475004
0.415124
0.473047
0.534779
0.488069
0.484341
0.523693
0.489435
0.480045
0.511177
0.533528
0.509566
0.531554
0.545361
0.485961
0.527858
0.481023
0.421941
0.468331
0.503336
0.465479
0.438131
0.471324
0.442072
0.455885
0.513857
0.48919
0.436005
0.482694
0.517002
0.538397
0.528452
0.485937
0.487567
0.516802
0.506365
0.469008
0.459269
0.456636
0.420922
0.449679
0.499751
0.533172
0.478229
0.453612
0.512547
0.528478
0.52826
0.584379
0.560366
0.529589
0.568736
0.537993
0.508709
0.465734
0.463267
0.509318
0.529867
0.53765
0.487122
0.452068
0.467261
0.521612
0.556601
0.536973
0.500548
0.526419
0.556504
0.555047
0.520886
0.456194
0.466998
0.47511
0.449622
0.475713
0.443013
0.461655
0.481903
0.476487
0.490837
0.500474
0.49541
0.473468
0.468359
0.51731
0.539428
0.504247
0.470467
0.507666
0.504707
0.502853
0.498278
0.508723
0.500481
0.465343
0.470615
0.511276
0.507085
0.469698
0.465434
0.493696
0.53212
0.525583
0.508543
0.484937
0.501359
0.4997
0.527823
0.528583
0.498476
0.4802
0.446121
0.443649
0.465233
0.496838
0.491969
0.499216
0.505473
0.505742
0.528994
0.549316
0.541267
0.551147
0.541539
0.485939
0.469866
0.49674
0.519441
0.499424
0.49881
0.48078
0.451946
0.478272
0.52672
0.539882
0.515199
0.412818
0.356598
0.393874
0.424406
0.475719
0.511056
0.508207
0.499646
0.499815
0.510865
0.523673
0.522674
0.501772
0.473962
0.456708
0.457607
0.472274
0.485959
0.487451
0.48123
0.481451
0.49602
0.511695
0.512112
0.501338
0.488574
0.480081
0.481737
0.494654
0.511409
0.521923
0.520329
0.50994
0.503673
0.515402
0.543142
0.566659
0.564438
0.534456
0.506673
0.51411
0.53867
0.546801
0.534733
0.519722
0.5275
0.565625
0.58569
0.547002
0.499095
0.504355
0.53982
0.553097
0.535965
0.501259
0.480715
0.496
0.49261
0.449486
0.413533
0.402015
0.404294
0.433721
0.481383
0.520521
0.544574
0.547472
0.534875
0.519237
0.510658
0.511738
0.519029
0.528399
0.538581
0.546884
0.541296
0.516718
0.493178
0.491739
0.502389
0.492511
0.450499
0.406667
0.403702
0.448134
0.500566
0.537261
0.548229
0.536302
0.50137
0.461141
0.444972
0.459769
0.492926
0.522709
0.525854
0.510128
0.495139
0.492314
0.498084
0.505734
0.515009
0.522892
0.524174
0.523878
0.528153
0.519057
0.464905
0.392932
0.377822
0.407195
0.451187
0.495867
0.513504
0.527142
0.533675
0.523044
0.500565
0.483318
0.482543
0.496616
0.517385
0.534212
0.532899
0.507387
0.471891
0.445038
0.430573
0.43039
0.455785
0.504698
0.547977
0.55795
0.537279
0.510292
0.497145
0.50146
0.517583
0.537615
0.548293
0.540508
0.517508
0.501003
0.502805
0.510811
0.520585
0.540728
0.556009
0.54381
0.517661
0.504654
0.502247
0.499975
0.506551
0.524604
0.531377
0.515875
0.507751
0.515834
0.511679
0.498477
0.507572
0.533628
0.543112
0.524116
0.500346
0.495931
0.492554
0.476126
0.480339
0.505445
0.521121
0.520037
0.511921
0.516339
0.532261
0.536876
0.514866
0.502022
0.49251
0.480199
0.497313
0.537641
0.569754
0.542639
0.486865
0.468315
0.504099
0.506564
0.504208
0.516554
0.511586
0.482273
0.528406
0.545433
0.520326
0.503512
0.525178
0.594295
0.565863
0.580137
0.629862
0.563189
0.509517
0.521605
0.491611
0.481487
0.534522
0.505809
0.571768
0.540272
0.422545
0.426566
0.491651
0.550929
0.527578
0.530441
0.529526
0.504233
0.472065
0.455614
0.378174
0.456131
0.477348
0.520407
0.506598
0.542076
0.473542
0.444956
0.472385
0.513664
0.508986
0.545594
0.504472
0.530123
0.428952
0.389109
0.503259
0.538546
0.524878
0.454053
0.452677
0.521424
0.473582
0.51614
0.450078
0.476214
0.483269
0.556661
0.508785
0.5223
0.43987
0.448623
0.457594
0.523438
0.498335
0.445276
0.458944
0.52512
0.521432
0.488741
0.534473
0.549178
0.511867
0.515031
0.463083
0.452194
0.518809
0.482189
0.467844
0.511737
0.511694
0.484064
0.524206
0.530906
0.54575
0.557321
0.508993
0.45208
0.470455
0.556742
0.518432
0.453594
0.480721
0.524451
0.545935
0.491598
0.440989
0.451105
0.475755
0.467027
0.494542
0.496243
0.484756
0.516512
0.523871
0.523058
0.552124
0.542451
0.458526
0.482849
0.495825
0.499573
0.501719
0.495503
0.495036
0.527116
0.479771
0.458809
0.499051
0.552913
0.560868
0.465307
0.448567
0.532663
0.540428
0.476196
0.459103
0.443966
0.468921
0.479
0.479396
0.523474
0.522575
0.46518
0.509593
0.565712
0.533995
0.482224
0.472607
0.510134
0.554355
0.51995
0.449187
0.43528
0.435412
0.469204
0.500816
0.510387
0.468483
0.46693
0.49452
0.472073
0.467427
0.499087
0.524804
0.53721
0.533544
0.527634
0.510778
0.459388
0.449572
0.451024
0.487708
0.525876
0.532103
0.534461
0.50466
0.479582
0.463773
0.46396
0.467712
0.494
0.526652
0.532301
0.498279
0.455147
0.493064
0.498231
0.496239
0.529456
0.562633
0.553325
0.498609
0.462892
0.426333
0.417206
0.478628
0.540687
0.523267
0.499518
0.496654
0.502236
0.504019
0.516049
0.502874
0.48767
0.516463
0.510851
0.470761
0.474557
0.492408
0.488832
0.483568
0.479443
0.477242
0.514928
0.540537
0.515866
0.405915
0.363856
0.411224
0.440827
0.495677
0.521459
0.52326
0.522376
0.515869
0.498756
0.480032
0.474225
0.479377
0.480966
0.474476
0.471062
0.48174
0.502169
0.516086
0.511548
0.489374
0.461147
0.450172
0.4702
0.499156
0.508869
0.500173
0.495086
0.503943
0.512292
0.511467
0.51315
0.520627
0.520379
0.512889
0.516159
0.530422
0.535951
0.528907
0.518825
0.506974
0.498023
0.498344
0.514228
0.541114
0.561143
0.568084
0.567674
0.549051
0.514769
0.495063
0.497816
0.500528
0.484525
0.450219
0.427366
0.438874
0.459956
0.461125
0.445517
0.426865
0.423925
0.446118
0.482625
0.521523
0.549802
0.560743
0.557691
0.548822
0.540712
0.533415
0.522541
0.507825
0.496102
0.492902
0.494303
0.493986
0.49578
0.50534
0.51105
0.495646
0.464709
0.442661
0.449016
0.480056
0.514814
0.536859
0.542908
0.543452
0.53696
0.514171
0.482245
0.463125
0.466207
0.48188
0.494432
0.503387
0.516053
0.527296
0.529175
0.526037
0.528419
0.537036
0.542553
0.538264
0.52887
0.518099
0.484758
0.425047
0.393598
0.405712
0.452265
0.512287
0.529943
0.524631
0.513556
0.501413
0.493534
0.497784
0.509863
0.516372
0.51349
0.510126
0.510436
0.50368
0.484919
0.47241
0.482864
0.506401
0.524872
0.533935
0.535216
0.526516
0.51292
0.507796
0.50934
0.50629
0.497786
0.491854
0.49457
0.503096
0.507518
0.501373
0.486692
0.47082
0.463001
0.468887
0.487142
0.506067
0.514942
0.51738
0.516506
0.505164
0.490977
0.499319
0.525736
0.531787
0.513335
0.50703
0.522731
0.537078
0.539689
0.543216
0.555955
0.563982
0.545121
0.505096
0.484717
0.503449
0.527855
0.537131
0.537101
0.524725
0.514593
0.522018
0.527878
0.515445
0.505002
0.50108
0.507333
0.500335
0.477301
0.474462
0.496956
0.50772
0.517057
0.537477
0.540238
0.529001
0.522644
0.518417
0.540228
0.580625
0.569811
0.51839
0.488045
0.496381
0.542702
0.567882
0.55111
0.499311
0.547385
0.561898
0.493537
0.441801
0.466128
0.496844
0.531187
0.500008
0.549824
0.557734
0.591367
0.504051
0.517043
0.478113
0.566994
0.45192
0.552733
0.497012
0.577058
0.469074
0.472972
0.508929
0.490707
0.449852
0.467149
0.530166
0.540486
0.616447
0.48074
0.522807
0.507026
0.561882
0.449337
0.467151
0.529831
0.578899
0.499469
0.525462
0.489306
0.51018
0.502176
0.469428
0.387558
0.49623
0.48942
0.466362
0.50451
0.534604
0.505563
0.464309
0.493392
0.518555
0.534493
0.555227
0.504888
0.520646
0.499423
0.465101
0.467676
0.474986
0.433934
0.470411
0.458865
0.459323
0.443316
0.486965
0.492111
0.479418
0.499698
0.533866
0.511319
0.535674
0.498638
0.506669
0.492135
0.460874
0.488903
0.483027
0.462243
0.49011
0.509441
0.4831
0.445799
0.449371
0.491885
0.497854
0.460258
0.447461
0.516898
0.555784
0.543039
0.506032
0.49881
0.538704
0.519639
0.500807
0.501071
0.493044
0.472744
0.507729
0.507754
0.524078
0.490266
0.467203
0.519533
0.560766
0.542644
0.510885
0.49061
0.4881
0.476839
0.482779
0.504437
0.480405
0.455477
0.474708
0.519903
0.530725
0.518927
0.54471
0.540489
0.511269
0.507078
0.472568
0.457646
0.498552
0.527931
0.569922
0.582351
0.560873
0.532846
0.501046
0.466309
0.467192
0.507539
0.504725
0.502796
0.519461
0.484853
0.441714
0.495694
0.567072
0.546116
0.471276
0.441346
0.499997
0.567708
0.551004
0.477075
0.43696
0.454724
0.479502
0.475228
0.514439
0.544433
0.518586
0.488265
0.498665
0.497252
0.463236
0.472266
0.528771
0.553669
0.512757
0.495233
0.503892
0.511375
0.511834
0.47153
0.476049
0.540897
0.564816
0.545135
0.518742
0.493462
0.458452
0.471759
0.529416
0.539199
0.483986
0.47446
0.503955
0.504732
0.456295
0.44551
0.502556
0.53925
0.495079
0.462828
0.494434
0.550205
0.550051
0.516652
0.503017
0.531026
0.544904
0.527022
0.470712
0.391063
0.363555
0.395332
0.440479
0.510086
0.533121
0.523464
0.515315
0.521887
0.53027
0.521878
0.498618
0.480122
0.477874
0.483646
0.484905
0.482592
0.486747
0.498772
0.507787
0.504078
0.486953
0.45939
0.431535
0.427948
0.45556
0.491489
0.519857
0.539252
0.546407
0.539951
0.524993
0.508601
0.494508
0.484493
0.482655
0.491443
0.506631
0.518685
0.515435
0.489588
0.455059
0.449205
0.486689
0.523717
0.528592
0.520327
0.521295
0.52795
0.518173
0.495744
0.490521
0.504444
0.512896
0.501923
0.494714
0.5002
0.499286
0.491427
0.483174
0.478944
0.483921
0.489024
0.488586
0.496258
0.515873
0.534817
0.547317
0.555004
0.554429
0.541445
0.518637
0.496379
0.486608
0.489533
0.494135
0.496678
0.50346
0.516694
0.528535
0.524522
0.497838
0.466446
0.460828
0.486418
0.516273
0.526633
0.522983
0.528082
0.548743
0.566074
0.559482
0.534458
0.514278
0.510696
0.519176
0.526803
0.527808
0.524706
0.52126
0.520291
0.524053
0.525449
0.511053
0.485294
0.473381
0.485438
0.493099
0.468499
0.431721
0.404998
0.417663
0.489061
0.551986
0.575053
0.560507
0.526173
0.496847
0.490355
0.508802
0.53618
0.549193
0.536941
0.509855
0.488106
0.482642
0.490959
0.507232
0.526732
0.540359
0.537984
0.522676
0.51454
0.528237
0.550609
0.55386
0.528974
0.495764
0.476964
0.476248
0.48725
0.499791
0.501025
0.489255
0.477024
0.480284
0.506006
0.537559
0.544187
0.523088
0.50316
0.498755
0.496846
0.484378
0.46913
0.46993
0.484861
0.497267
0.507092
0.527394
0.554757
0.569655
0.574367
0.582919
0.587241
0.568589
0.541298
0.536524
0.546734
0.548195
0.542143
0.526392
0.495926
0.472112
0.477625
0.504714
0.531178
0.548384
0.546154
0.533095
0.528711
0.53582
0.550142
0.56531
0.564959
0.534016
0.514093
0.528313
0.542734
0.529584
0.500123
0.493486
0.521013
0.562095
0.574288
0.540135
0.523353
0.560599
0.57468
0.519823
0.466901
0.502216
0.489489
0.455172
0.469895
0.465567
0.530715
0.504631
0.49275
0.498849
0.526634
0.537616
0.443705
0.472467
0.541194
0.580744
0.493995
0.418873
0.490799
0.495502
0.440013
0.427488
0.484709
0.363951
0.47543
0.450994
0.49038
0.470264
0.430764
0.467416
0.456504
0.487207
0.568116
0.517627
0.456638
0.545522
0.530428
0.51743
0.50157
0.529083
0.485617
0.480694
0.528683
0.473772
0.478186
0.533267
0.507498
0.499751
0.520146
0.523582
0.499409
0.450019
0.503021
0.541745
0.525515
0.523057
0.412172
0.432722
0.485591
0.542925
0.526942
0.504836
0.50622
0.518757
0.51431
0.540843
0.48683
0.48714
0.533516
0.521996
0.457922
0.491872
0.526322
0.494066
0.486252
0.4876
0.457478
0.447222
0.48254
0.486948
0.470649
0.466261
0.462196
0.471834
0.47096
0.441871
0.469429
0.498956
0.489203
0.490711
0.52173
0.525886
0.491364
0.5125
0.558947
0.568516
0.524923
0.458781
0.461786
0.499853
0.517294
0.516159
0.513937
0.512502
0.4772
0.479642
0.488569
0.518228
0.548278
0.544624
0.518857
0.519185
0.496057