/*--------------------------------*- C++ -*----------------------------------*\
  =========                 |
  \\      /  F ield         | OpenFOAM: The Open Source CFD Toolbox
   \\    /   O peration     | Website:  https://openfoam.org
    \\  /    A nd           | Version:  7
     \\/     M anipulation  |
\*---------------------------------------------------------------------------*/
FoamFile
{
    version     2.0;
    format      ascii;
    class       volScalarField;
    location    "5500";
    object      k1Write;
}
// * * * * * * * * * * * * * * * * * * * * * * * * * * * * * * * * * * * * * //

dimensions      [0 2 0 0 0 0 0];

internalField   nonuniform List<scalar> 
160000
(
1.55401e-18
2.18678e-18
1.58622e-18
2.34316e-18
2.99538e-18
1.4663e-18
3.31301e-18
1.65897e-18
2.06168e-18
4.04322e-18
2.89222e-18
1.90293e-18
3.56533e-18
3.29373e-18
1.134e-18
1.8034e-18
1.34213e-18
1.44722e-18
3.06209e-18
2.82414e-18
2.3815e-18
1.77186e-18
2.24795e-18
3.4588e-18
2.82919e-18
3.44253e-18
3.46173e-18
2.15407e-18
2.57069e-18
1.44767e-18
1.56879e-18
2.73659e-18
5.91362e-18
2.87209e-18
2.41735e-18
2.78278e-18
3.13447e-18
4.50025e-18
1.2814e-18
2.30859e-18
2.34349e-18
2.31942e-18
2.716e-18
1.45868e-18
2.72922e-18
2.64184e-18
2.68414e-18
1.5558e-18
2.90328e-18
1.70979e-18
2.13237e-18
4.37056e-18
2.80401e-18
2.09256e-18
3.78997e-18
1.34988e-18
4.29201e-18
1.26047e-18
9.95022e-19
1.55604e-18
6.7241e-18
2.00083e-18
1.87633e-18
1.45919e-18
1.10187e-18
4.13486e-18
2.75747e-18
3.36824e-18
8.72421e-19
3.75068e-19
3.25844e-18
1.07156e-18
2.79019e-18
1.38872e-18
2.56969e-18
2.20518e-18
3.02953e-18
2.00191e-18
3.89102e-18
2.32375e-18
4.30454e-18
5.55431e-18
2.83901e-18
2.081e-18
1.93845e-18
1.69599e-18
1.66049e-18
1.08063e-18
1.67676e-18
2.64971e-18
1.07059e-18
3.58428e-18
4.31429e-18
3.53511e-18
2.35895e-18
1.14825e-18
2.0428e-18
1.6657e-18
1.72706e-18
1.13542e-18
2.0125e-18
8.01688e-19
2.9969e-18
1.62226e-18
9.36893e-19
2.15198e-18
8.69033e-19
2.101e-18
2.56282e-18
2.68707e-18
3.60276e-18
1.29436e-18
3.73754e-18
1.85536e-18
1.48494e-18
2.02462e-18
1.19261e-18
1.70851e-18
3.31844e-18
2.64022e-18
1.99932e-18
1.36533e-18
2.46232e-18
2.99481e-18
3.80104e-18
6.03229e-18
4.26555e-18
1.82616e-18
2.38373e-18
2.45877e-18
1.71801e-18
1.30796e-18
2.37873e-18
4.76913e-18
2.68806e-18
2.15535e-18
1.33571e-18
1.79343e-18
1.14903e-18
7.91629e-19
2.30729e-18
2.91984e-18
6.01138e-19
2.21209e-18
4.30789e-18
2.18315e-18
2.34542e-18
2.18608e-18
1.98436e-18
1.2092e-18
8.65526e-19
1.44987e-18
9.31678e-19
2.1974e-18
7.74041e-19
1.84401e-18
1.91709e-18
3.74789e-18
2.42271e-18
2.67928e-18
1.38758e-18
1.67926e-18
1.30283e-18
2.95329e-18
8.52939e-19
2.18086e-18
2.09005e-18
1.08846e-18
1.49211e-18
1.05012e-18
3.37554e-18
5.4007e-18
2.12541e-18
5.5287e-18
2.9465e-18
1.30884e-18
1.83569e-18
2.14337e-18
4.80303e-18
3.98045e-18
9.62443e-19
3.19145e-18
1.30234e-18
8.49574e-19
9.23748e-19
1.04744e-18
1.26863e-18
1.09382e-18
6.06433e-19
1.14268e-18
1.61794e-18
1.1316e-18
1.49451e-18
2.82086e-18
3.57253e-18
6.20697e-19
1.06945e-18
6.41699e-18
1.61323e-17
1.03622e-17
5.70841e-18
3.13338e-18
1.72522e-18
1.04683e-18
1.2522e-18
2.34717e-18
2.74171e-18
2.1966e-18
1.66659e-18
1.57565e-18
1.71351e-18
1.64643e-18
1.3571e-18
1.39354e-18
1.67396e-18
1.44681e-18
1.23462e-18
2.28732e-18
5.96322e-18
7.31712e-18
5.46085e-18
2.43809e-18
7.17158e-19
4.91117e-19
6.32727e-19
9.5257e-19
1.70658e-18
7.14665e-19
1.80804e-18
1.43646e-18
4.91799e-19
1.31876e-18
9.60413e-19
1.75657e-18
1.68655e-18
2.01812e-18
1.04151e-18
1.94281e-18
1.04293e-18
1.78074e-18
1.27224e-18
8.74286e-19
1.3069e-18
9.35306e-19
1.24792e-18
8.29862e-19
9.60672e-19
1.15201e-18
7.26279e-18
9.01828e-18
6.03205e-18
3.27915e-18
1.65481e-18
9.76368e-19
8.49331e-19
1.33324e-18
1.12861e-18
5.79505e-19
1.33018e-18
8.90771e-18
1.2551e-17
3.70863e-18
1.23691e-18
5.61573e-19
7.93159e-19
2.03113e-18
1.90259e-18
6.33472e-19
1.10564e-18
4.06835e-18
1.99341e-18
1.30476e-18
1.91664e-18
1.54503e-18
8.94911e-19
5.5256e-19
1.24503e-18
3.95338e-18
2.2648e-18
1.53582e-18
9.81714e-19
9.98719e-19
1.29582e-18
1.76645e-18
1.90371e-18
2.24841e-18
2.8952e-18
1.66654e-18
1.73312e-18
2.16778e-18
1.82994e-18
5.09134e-19
1.08597e-18
1.63142e-18
2.00898e-18
2.26255e-18
2.53156e-18
4.22717e-19
8.47591e-19
4.1542e-19
1.29311e-18
6.9818e-18
2.45289e-17
1.51267e-17
7.86433e-18
4.30744e-18
2.86616e-18
2.0204e-18
1.4794e-18
1.22576e-18
1.16782e-18
8.98473e-19
8.57479e-19
1.6679e-18
3.44727e-18
5.99215e-18
4.88856e-18
1.72398e-18
7.10264e-19
6.36099e-19
4.30526e-19
3.95464e-19
4.01971e-19
1.53893e-18
3.55305e-18
3.60036e-18
3.56058e-18
3.91632e-18
3.71636e-18
2.81007e-18
1.98126e-18
2.02129e-18
2.06348e-18
1.8671e-18
1.82551e-18
1.59684e-18
1.21887e-18
1.66901e-18
3.73508e-18
2.9193e-18
9.02056e-19
8.9565e-19
1.26768e-18
9.74602e-19
2.23854e-18
1.63586e-18
1.92355e-18
3.60086e-18
5.02957e-18
3.83775e-18
2.49757e-18
1.41678e-18
1.22307e-18
1.24575e-18
1.72821e-18
1.84154e-18
2.28524e-18
2.35039e-18
2.1463e-18
1.32902e-18
9.74466e-19
8.53814e-19
1.25674e-18
1.10403e-18
2.30378e-18
2.95597e-18
1.98969e-18
4.9088e-18
5.00685e-18
2.60707e-18
1.71821e-18
2.06279e-18
2.16467e-18
4.58984e-18
1.75039e-18
3.06767e-18
1.37995e-18
1.20568e-18
8.95628e-19
1.06379e-18
1.34763e-18
1.31501e-18
1.15138e-18
2.01145e-18
2.35945e-18
2.44462e-18
2.9056e-18
2.6215e-18
1.73154e-18
1.28411e-18
1.63552e-18
1.12677e-18
1.72043e-18
1.27654e-18
6.32315e-19
2.25969e-18
2.05449e-18
6.3339e-19
5.41495e-18
3.35998e-18
5.36484e-18
1.21e-18
2.39373e-18
1.47642e-18
1.21577e-18
1.60183e-18
2.67789e-18
2.0506e-18
2.23233e-18
2.63978e-18
3.03943e-18
1.80959e-18
2.08364e-18
2.54447e-18
3.7923e-18
1.58167e-18
1.77302e-18
5.33997e-18
4.63909e-18
2.98033e-18
1.75109e-18
2.04591e-18
3.51279e-18
3.28978e-18
1.27173e-18
1.97818e-18
5.44161e-18
4.34056e-18
2.22698e-18
3.75479e-18
2.7603e-18
1.86126e-18
2.47123e-18
1.901e-18
1.38576e-18
3.12111e-18
4.14589e-18
5.07985e-19
2.79823e-18
5.02593e-18
2.45227e-18
1.64704e-18
2.82103e-18
1.1432e-18
2.74689e-18
4.12133e-18
1.97982e-18
1.21032e-18
2.7673e-18
4.34581e-18
1.84937e-18
2.14955e-18
1.95449e-18
5.51698e-18
1.01096e-18
2.28121e-18
3.04909e-18
1.44699e-18
1.76765e-18
1.84133e-18
2.01809e-18
2.58779e-18
1.47598e-18
1.3473e-18
2.26084e-18
1.88196e-18
1.14876e-18
3.34897e-18
3.25343e-18
4.90127e-18
4.18995e-18
2.54961e-18
1.03809e-18
1.75104e-18
1.87097e-18
2.80276e-18
1.82827e-18
1.77591e-18
1.62431e-18
3.25296e-18
2.97642e-18
2.18709e-18
2.22167e-18
2.35939e-18
5.38768e-18
4.7252e-18
1.42273e-18
1.67468e-18
1.97686e-18
2.88805e-18
3.52484e-18
2.6735e-18
4.83746e-18
3.14858e-18
1.46082e-18
2.37282e-18
2.14064e-18
2.62936e-18
2.24169e-18
1.37848e-18
2.72277e-18
1.94716e-18
1.12193e-18
4.2246e-18
2.37401e-18
1.32561e-18
3.05395e-18
3.88625e-18
2.68018e-18
2.93838e-18
2.29355e-18
1.10265e-18
1.34317e-18
1.28926e-18
1.60812e-18
1.78815e-18
1.82334e-18
2.21787e-18
2.853e-18
4.98148e-18
4.25448e-18
2.21211e-18
2.10909e-18
2.10742e-18
1.9829e-18
2.29177e-18
2.08251e-18
1.65346e-18
2.26026e-18
1.72706e-18
1.34452e-18
8.27108e-19
4.09544e-18
5.09291e-18
2.70205e-18
1.33933e-18
4.42349e-18
1.51998e-18
9.55568e-19
1.38759e-18
2.26116e-18
2.94023e-18
2.42533e-18
2.95917e-18
2.92932e-18
1.39332e-18
2.26922e-18
1.75574e-18
1.4393e-18
1.06006e-18
3.36798e-18
9.82288e-19
1.07372e-18
1.6796e-18
1.79479e-18
2.56367e-18
1.5705e-18
2.32469e-18
1.28593e-18
2.22561e-18
2.01776e-18
2.52409e-18
1.94322e-18
1.5865e-18
1.30611e-18
2.17308e-18
3.15425e-18
1.51777e-18
1.88434e-18
1.85676e-18
2.13065e-18
1.89882e-18
1.07852e-18
3.80834e-18
2.05331e-18
2.33456e-18
2.46688e-18
1.85303e-18
2.3245e-18
1.76624e-18
1.53485e-18
2.05745e-18
1.15492e-18
5.43702e-19
1.62143e-18
1.36906e-18
1.25092e-18
4.58189e-19
6.93746e-19
2.01386e-18
4.709e-18
3.5005e-18
2.47786e-18
2.43147e-18
2.05146e-18
2.30892e-18
4.80713e-18
8.53824e-18
1.2147e-17
8.12596e-18
4.85078e-18
2.82877e-18
1.80739e-18
1.65608e-18
2.41571e-18
3.65007e-18
3.54866e-18
2.50115e-18
1.86901e-18
1.70943e-18
1.53807e-18
1.19575e-18
1.0573e-18
1.20229e-18
1.23238e-18
1.10413e-18
1.28738e-18
1.95576e-18
2.23998e-18
1.88417e-18
1.40657e-18
8.27789e-19
5.92539e-19
6.92117e-19
1.05463e-18
1.42395e-18
1.74385e-18
1.14851e-18
1.79079e-18
1.57541e-18
1.76583e-18
2.28736e-18
4.99313e-18
4.19722e-18
1.34147e-18
1.22087e-18
1.86295e-18
1.94911e-18
1.13413e-18
1.36393e-18
9.18095e-19
7.30639e-19
1.62493e-18
1.50101e-18
4.36427e-19
1.15903e-18
1.74826e-18
1.07771e-17
1.72319e-17
1.02197e-17
6.0722e-18
3.54147e-18
2.35555e-18
1.77002e-18
1.41347e-18
1.15755e-18
9.07074e-19
1.19565e-18
3.22679e-18
5.41255e-18
3.14527e-18
1.42297e-18
8.80097e-19
1.03703e-18
1.74064e-18
1.85239e-18
8.02548e-19
8.20723e-19
2.86067e-18
4.87451e-18
1.96154e-18
1.72616e-18
2.00124e-18
1.19225e-18
7.69974e-19
9.39834e-19
2.16249e-18
2.99232e-18
1.62524e-18
1.08298e-18
1.16227e-18
1.47379e-18
2.40098e-18
3.95929e-18
3.40654e-18
2.07405e-18
1.29196e-18
9.58964e-19
9.53224e-19
9.68969e-19
6.85508e-19
1.02327e-18
1.90876e-18
1.97603e-18
5.67508e-19
1.06884e-18
1.63945e-18
8.59335e-19
6.91166e-19
3.52472e-18
7.82931e-18
1.45976e-17
1.22588e-17
5.85432e-18
3.30787e-18
1.94731e-18
1.32153e-18
1.07915e-18
9.80803e-19
9.15484e-19
8.92679e-19
9.61167e-19
1.30924e-18
2.37744e-18
3.30178e-18
2.51826e-18
1.31559e-18
6.87161e-19
5.3285e-19
5.4071e-19
4.61357e-19
5.17121e-19
1.47798e-18
8.53444e-18
1.32921e-17
7.04491e-18
4.2355e-18
3.45848e-18
2.96134e-18
2.03476e-18
1.49006e-18
1.49496e-18
1.4491e-18
1.52529e-18
1.67765e-18
1.47727e-18
1.27515e-18
1.56238e-18
1.64642e-18
1.16234e-18
1.06471e-18
1.59324e-18
1.73992e-18
1.50821e-18
1.90152e-18
2.26582e-18
2.4548e-18
3.00108e-18
2.47043e-18
1.91297e-18
1.29052e-18
9.4502e-19
9.45582e-19
1.41035e-18
1.45686e-18
1.0851e-18
9.95297e-19
1.10602e-18
1.26674e-18
1.2397e-18
1.16661e-18
1.2473e-18
1.29414e-18
1.62471e-18
3.77607e-18
3.71408e-18
3.33124e-18
3.47956e-18
1.79886e-18
9.91709e-19
9.81665e-19
8.95949e-19
1.10848e-18
9.68312e-19
1.27567e-18
9.58467e-19
1.20928e-18
1.64464e-18
1.04044e-18
1.50552e-18
2.72259e-18
7.65158e-19
3.11154e-18
1.80981e-18
8.00509e-19
2.03296e-18
1.45569e-18
9.41373e-19
1.33428e-18
2.2296e-18
1.05919e-18
1.56488e-18
2.22085e-18
1.11976e-18
7.30503e-19
2.28738e-18
6.27811e-19
1.69824e-18
9.71067e-19
2.94045e-18
9.58661e-19
7.96174e-19
3.28378e-18
1.21443e-18
4.20721e-18
9.88632e-19
2.11033e-18
3.7099e-18
1.43953e-18
3.63199e-18
5.78192e-18
3.13747e-18
1.88705e-18
3.73354e-18
6.20998e-18
3.1044e-18
6.4312e-18
4.12122e-18
1.81e-18
3.34992e-18
2.10829e-18
2.67409e-18
1.71803e-18
1.24116e-18
1.39167e-18
1.91225e-18
2.28685e-18
2.50332e-18
5.91878e-18
2.46989e-18
1.88457e-18
2.80078e-18
2.94295e-18
3.15034e-18
1.21019e-18
1.746e-18
2.42306e-18
1.63211e-18
1.61242e-18
1.85707e-18
2.29698e-18
2.20272e-18
2.26802e-18
2.16015e-18
5.51204e-18
1.61533e-18
1.16017e-18
1.27264e-18
2.68462e-18
5.24474e-18
2.29702e-18
1.30297e-18
1.37239e-18
1.91589e-18
2.40641e-18
2.68304e-18
4.79581e-18
4.19748e-18
5.53792e-18
1.77853e-18
1.51038e-18
1.89092e-18
3.15069e-18
1.23744e-18
1.54526e-18
3.08932e-18
1.30597e-18
1.10782e-18
7.74185e-19
1.64069e-18
8.75204e-19
2.62332e-18
2.05532e-18
8.4396e-19
1.23639e-18
2.0087e-18
2.08374e-18
2.94571e-18
4.044e-18
2.30112e-18
3.20026e-18
3.63244e-18
3.18467e-18
1.52606e-18
2.38027e-18
1.68758e-18
2.99903e-18
2.96066e-18
1.41281e-18
1.21555e-18
2.45195e-18
1.40122e-18
9.77455e-19
1.59631e-18
8.08192e-19
6.9109e-19
1.30774e-18
1.61673e-18
1.75681e-18
1.33057e-18
1.3375e-18
2.52381e-18
1.53034e-18
2.0962e-18
3.14099e-18
2.28833e-18
1.93128e-18
1.28003e-18
2.03903e-18
2.81503e-18
1.83452e-18
1.93312e-18
1.45414e-18
1.08217e-18
1.84708e-18
1.58366e-18
1.77919e-18
2.19534e-18
2.11208e-18
1.73456e-18
1.21101e-18
1.27474e-18
1.53562e-18
1.34628e-18
1.27479e-18
1.2572e-18
1.13951e-18
1.59481e-18
1.58385e-18
1.1606e-18
1.69337e-18
3.26041e-18
3.33177e-18
2.2317e-18
1.96683e-18
1.6658e-18
2.08628e-18
2.14199e-18
1.46161e-18
1.56805e-18
3.03116e-18
5.08878e-18
2.58744e-18
2.41761e-18
3.03511e-18
1.82015e-18
1.75125e-18
1.98728e-18
1.73406e-18
1.38864e-18
2.10417e-18
1.3941e-18
1.81629e-18
4.15269e-18
3.35596e-18
1.2766e-18
1.99973e-18
1.82372e-18
1.48016e-18
1.33283e-18
1.00014e-18
1.87407e-18
1.78621e-18
1.8785e-18
1.788e-18
1.83928e-18
1.70722e-18
1.31181e-18
1.96678e-18
3.25995e-18
3.22612e-18
3.04043e-18
2.27937e-18
1.3479e-18
7.37018e-19
1.63861e-18
2.9134e-18
2.43135e-18
1.42245e-18
1.59994e-18
1.25972e-18
8.5278e-19
1.00306e-18
1.34239e-18
8.90871e-19
7.61939e-19
7.18375e-19
1.15924e-18
2.34646e-18
7.90044e-18
5.98679e-18
3.78732e-18
2.94044e-18
2.54713e-18
2.31338e-18
2.1645e-18
2.56198e-18
3.2755e-18
4.19874e-18
3.51617e-18
2.35151e-18
1.60826e-18
1.53465e-18
1.87656e-18
2.19181e-18
2.1935e-18
1.86452e-18
1.53384e-18
1.43598e-18
1.26861e-18
1.04055e-18
8.86262e-19
9.87976e-19
1.03196e-18
9.83741e-19
1.0504e-18
1.30424e-18
1.3167e-18
1.00226e-18
7.95403e-19
1.03185e-18
1.45515e-18
1.57309e-18
1.55306e-18
1.61152e-18
1.44104e-18
1.10442e-18
1.29956e-18
2.06888e-18
1.63528e-18
1.38247e-18
2.15788e-18
2.40598e-18
1.20093e-18
1.22286e-18
1.69582e-18
1.11972e-18
8.77787e-19
1.13721e-18
2.02723e-18
2.3606e-18
1.68255e-18
1.39983e-18
6.84184e-19
9.21907e-19
1.37411e-18
4.42402e-18
1.41249e-17
9.76297e-18
4.92822e-18
2.51664e-18
1.72577e-18
1.43913e-18
1.17607e-18
9.7713e-19
8.77686e-19
9.18338e-19
1.18314e-18
1.72639e-18
1.74779e-18
1.28671e-18
1.05025e-18
1.27806e-18
1.65001e-18
1.70639e-18
1.25314e-18
1.04573e-18
1.51566e-18
2.33371e-18
1.61952e-18
1.18729e-18
1.60097e-18
1.99446e-18
1.75657e-18
1.5289e-18
1.51924e-18
2.22808e-18
2.32586e-18
1.75726e-18
1.91456e-18
2.43021e-18
2.79516e-18
2.49869e-18
1.71671e-18
1.08638e-18
9.36496e-19
1.03925e-18
1.12217e-18
1.18579e-18
1.15399e-18
9.54384e-19
6.69941e-19
4.36017e-19
4.52365e-19
9.81996e-19
3.08479e-18
1.98337e-18
1.01797e-18
2.84932e-18
6.04848e-18
1.2226e-17
7.66835e-18
3.66081e-18
2.17118e-18
1.61657e-18
1.50076e-18
1.44766e-18
1.30903e-18
1.05359e-18
9.63661e-19
1.09522e-18
1.28551e-18
1.46735e-18
1.66495e-18
1.43136e-18
9.22476e-19
6.87191e-19
8.40465e-19
1.04009e-18
8.78039e-19
9.02754e-19
1.96535e-18
6.80039e-18
8.22757e-18
5.14886e-18
2.60385e-18
1.78818e-18
1.47156e-18
1.33018e-18
1.22265e-18
1.29407e-18
1.45645e-18
1.37175e-18
1.1326e-18
1.00789e-18
9.46373e-19
1.03169e-18
1.33088e-18
1.52059e-18
1.54603e-18
1.50017e-18
1.36403e-18
1.44811e-18
1.91807e-18
2.35192e-18
2.59277e-18
2.80453e-18
2.45516e-18
1.45671e-18
9.44462e-19
9.59523e-19
1.39178e-18
2.0526e-18
2.18547e-18
1.40716e-18
1.016e-18
1.20356e-18
1.62258e-18
1.31084e-18
7.98806e-19
7.81849e-19
1.25913e-18
2.00692e-18
2.43069e-18
2.68965e-18
1.46382e-18
1.31072e-18
1.5806e-18
1.14039e-18
1.01214e-18
1.55117e-18
2.19267e-18
2.6108e-18
2.41359e-18
2.20967e-18
1.79709e-18
1.52289e-18
9.73316e-19
8.09598e-19
1.33518e-18
9.49705e-19
1.14571e-18
1.68652e-18
2.06965e-18
1.41323e-18
9.40938e-19
1.6756e-18
1.92721e-18
2.08427e-18
1.48634e-18
8.17892e-19
1.83086e-18
1.84473e-18
1.35785e-18
1.80271e-18
1.31898e-18
6.23198e-19
1.77655e-18
2.08559e-18
1.43604e-18
4.55456e-18
4.40833e-18
4.86062e-18
5.33579e-18
5.76947e-18
5.27167e-18
3.43355e-18
5.28956e-18
3.19346e-18
4.30588e-18
1.93008e-18
2.14098e-18
2.30424e-18
1.83242e-18
5.24942e-18
2.99536e-18
4.07641e-18
3.37492e-18
2.73686e-18
2.87834e-18
1.55343e-18
4.92959e-18
1.41538e-18
2.70367e-18
5.41486e-18
1.40867e-18
1.96002e-18
3.12207e-18
1.65141e-18
5.47042e-19
1.12636e-18
1.51494e-18
2.35095e-18
3.00003e-18
3.39782e-18
3.0239e-18
3.19446e-18
8.72072e-19
1.97149e-18
4.88125e-18
4.6916e-18
2.83324e-18
2.30365e-18
2.53413e-18
3.29268e-18
2.34454e-18
2.35725e-18
1.75588e-18
2.08606e-18
1.66726e-18
4.09053e-18
2.61965e-18
9.29224e-19
2.56763e-18
2.01882e-18
1.44542e-18
1.30128e-18
1.8778e-18
1.75302e-18
2.7462e-18
2.17961e-18
3.48185e-18
1.89351e-18
1.42782e-18
1.76957e-18
2.15413e-18
1.88675e-18
1.61255e-18
2.86165e-18
2.68402e-18
9.01206e-19
9.49464e-19
1.39807e-18
3.10564e-18
4.88264e-18
2.97181e-18
1.50852e-18
2.83696e-18
1.64892e-18
8.62214e-19
3.22136e-18
2.45389e-18
1.81433e-18
1.72777e-18
3.79258e-18
3.79502e-18
3.5159e-18
3.53526e-18
2.26405e-18
3.55411e-18
1.51238e-18
2.63724e-18
1.92092e-18
1.62018e-18
1.4125e-18
2.58055e-18
1.09453e-18
1.12044e-18
2.04194e-18
3.33609e-18
1.7367e-18
1.91074e-18
2.27275e-18
2.0669e-18
3.26101e-18
3.71662e-18
2.6206e-18
2.1412e-18
2.35266e-18
2.27156e-18
1.67762e-18
2.73616e-18
1.89731e-18
1.25742e-18
1.51566e-18
2.0502e-18
2.33658e-18
3.03326e-18
2.70762e-18
1.58158e-18
1.44578e-18
1.54665e-18
1.64704e-18
9.94623e-19
2.06957e-18
2.54141e-18
2.35381e-18
1.50552e-18
1.37046e-18
1.66873e-18
1.68814e-18
2.29799e-18
1.82637e-18
1.98461e-18
1.8115e-18
1.43045e-18
2.07326e-18
1.99029e-18
1.67461e-18
2.00419e-18
2.28435e-18
1.11663e-18
1.74164e-18
2.59946e-18
2.89898e-18
3.13522e-18
1.93697e-18
1.44022e-18
1.37212e-18
2.59333e-18
1.68671e-18
1.63488e-18
1.16966e-18
1.20077e-18
1.54898e-18
1.71517e-18
2.79624e-18
2.22995e-18
1.35444e-18
1.83782e-18
1.99064e-18
2.2234e-18
2.50053e-18
2.08909e-18
1.26572e-18
1.37865e-18
1.85092e-18
2.68695e-18
3.81174e-18
5.74547e-18
3.43475e-18
1.83112e-18
2.09918e-18
2.64599e-18
2.1098e-18
2.2744e-18
2.20275e-18
1.30086e-18
1.08777e-18
1.6801e-18
1.65927e-18
6.70357e-19
5.71825e-19
1.03764e-18
1.02162e-18
9.42298e-19
1.04767e-18
3.58941e-18
7.23416e-18
5.93739e-18
4.82045e-18
3.2729e-18
2.87112e-18
2.72741e-18
2.15836e-18
1.55323e-18
1.37217e-18
1.71466e-18
2.32834e-18
2.53922e-18
1.9023e-18
1.18285e-18
1.23184e-18
1.48171e-18
2.12162e-18
2.17266e-18
1.83989e-18
1.64645e-18
1.54985e-18
1.37489e-18
1.23545e-18
1.37184e-18
1.60445e-18
1.63919e-18
1.45297e-18
1.24835e-18
1.06572e-18
9.02729e-19
8.35911e-19
1.00111e-18
1.53348e-18
2.25269e-18
2.79189e-18
2.54547e-18
1.90407e-18
1.50075e-18
1.11552e-18
9.53084e-19
9.53064e-19
1.01148e-18
1.15803e-18
1.11979e-18
7.21842e-19
6.33006e-19
7.80099e-19
1.08798e-18
1.45405e-18
1.62908e-18
1.29754e-18
1.18755e-18
9.91852e-19
7.12126e-19
7.89871e-19
8.1523e-19
1.41797e-18
3.1242e-18
5.59212e-18
9.18992e-18
4.74107e-18
2.19162e-18
1.40317e-18
1.22604e-18
1.12186e-18
9.52689e-19
9.76736e-19
1.17362e-18
1.43637e-18
1.84467e-18
1.80839e-18
1.35496e-18
1.03748e-18
1.11111e-18
1.59756e-18
2.08287e-18
2.18283e-18
1.50661e-18
1.07118e-18
1.28534e-18
1.66921e-18
2.49213e-18
3.19558e-18
3.10205e-18
1.76609e-18
9.12985e-19
7.57595e-19
1.32408e-18
1.95236e-18
2.07999e-18
2.2845e-18
2.14281e-18
1.7902e-18
1.42278e-18
1.1908e-18
1.21138e-18
1.24355e-18
1.06097e-18
9.0819e-19
1.0667e-18
1.4528e-18
1.3534e-18
7.09224e-19
3.76671e-19
4.89441e-19
1.26415e-18
3.29007e-18
3.84e-18
5.09577e-18
4.74738e-18
5.40953e-18
5.53235e-18
3.72001e-18
2.01339e-18
1.76318e-18
1.86752e-18
2.23125e-18
2.17805e-18
1.88994e-18
1.65079e-18
1.45353e-18
1.41269e-18
1.405e-18
1.29836e-18
1.34595e-18
1.42329e-18
1.44801e-18
1.17959e-18
9.45483e-19
7.29252e-19
6.76501e-19
1.06351e-18
1.65747e-18
3.13804e-18
3.55407e-18
2.70974e-18
1.69858e-18
1.15836e-18
9.67516e-19
1.02011e-18
1.25966e-18
1.43377e-18
1.2993e-18
1.13368e-18
1.11355e-18
1.29897e-18
1.6685e-18
2.09383e-18
2.92361e-18
3.62073e-18
3.49723e-18
2.38858e-18
1.63098e-18
1.25067e-18
1.16967e-18
1.51029e-18
2.14909e-18
2.83004e-18
1.83973e-18
1.19401e-18
9.34426e-19
8.51662e-19
8.62733e-19
9.24412e-19
1.02876e-18
1.2416e-18
1.29794e-18
1.29025e-18
1.1966e-18
1.21471e-18
1.42773e-18
1.78438e-18
1.77659e-18
1.64129e-18
1.51998e-18
1.3494e-18
1.53831e-18
1.02831e-18
8.27367e-19
9.83931e-19
1.16066e-18
1.46027e-18
1.67306e-18
1.4019e-18
1.66251e-18
1.7364e-18
1.74016e-18
1.72733e-18
1.03727e-18
6.20885e-19
9.9483e-19
1.69152e-18
1.46509e-18
6.70463e-19
2.16263e-18
3.01726e-18
1.95293e-18
1.16837e-18
1.38684e-18
1.97841e-18
1.06439e-18
1.94552e-18
1.39656e-18
8.01297e-19
5.63251e-19
1.11153e-18
8.98913e-19
7.84466e-19
7.36369e-19
1.26595e-18
2.226e-18
2.87498e-18
3.67225e-18
4.31906e-18
5.25762e-18
2.78123e-18
2.39859e-18
2.22481e-18
1.33944e-18
3.04651e-18
2.49737e-18
1.36282e-18
1.53488e-18
5.34092e-19
4.2372e-18
6.35118e-18
1.80926e-18
1.20406e-18
3.48836e-18
3.28608e-18
4.92316e-18
5.74401e-18
1.97237e-18
1.57209e-18
1.0126e-18
1.61903e-18
1.57768e-18
9.01507e-19
2.73518e-18
3.89132e-18
2.06476e-18
3.36632e-18
2.6568e-18
1.38569e-18
2.46158e-18
3.97253e-18
2.07255e-18
9.2464e-19
1.50673e-18
2.34097e-18
4.64059e-18
3.38507e-18
2.00395e-18
3.74627e-18
1.95097e-18
1.37502e-18
1.59257e-18
2.25054e-18
1.74078e-18
3.36615e-18
5.48143e-18
2.46604e-18
2.57934e-18
2.4785e-18
1.92472e-18
1.42486e-18
2.09018e-18
2.27093e-18
1.42322e-18
2.37178e-18
2.16337e-18
1.24032e-18
1.62546e-18
1.81945e-18
1.94409e-18
1.29586e-18
1.73521e-18
3.38125e-18
2.85833e-18
2.18668e-18
1.55741e-18
1.88053e-18
1.14548e-18
1.27674e-18
2.24962e-18
2.19335e-18
3.36913e-18
3.52895e-18
1.94075e-18
2.21649e-18
2.62614e-18
4.01594e-18
1.34527e-18
1.61523e-18
1.95233e-18
1.82985e-18
2.56241e-18
3.03212e-18
2.02153e-18
1.95343e-18
1.88385e-18
1.84009e-18
1.53336e-18
1.4023e-18
1.79585e-18
1.64361e-18
1.50648e-18
2.56609e-18
2.22643e-18
1.53397e-18
1.58294e-18
3.28054e-18
3.65115e-18
1.58041e-18
1.04367e-18
2.26239e-18
2.2453e-18
2.90488e-18
3.17379e-18
2.10631e-18
2.14462e-18
2.01185e-18
1.57701e-18
1.97591e-18
3.71215e-18
4.44249e-18
2.46496e-18
1.06531e-18
1.59423e-18
3.1788e-18
2.09375e-18
1.61549e-18
2.02582e-18
1.6363e-18
1.69778e-18
2.10497e-18
3.01776e-18
1.93873e-18
1.16456e-18
1.25374e-18
1.57272e-18
1.91963e-18
1.7986e-18
2.78965e-18
2.7714e-18
2.37934e-18
1.35817e-18
1.34195e-18
1.06887e-18
1.45643e-18
2.30911e-18
3.01495e-18
2.81794e-18
2.51412e-18
2.86675e-18
1.81246e-18
2.18603e-18
2.33244e-18
1.42508e-18
1.31497e-18
1.7442e-18
1.55715e-18
1.41586e-18
1.6866e-18
2.27241e-18
2.73516e-18
2.73283e-18
2.94209e-18
2.32233e-18
1.14968e-18
9.61473e-19
1.74793e-18
2.28705e-18
2.34221e-18
2.27044e-18
1.59566e-18
1.15706e-18
1.67396e-18
3.86765e-18
2.65275e-18
2.17068e-18
2.10763e-18
1.82363e-18
1.94524e-18
1.73457e-18
1.48639e-18
2.01757e-18
1.98977e-18
1.74968e-18
1.56717e-18
1.40909e-18
1.46257e-18
1.77164e-18
1.8028e-18
1.11499e-18
6.82678e-19
7.55187e-19
3.63972e-18
9.5558e-18
8.95807e-18
6.46302e-18
4.42031e-18
2.6022e-18
2.05513e-18
1.83843e-18
1.58331e-18
1.22829e-18
1.00871e-18
1.26872e-18
2.33931e-18
3.04713e-18
3.04246e-18
2.52207e-18
1.54938e-18
1.58941e-18
1.75044e-18
1.7124e-18
2.096e-18
1.68352e-18
1.48538e-18
1.60049e-18
1.95638e-18
2.4689e-18
3.00652e-18
2.66791e-18
1.91551e-18
1.39842e-18
1.13668e-18
1.14321e-18
1.30811e-18
1.50335e-18
1.69383e-18
1.87748e-18
1.92334e-18
2.14629e-18
2.11874e-18
1.5312e-18
1.0879e-18
1.00795e-18
1.12461e-18
1.30311e-18
1.32893e-18
1.38964e-18
1.14148e-18
8.935e-19
1.09485e-18
1.09418e-18
1.29681e-18
1.12547e-18
8.55202e-19
8.42451e-19
1.3488e-18
1.85491e-18
1.65805e-18
1.35021e-18
1.67471e-18
3.84496e-18
6.93708e-18
7.63338e-18
5.21609e-18
2.56005e-18
1.4394e-18
1.04247e-18
1.00199e-18
1.05166e-18
1.13266e-18
1.31331e-18
1.60887e-18
1.78553e-18
1.76803e-18
1.56736e-18
1.2071e-18
9.37279e-19
9.13606e-19
1.13762e-18
1.53566e-18
1.65194e-18
1.64717e-18
2.18052e-18
2.76501e-18
2.98927e-18
2.12149e-18
1.96143e-18
1.4205e-18
9.6114e-19
1.01042e-18
1.69316e-18
2.48024e-18
3.38172e-18
2.80066e-18
1.99857e-18
1.4558e-18
1.16336e-18
1.10821e-18
1.12769e-18
1.00875e-18
9.48747e-19
1.23728e-18
1.68231e-18
1.73234e-18
1.29737e-18
8.06754e-19
4.56395e-19
4.1304e-19
1.01033e-18
3.39168e-18
8.47208e-18
7.82085e-18
5.21254e-18
3.54547e-18
2.92209e-18
2.16914e-18
1.6269e-18
1.43695e-18
1.72525e-18
1.84957e-18
2.47548e-18
1.89604e-18
1.3991e-18
1.06448e-18
1.02631e-18
1.33275e-18
1.7824e-18
2.37199e-18
2.99552e-18
2.96728e-18
2.51605e-18
1.84841e-18
1.42884e-18
1.39503e-18
1.62583e-18
2.37903e-18
3.80102e-18
4.13665e-18
3.13929e-18
2.00286e-18
1.29372e-18
9.50513e-19
1.05743e-18
1.36387e-18
1.91283e-18
1.83595e-18
1.39647e-18
1.23023e-18
1.30126e-18
1.64149e-18
1.41481e-18
1.28761e-18
1.44449e-18
1.98885e-18
2.31781e-18
1.6906e-18
1.4989e-18
2.02252e-18
2.77261e-18
2.65113e-18
1.87968e-18
1.22208e-18
9.3315e-19
8.52201e-19
8.24026e-19
8.2084e-19
1.04899e-18
1.44864e-18
1.70609e-18
1.51563e-18
1.27063e-18
1.17048e-18
1.3042e-18
1.39146e-18
1.31414e-18
1.33687e-18
1.32452e-18
1.51475e-18
1.63253e-18
1.81008e-18
2.12736e-18
2.29633e-18
2.17888e-18
1.38554e-18
1.37162e-18
1.13345e-18
1.14414e-18
1.60708e-18
1.80113e-18
1.2017e-18
6.16798e-19
6.56184e-19
1.32599e-18
1.0804e-18
1.25852e-18
1.83477e-18
1.95511e-18
1.82787e-18
2.61468e-18
2.28934e-18
9.54543e-19
8.92042e-19
1.51118e-18
3.02944e-18
2.13938e-18
1.45433e-18
1.73387e-18
1.61731e-18
1.99589e-18
9.06061e-19
4.40697e-19
1.07915e-18
1.2937e-18
1.78991e-18
4.13146e-19
2.41303e-18
1.25615e-18
1.29839e-18
4.68295e-18
3.05194e-18
1.82116e-18
2.82419e-18
1.25066e-18
1.44784e-18
7.6364e-19
1.78102e-18
3.09497e-18
1.64931e-18
4.41817e-18
3.82586e-18
4.39456e-18
5.80537e-18
1.80258e-18
1.9244e-18
2.50891e-18
3.99512e-18
3.60569e-18
4.19863e-18
2.01061e-18
9.88263e-19
1.66747e-18
1.67598e-18
7.45797e-19
1.6695e-18
1.27138e-18
5.05743e-18
2.26143e-18
2.3329e-18
2.65461e-18
2.78738e-18
2.89949e-18
1.49658e-18
1.5923e-18
2.35399e-18
3.34565e-18
3.81201e-18
2.57188e-18
2.6625e-18
1.517e-18
1.60792e-18
2.28275e-18
2.31161e-18
1.97665e-18
2.08592e-18
2.79117e-18
5.2088e-18
2.92746e-18
1.50419e-18
2.40143e-18
2.4871e-18
1.67317e-18
2.35468e-18
2.78259e-18
2.03496e-18
1.55868e-18
1.98113e-18
1.60596e-18
1.41868e-18
2.83044e-18
1.857e-18
2.96697e-18
5.31795e-18
3.35185e-18
1.84768e-18
2.56447e-18
3.35533e-18
2.80514e-18
4.14625e-18
3.60934e-18
1.92709e-18
2.35175e-18
4.14526e-18
2.61405e-18
1.85127e-18
1.44023e-18
1.5305e-18
2.34076e-18
2.29882e-18
1.71237e-18
1.8964e-18
2.74624e-18
3.01886e-18
3.09287e-18
4.73264e-18
3.55261e-18
2.15176e-18
1.3783e-18
2.38789e-18
3.18519e-18
1.83622e-18
1.56585e-18
1.60952e-18
8.28889e-19
1.09495e-18
1.63386e-18
1.08981e-18
1.45553e-18
1.51176e-18
2.31553e-18
2.36866e-18
1.70907e-18
1.57952e-18
1.41066e-18
2.34203e-18
3.31051e-18
2.95356e-18
1.71352e-18
1.18941e-18
1.3417e-18
1.93982e-18
1.57128e-18
1.15297e-18
1.15385e-18
1.52173e-18
2.89641e-18
2.59841e-18
2.39395e-18
3.07706e-18
2.37262e-18
3.27544e-18
2.79772e-18
2.26826e-18
2.52602e-18
2.41161e-18
2.18767e-18
2.29804e-18
2.85484e-18
2.99903e-18
1.83738e-18
1.44931e-18
1.50151e-18
2.09905e-18
1.44681e-18
1.4884e-18
1.88268e-18
2.12828e-18
1.90507e-18
2.00637e-18
2.88804e-18
2.73747e-18
1.78435e-18
1.73753e-18
2.51866e-18
2.7445e-18
2.06995e-18
1.39569e-18
1.39131e-18
1.64179e-18
2.07594e-18
1.77832e-18
1.99537e-18
1.45037e-18
1.29886e-18
1.67993e-18
2.01315e-18
2.8188e-18
2.88525e-18
2.93475e-18
2.24313e-18
2.35224e-18
2.186e-18
2.05109e-18
2.04349e-18
1.09551e-18
8.89096e-19
1.09651e-18
1.11313e-18
1.22745e-18
2.14695e-18
2.51616e-18
1.98268e-18
1.60164e-18
1.90638e-18
1.80512e-18
2.01047e-18
2.65664e-18
1.94398e-18
8.96314e-19
4.72775e-19
6.05739e-19
3.7785e-18
1.16982e-17
8.78255e-18
6.47254e-18
3.87286e-18
2.21765e-18
1.76142e-18
1.77224e-18
1.76787e-18
1.7145e-18
1.60317e-18
1.52496e-18
1.87239e-18
2.515e-18
2.98184e-18
2.95311e-18
2.55184e-18
1.58354e-18
1.55911e-18
1.65734e-18
1.67891e-18
2.07478e-18
1.82914e-18
1.72644e-18
1.83863e-18
2.04713e-18
2.25055e-18
2.40997e-18
2.11778e-18
1.78962e-18
1.60583e-18
1.51815e-18
1.5678e-18
1.68991e-18
1.6086e-18
1.21304e-18
9.50544e-19
9.02621e-19
1.20802e-18
1.59856e-18
1.48272e-18
1.15536e-18
1.08355e-18
1.30781e-18
1.587e-18
1.46625e-18
9.90314e-19
7.57629e-19
9.10669e-19
1.616e-18
1.09012e-18
9.07624e-19
8.11134e-19
8.69136e-19
1.25971e-18
1.60987e-18
1.34316e-18
1.18021e-18
1.7624e-18
3.25799e-18
5.0912e-18
6.03108e-18
4.64432e-18
2.81891e-18
1.81379e-18
1.21786e-18
1.00295e-18
1.10781e-18
1.29769e-18
1.60536e-18
1.69076e-18
1.5706e-18
1.42805e-18
1.28706e-18
1.10039e-18
1.04524e-18
1.34108e-18
1.69744e-18
1.79642e-18
1.77789e-18
1.96174e-18
2.66576e-18
4.11737e-18
3.57675e-18
2.30029e-18
1.78738e-18
1.29613e-18
1.15091e-18
1.16798e-18
1.54462e-18
2.30387e-18
2.80617e-18
3.15256e-18
2.26762e-18
1.59759e-18
1.46096e-18
1.69966e-18
1.9744e-18
2.03053e-18
1.91646e-18
1.77493e-18
1.61666e-18
1.44027e-18
1.27574e-18
1.14046e-18
8.65996e-19
6.32835e-19
8.6535e-19
2.19552e-18
5.8885e-18
6.38941e-18
4.12903e-18
2.61338e-18
2.12189e-18
1.74666e-18
1.14482e-18
1.2289e-18
1.30688e-18
1.55191e-18
1.56371e-18
1.91596e-18
1.68415e-18
1.41935e-18
1.22228e-18
1.49646e-18
2.13134e-18
2.85692e-18
4.06419e-18
4.0837e-18
3.17517e-18
1.95214e-18
1.13679e-18
7.98109e-19
8.85582e-19
1.16356e-18
1.59427e-18
1.78834e-18
1.71552e-18
1.41175e-18
1.12857e-18
1.04468e-18
1.24507e-18
1.46941e-18
1.44302e-18
1.4949e-18
1.52954e-18
1.24651e-18
1.06495e-18
1.04191e-18
1.35906e-18
1.36645e-18
1.39971e-18
1.43179e-18
1.67814e-18
1.64486e-18
1.39514e-18
1.59123e-18
1.72956e-18
1.67558e-18
1.71351e-18
1.95581e-18
1.80778e-18
1.44178e-18
1.15529e-18
1.31369e-18
1.66844e-18
1.74334e-18
1.80335e-18
2.39783e-18
2.2996e-18
1.79008e-18
1.51633e-18
1.44823e-18
1.52345e-18
1.3955e-18
1.12892e-18
1.11992e-18
1.61977e-18
1.84295e-18
2.02632e-18
2.29073e-18
1.93139e-18
1.28582e-18
7.18546e-19
9.51558e-19
1.6693e-18
2.00691e-18
1.78244e-18
1.81743e-18
1.9827e-18
1.82347e-18
1.91692e-18
2.56913e-18
1.57712e-18
1.23755e-18
1.5501e-18
1.85804e-18
1.4939e-18
6.82184e-19
8.88651e-19
7.78343e-19
4.28501e-19
8.54153e-19
1.47745e-18
1.30806e-18
1.76724e-18
1.95454e-18
1.14738e-18
1.5334e-18
7.01102e-19
8.89437e-19
3.03614e-18
4.14748e-18
2.50952e-18
1.52518e-18
2.14884e-18
1.96445e-18
1.82242e-18
2.38518e-18
3.23364e-18
3.79786e-18
8.61049e-18
3.95142e-18
3.11308e-18
1.97323e-18
2.35829e-18
1.57885e-18
3.15686e-18
4.2969e-18
3.2674e-18
2.15588e-18
2.2807e-18
1.48394e-18
2.24605e-18
1.72938e-18
4.88384e-18
7.47103e-18
2.36826e-18
1.56366e-18
1.7931e-18
3.70148e-18
3.7361e-18
1.79355e-18
2.90838e-18
1.86502e-18
3.7921e-18
3.16911e-18
2.93772e-18
1.37744e-18
2.27163e-18
1.66504e-18
3.79148e-18
3.42378e-18
3.40079e-18
1.80412e-18
2.34677e-18
4.32566e-18
3.76976e-18
1.86625e-18
1.85699e-18
2.66309e-18
1.67538e-18
1.31776e-18
1.92158e-18
1.85752e-18
3.11735e-18
3.4445e-18
1.76854e-18
2.54829e-18
3.01649e-18
1.95418e-18
1.95801e-18
2.67368e-18
1.78189e-18
1.61995e-18
1.35955e-18
1.17262e-18
1.95415e-18
3.95583e-18
3.2983e-18