/*--------------------------------*- C++ -*----------------------------------*\
  =========                 |
  \\      /  F ield         | OpenFOAM: The Open Source CFD Toolbox
   \\    /   O peration     | Website:  https://openfoam.org
    \\  /    A nd           | Version:  7
     \\/     M anipulation  |
\*---------------------------------------------------------------------------*/
FoamFile
{
    version     2.0;
    format      ascii;
    class       volScalarField;
    location    "5500";
    object      k2Write;
}
// * * * * * * * * * * * * * * * * * * * * * * * * * * * * * * * * * * * * * //

dimensions      [0 2 0 0 0 0 0];

internalField   nonuniform List<scalar> 
160000
(
1.43433e-18
2.02313e-18
1.70304e-18
2.53569e-18
3.63947e-18
1.72458e-18
2.78365e-18
1.20657e-18
1.85583e-18
3.92855e-18
3.01532e-18
2.07497e-18
3.86457e-18
3.56103e-18
1.22309e-18
1.73969e-18
1.19254e-18
1.26205e-18
2.67679e-18
2.47484e-18
2.13991e-18
2.02291e-18
2.51918e-18
3.45394e-18
2.67032e-18
4.12345e-18
4.29352e-18
2.68509e-18
3.24616e-18
1.83238e-18
1.61707e-18
2.40731e-18
5.21437e-18
2.58326e-18
2.18356e-18
3.2617e-18
3.68101e-18
5.29759e-18
1.51193e-18
2.27702e-18
2.23571e-18
2.21201e-18
3.39523e-18
1.9224e-18
3.61567e-18
3.52885e-18
2.39291e-18
1.35771e-18
2.53923e-18
1.5116e-18
2.7017e-18
6.20401e-18
3.99849e-18
2.99076e-18
5.42924e-18
1.93811e-18
4.46294e-18
1.31358e-18
1.18278e-18
1.86718e-18
7.55858e-18
2.12757e-18
1.99627e-18
1.55575e-18
1.22034e-18
4.48306e-18
2.99161e-18
3.66231e-18
9.51185e-19
5.76301e-19
5.01747e-18
1.65367e-18
4.31509e-18
2.15227e-18
3.19392e-18
2.38615e-18
3.18203e-18
2.13006e-18
4.08848e-18
2.44673e-18
4.49735e-18
5.8023e-18
2.9719e-18
2.38656e-18
2.37231e-18
2.07985e-18
2.04042e-18
1.33048e-18
2.06797e-18
3.27445e-18
1.32586e-18
4.44756e-18
5.36414e-18
4.38805e-18
2.93373e-18
1.47698e-18
2.6325e-18
1.81751e-18
1.88226e-18
1.24117e-18
2.2025e-18
9.51446e-19
3.56335e-18
1.93255e-18
1.26349e-18
2.90749e-18
1.17621e-18
2.84876e-18
3.48114e-18
3.27883e-18
3.85733e-18
1.39772e-18
4.04283e-18
2.01035e-18
1.79946e-18
2.45759e-18
1.57443e-18
2.41055e-18
4.43147e-18
2.76827e-18
2.10756e-18
1.56624e-18
2.82911e-18
3.44662e-18
4.38138e-18
6.87331e-18
4.608e-18
1.97585e-18
2.58303e-18
2.66845e-18
1.86729e-18
1.63182e-18
3.19633e-18
6.41877e-18
3.62353e-18
2.90989e-18
1.7626e-18
2.37007e-18
1.52064e-18
1.06717e-18
3.0833e-18
3.90781e-18
8.24425e-19
3.03805e-18
5.92468e-18
3.00696e-18
3.23464e-18
3.01917e-18
2.37631e-18
1.44994e-18
1.24947e-18
2.09572e-18
1.34845e-18
3.18438e-18
1.13491e-18
2.70707e-18
2.81806e-18
4.88191e-18
3.15953e-18
3.49836e-18
2.02041e-18
2.44244e-18
1.81621e-18
3.7871e-18
1.16497e-18
3.35629e-18
3.22031e-18
1.9079e-18
2.61842e-18
1.84486e-18
5.26447e-18
5.40534e-18
2.12954e-18
5.54515e-18
2.95847e-18
1.76595e-18
2.47932e-18
2.68116e-18
5.68727e-18
4.71764e-18
1.14193e-18
3.79025e-18
1.54824e-18
1.20174e-18
1.37744e-18
1.5547e-18
1.88478e-18
1.69898e-18
1.41828e-18
2.81243e-18
3.03076e-18
1.87981e-18
2.18168e-18
3.55824e-18
4.51001e-18
1.20353e-18
3.01898e-18
1.05899e-17
8.27186e-18
5.31594e-18
2.93163e-18
1.61029e-18
1.34444e-18
1.5833e-18
2.34001e-18
4.38977e-18
4.27074e-18
2.37305e-18
1.80181e-18
1.71064e-18
1.86156e-18
1.79552e-18
1.56319e-18
1.68067e-18
2.08229e-18
1.90483e-18
1.76835e-18
3.27812e-18
6.49336e-18
7.9748e-18
5.95401e-18
2.66037e-18
7.99065e-19
7.84952e-19
1.05097e-18
1.5831e-18
2.83814e-18
1.18901e-18
3.01004e-18
2.00021e-18
6.85179e-19
1.85544e-18
1.44247e-18
2.63948e-18
2.53575e-18
3.03549e-18
1.56746e-18
2.32269e-18
1.20453e-18
2.05775e-18
1.47076e-18
1.25397e-18
2.00818e-18
1.7567e-18
2.97809e-18
3.04241e-18
4.47961e-18
4.19056e-18
8.91097e-18
4.61275e-18
3.08711e-18
1.67851e-18
8.94908e-19
7.89785e-19
1.05872e-18
1.88881e-18
1.68861e-18
1.12418e-18
2.58127e-18
1.1504e-17
1.58379e-17
4.68172e-18
1.56182e-18
8.89367e-19
1.38003e-18
3.33588e-18
3.12568e-18
1.14253e-18
2.37758e-18
8.75052e-18
2.33541e-18
1.3639e-18
2.00424e-18
1.61585e-18
1.02863e-18
1.03006e-18
2.3215e-18
7.37452e-18
3.35594e-18
2.27664e-18
1.49329e-18
1.90403e-18
2.47102e-18
3.36912e-18
3.40467e-18
2.37174e-18
3.05528e-18
1.75894e-18
2.25066e-18
2.92343e-18
2.4683e-18
8.17281e-19
1.74351e-18
2.39179e-18
2.50354e-18
2.82008e-18
3.29755e-18
1.17007e-18
3.96979e-18
2.92302e-18
9.09948e-18
2.97435e-17
1.05916e-17
6.52911e-18
3.39669e-18
1.85979e-18
1.23823e-18
1.30154e-18
1.47285e-18
1.86936e-18
2.13626e-18
1.74138e-18
1.77026e-18
3.44373e-18
5.48624e-18
7.03534e-18
5.74192e-18
2.02455e-18
9.56932e-19
1.28556e-18
1.12947e-18
1.30022e-18
1.52149e-18
5.82425e-18
1.34531e-17
1.36279e-17
8.14658e-18
4.94097e-18
3.73951e-18
2.8278e-18
2.06432e-18
2.14256e-18
2.18749e-18
1.9795e-18
2.08119e-18
2.12719e-18
2.09915e-18
2.99394e-18
6.70212e-18
4.05067e-18
1.25196e-18
1.24291e-18
1.75959e-18
1.9683e-18
4.52115e-18
3.30408e-18
3.88536e-18
6.48231e-18
5.37824e-18
4.10158e-18
2.67093e-18
1.55631e-18
1.88686e-18
2.03874e-18
2.82861e-18
2.99296e-18
2.74858e-18
2.82772e-18
2.58163e-18
1.59902e-18
1.22775e-18
1.40114e-18
2.06246e-18
1.81185e-18
3.78155e-18
4.85133e-18
3.26672e-18
8.05666e-18
8.21426e-18
3.08018e-18
2.03064e-18
2.43761e-18
2.55837e-18
5.42402e-18
2.15141e-18
3.77047e-18
1.81761e-18
1.8696e-18
1.3923e-18
1.65374e-18
2.08968e-18
1.71643e-18
1.63876e-18
2.86292e-18
3.35841e-18
3.34373e-18
3.97434e-18
3.58572e-18
2.46779e-18
2.27639e-18
3.02132e-18
2.39669e-18
3.65942e-18
2.76102e-18
1.82914e-18
6.1669e-18
2.87505e-18
8.86469e-19
4.92576e-18
2.76955e-18
5.34702e-18
1.2117e-18
1.94221e-18
1.52866e-18
1.38633e-18
1.88177e-18
3.1184e-18
2.19835e-18
2.24167e-18
2.55511e-18
2.94912e-18
1.83302e-18
2.26575e-18
2.75418e-18
4.11503e-18
1.52761e-18
1.58229e-18
5.74428e-18
5.07406e-18
3.27104e-18
1.85825e-18
2.31722e-18
3.18793e-18
2.99261e-18
1.19965e-18
2.4255e-18
6.78394e-18
5.46784e-18
2.81211e-18
3.78785e-18
2.8022e-18
1.88328e-18
2.30966e-18
1.69719e-18
1.24928e-18
3.65759e-18
4.89459e-18
6.01106e-19
3.208e-18
4.76982e-18
2.3328e-18
1.58216e-18
2.99781e-18
1.50678e-18
3.65812e-18
5.50565e-18
2.651e-18
1.3512e-18
2.42701e-18
3.84531e-18
1.99342e-18
2.90229e-18
2.08555e-18
5.9005e-18
1.0912e-18
2.81162e-18
3.17516e-18
1.62298e-18
2.11659e-18
2.21013e-18
2.42826e-18
2.75602e-18
1.5901e-18
1.51221e-18
2.54293e-18
2.10513e-18
1.43437e-18
4.19063e-18
4.07991e-18
5.86133e-18
5.01421e-18
3.0578e-18
1.43517e-18
2.25217e-18
1.98665e-18
2.93774e-18
1.92031e-18
2.00194e-18
2.12287e-18
4.19493e-18
3.13737e-18
2.54303e-18
2.66718e-18
2.8382e-18
6.49429e-18
5.67868e-18
1.71325e-18
2.06189e-18
2.43871e-18
3.56971e-18
4.36547e-18
3.31754e-18
5.9415e-18
3.87481e-18
1.87551e-18
3.05206e-18
2.34155e-18
2.86026e-18
2.4431e-18
1.52921e-18
2.97981e-18
2.13491e-18
1.58716e-18
5.98775e-18
2.85307e-18
1.791e-18
3.50076e-18
4.13861e-18
2.85937e-18
3.14038e-18
2.45559e-18
1.35957e-18
1.80823e-18
1.77489e-18
2.23793e-18
2.49269e-18
2.56828e-18
3.12931e-18
3.50991e-18
5.20338e-18
4.45152e-18
2.31829e-18
2.21389e-18
2.2157e-18
2.13515e-18
2.47172e-18
2.24965e-18
1.78894e-18
2.44926e-18
1.87432e-18
1.46135e-18
1.10971e-18
5.50324e-18
6.8545e-18
3.45691e-18
1.81849e-18
5.8372e-18
2.00872e-18
1.30312e-18
1.89487e-18
3.09221e-18
4.02666e-18
3.32627e-18
4.04245e-18
3.61541e-18
1.72207e-18
2.68156e-18
2.07756e-18
1.70567e-18
1.44482e-18
4.59644e-18
1.34232e-18
1.57026e-18
2.45954e-18
2.63154e-18
3.76384e-18
2.30852e-18
3.42153e-18
1.89578e-18
3.28512e-18
2.98196e-18
3.70461e-18
2.48899e-18
2.0344e-18
1.99539e-18
3.3443e-18
4.69612e-18
2.57083e-18
3.27636e-18
2.65746e-18
2.41829e-18
1.90051e-18
1.39456e-18
4.92958e-18
2.61836e-18
2.7844e-18
2.915e-18
2.19193e-18
2.75238e-18
2.09354e-18
1.82103e-18
2.4435e-18
1.41679e-18
1.04557e-18
3.12116e-18
2.52955e-18
2.80461e-18
1.7864e-18
3.52291e-18
8.87372e-18
5.96439e-18
2.19944e-18
1.94615e-18
3.2849e-18
4.65224e-18
6.51222e-18
1.35705e-17
1.70147e-17
6.23722e-18
4.16993e-18
2.49101e-18
2.08966e-18
2.2446e-18
3.04154e-18
4.51452e-18
4.95111e-18
3.8309e-18
2.7022e-18
2.02052e-18
1.84938e-18
1.6698e-18
1.48818e-18
1.5115e-18
1.66413e-18
1.65417e-18
1.60802e-18
1.84399e-18
2.25302e-18
2.43988e-18
2.05347e-18
1.53392e-18
1.03893e-18
9.25242e-19
1.14896e-18
1.75171e-18
2.36676e-18
2.89972e-18
1.91111e-18
2.98094e-18
2.62425e-18
2.46353e-18
2.51661e-18
5.49602e-18
4.6226e-18
1.47814e-18
1.72465e-18
2.14981e-18
2.25009e-18
1.30997e-18
1.57606e-18
1.21264e-18
1.44601e-18
3.48299e-18
3.63847e-18
1.98541e-18
6.1377e-18
9.26068e-18
1.21435e-17
8.81045e-18
5.22832e-18
3.107e-18
2.02568e-18
2.09244e-18
1.83543e-18
1.6883e-18
1.80215e-18
1.75914e-18
2.3196e-18
4.65422e-18
6.82762e-18
3.96921e-18
1.79619e-18
1.41559e-18
1.8038e-18
3.0286e-18
3.22406e-18
1.38298e-18
1.80518e-18
6.15173e-18
5.0933e-18
2.04979e-18
1.80459e-18
2.09243e-18
1.24705e-18
1.12108e-18
1.75201e-18
4.03284e-18
5.58115e-18
3.03253e-18
2.02093e-18
2.21528e-18
2.8098e-18
3.61973e-18
4.17544e-18
3.59256e-18
2.18824e-18
1.36325e-18
1.05893e-18
1.21466e-18
1.42906e-18
1.22395e-18
1.67651e-18
2.41795e-18
2.50357e-18
1.20565e-18
3.15294e-18
4.84371e-18
3.60739e-18
4.86245e-18
2.47989e-17
5.51e-17
2.0418e-17
5.29053e-18
2.52822e-18
1.45168e-18
1.39003e-18
1.4051e-18
1.45818e-18
1.52685e-18
1.69965e-18
1.84264e-18
1.98424e-18
2.70308e-18
3.67032e-18
3.87616e-18
2.95758e-18
1.54493e-18
9.67356e-19
1.20711e-18
1.57085e-18
1.60063e-18
1.95663e-18
5.5931e-18
1.69827e-17
1.20456e-17
6.38498e-18
3.83901e-18
3.47954e-18
2.97964e-18
2.26692e-18
2.24174e-18
2.36584e-18
2.1805e-18
2.12159e-18
2.25134e-18
2.03344e-18
2.13822e-18
2.73508e-18
2.52209e-18
1.7139e-18
1.64179e-18
2.4572e-18
2.41522e-18
3.04598e-18
3.84049e-18
4.57647e-18
4.55884e-18
3.20899e-18
2.64014e-18
2.04566e-18
1.37997e-18
1.23372e-18
1.54745e-18
2.30829e-18
2.38436e-18
1.77611e-18
1.62906e-18
1.80644e-18
1.61472e-18
1.49152e-18
1.50048e-18
1.88373e-18
2.12378e-18
2.66681e-18
4.31221e-18
4.24245e-18
3.80399e-18
3.97478e-18
2.05465e-18
1.22441e-18
1.30952e-18
1.19382e-18
1.47178e-18
1.47464e-18
1.97608e-18
1.4912e-18
1.88151e-18
2.55884e-18
1.48525e-18
1.97744e-18
3.40113e-18
9.5588e-19
3.88714e-18
2.26093e-18
1.1417e-18
2.89967e-18
1.99111e-18
1.6622e-18
2.47117e-18
4.12956e-18
1.96176e-18
3.13058e-18
4.44334e-18
2.41453e-18
2.11323e-18
5.41459e-18
1.19204e-18
2.25806e-18
1.02436e-18
2.42253e-18
9.54546e-19
7.97246e-19
2.66435e-18
1.03384e-18
3.59417e-18
1.0564e-18
2.25631e-18
3.53578e-18
1.4544e-18
3.63681e-18
5.85418e-18
3.23706e-18
2.05195e-18
4.00884e-18
6.68446e-18
3.06126e-18
5.71845e-18
3.67342e-18
1.97733e-18
3.67664e-18
2.3345e-18
2.4972e-18
1.57788e-18
1.27381e-18
1.44849e-18
1.99496e-18
2.38243e-18
2.78544e-18
5.81138e-18
2.43085e-18
2.19686e-18
2.98001e-18
2.74714e-18
2.81258e-18
1.26901e-18
2.02525e-18
2.39329e-18
1.61848e-18
1.65678e-18
2.16963e-18
2.77545e-18
2.65471e-18
2.49009e-18
2.31507e-18
5.7533e-18
1.71159e-18
1.39604e-18
1.53309e-18
3.22208e-18
5.39088e-18
2.40573e-18
1.56143e-18
1.67966e-18
2.35226e-18
2.96122e-18
3.30634e-18
5.33761e-18
4.10071e-18
5.42231e-18
1.76177e-18
1.98928e-18
2.49599e-18
3.395e-18
1.33794e-18
1.68967e-18
3.34946e-18
1.41903e-18
1.21237e-18
9.70855e-19
2.06194e-18
1.10976e-18
3.33344e-18
2.50517e-18
1.03083e-18
1.60258e-18
2.60909e-18
2.71221e-18
3.842e-18
5.28558e-18
2.65077e-18
3.42262e-18
3.86613e-18
3.39652e-18
1.68847e-18
2.84454e-18
2.22109e-18
3.75378e-18
3.43081e-18
1.64037e-18
1.50252e-18
3.03676e-18
1.73886e-18
1.24111e-18
2.03085e-18
1.03031e-18
1.00923e-18
1.9133e-18
2.36977e-18
2.42184e-18
1.79134e-18
1.84993e-18
2.9356e-18
1.97061e-18
3.02241e-18
3.77485e-18
2.43179e-18
2.03947e-18
1.54538e-18
2.46606e-18
3.41069e-18
2.22661e-18
2.35034e-18
1.71658e-18
1.39751e-18
2.38933e-18
2.07933e-18
2.50611e-18
2.81532e-18
2.31525e-18
1.87941e-18
1.53003e-18
1.69171e-18
2.04122e-18
1.75849e-18
1.51881e-18
1.57808e-18
1.55553e-18
2.18048e-18
2.16886e-18
1.56299e-18
2.1546e-18
3.61064e-18
3.6954e-18
2.48911e-18
2.51068e-18
2.26174e-18
2.83686e-18
2.91692e-18
1.99323e-18
2.14135e-18
3.84475e-18
6.18002e-18
3.14673e-18
3.36662e-18
4.23262e-18
2.54183e-18
2.39547e-18
2.3516e-18
2.05464e-18
1.97147e-18
2.99124e-18
1.98439e-18
2.58861e-18
5.51748e-18
4.46475e-18
1.70052e-18
2.70612e-18
2.30224e-18
1.87083e-18
1.68954e-18
1.47806e-18
2.77291e-18
2.64605e-18
2.39908e-18
2.28604e-18
2.35446e-18
2.5295e-18
2.64841e-18
4.06917e-18
4.63431e-18
3.2256e-18
3.04306e-18
2.28386e-18
1.35195e-18
9.92372e-19
2.32092e-18
4.13085e-18
3.45098e-18
2.02106e-18
1.95762e-18
1.49462e-18
1.13277e-18
1.61593e-18
2.57918e-18
2.55835e-18
3.24821e-18
3.64206e-18
5.88274e-18
1.19191e-17
1.0202e-17
2.57791e-18
1.80492e-18
2.18268e-18
3.16675e-18
4.60182e-18
6.03981e-18
7.23241e-18
7.91881e-18
5.51526e-18
3.42087e-18
2.56471e-18
2.55124e-18
2.87695e-18
3.10625e-18
2.80962e-18
2.36626e-18
2.0129e-18
1.83832e-18
1.77702e-18
1.57094e-18
1.24763e-18
1.28538e-18
1.43617e-18
1.50103e-18
1.43188e-18
1.5298e-18
1.64972e-18
1.47264e-18
1.12162e-18
1.1512e-18
1.65171e-18
2.3307e-18
2.52108e-18
2.41445e-18
2.03518e-18
1.92663e-18
1.75697e-18
2.16208e-18
2.90258e-18
1.99259e-18
1.6059e-18
2.374e-18
2.64847e-18
1.62364e-18
2.12283e-18
2.40128e-18
1.43681e-18
1.2222e-18
1.59941e-18
2.85248e-18
3.32304e-18
2.61825e-18
3.65698e-18
3.20261e-18
4.87919e-18
7.27531e-18
2.34401e-17
1.59174e-17
4.99277e-18
2.52069e-18
1.33304e-18
1.73708e-18
2.02281e-18
1.88929e-18
1.68327e-18
1.64818e-18
1.78101e-18
2.29532e-18
2.63893e-18
2.20491e-18
1.62375e-18
1.77149e-18
2.28571e-18
2.78928e-18
2.83481e-18
2.45946e-18
2.40268e-18
3.33392e-18
2.99714e-18
1.69222e-18
1.47633e-18
2.07054e-18
2.58014e-18
2.27293e-18
2.27314e-18
2.79663e-18
4.15458e-18
4.33866e-18
3.09558e-18
2.46961e-18
2.56101e-18
2.94617e-18
2.63439e-18
1.81027e-18
1.27066e-18
1.3232e-18
1.42358e-18
1.36045e-18
1.53181e-18
1.91854e-18
2.36482e-18
2.55786e-18
2.50103e-18
3.17892e-18
6.90471e-18
2.16877e-17
1.39486e-17
7.15928e-18
2.00466e-17
3.11822e-17
1.04194e-17
3.31053e-18
1.58072e-18
1.59174e-18
1.98563e-18
2.20966e-18
2.1317e-18
1.77604e-18
1.66445e-18
1.89455e-18
2.21891e-18
2.36382e-18
2.39209e-18
2.16788e-18
1.68092e-18
1.20676e-18
1.26553e-18
1.89717e-18
2.61578e-18
2.68669e-18
3.13201e-18
5.52335e-18
7.59585e-18
7.45537e-18
4.66602e-18
2.35986e-18
1.76954e-18
1.86531e-18
1.75846e-18
1.72223e-18
2.04779e-18
2.30491e-18
1.86482e-18
1.53981e-18
1.43069e-18
1.4206e-18
1.77974e-18
2.32977e-18
2.37344e-18
2.1059e-18
2.09786e-18
2.20529e-18
2.8587e-18
3.78693e-18
3.33619e-18
2.77164e-18
2.99872e-18
2.62381e-18
1.55769e-18
1.00995e-18
1.30862e-18
1.88408e-18
2.69025e-18
2.86441e-18
1.84444e-18
1.48846e-18
1.97003e-18
2.31037e-18
1.67085e-18
1.02238e-18
1.20939e-18
2.06628e-18
3.29374e-18
3.96675e-18
3.07221e-18
1.67181e-18
1.50697e-18
1.84115e-18
1.47886e-18
1.6604e-18
2.54461e-18
3.35996e-18
2.61625e-18
2.41899e-18
2.21433e-18
1.80117e-18
1.52627e-18
1.12422e-18
1.24866e-18
2.05936e-18
1.46478e-18
1.76718e-18
2.60125e-18
3.08627e-18
1.80575e-18
1.41731e-18
2.52394e-18
2.90306e-18
3.12822e-18
2.29062e-18
1.69668e-18
3.79831e-18
3.82689e-18
2.81703e-18
3.73973e-18
2.7364e-18
1.39843e-18
2.6673e-18
1.85324e-18
1.18251e-18
4.50732e-18
3.91841e-18
4.39772e-18
4.81408e-18
5.02844e-18
4.67044e-18
3.29339e-18
5.04137e-18
3.2266e-18
4.19542e-18
1.88506e-18
2.09591e-18
2.35807e-18
1.97319e-18
5.66659e-18
3.28033e-18
4.45953e-18
3.68136e-18
2.99309e-18
3.04854e-18
1.72009e-18
5.53962e-18
1.59712e-18
2.85095e-18
5.09991e-18
1.32984e-18
1.94263e-18
3.09277e-18
1.6399e-18
6.9158e-19
1.42722e-18
1.92391e-18
2.98532e-18
3.81856e-18
4.25228e-18
2.887e-18
3.05696e-18
9.38057e-19
2.3504e-18
5.87573e-18
5.66906e-18
3.43156e-18
2.79492e-18
2.97323e-18
3.4368e-18
2.46324e-18
2.48219e-18
1.86044e-18
2.2889e-18
1.99514e-18
4.90632e-18
3.18477e-18
1.13731e-18
3.09645e-18
2.40761e-18
1.72764e-18
1.632e-18
2.36326e-18
2.29868e-18
3.60899e-18
2.8707e-18
4.59605e-18
1.95516e-18
1.69826e-18
2.10917e-18
2.56943e-18
2.59081e-18
2.60052e-18
3.11331e-18
2.92646e-18
1.00003e-18
1.37036e-18
2.12145e-18
3.65994e-18
5.28208e-18
3.2218e-18
1.63898e-18
3.08863e-18
1.79892e-18
1.12098e-18
4.19667e-18
3.20353e-18
2.3734e-18
2.26469e-18
4.98117e-18
4.99479e-18
4.63684e-18
4.6719e-18
2.64962e-18
4.16754e-18
1.87183e-18
3.2484e-18
2.37071e-18
2.08485e-18
1.96953e-18
3.06744e-18
1.35972e-18
1.64227e-18
2.99844e-18
4.90804e-18
2.56715e-18
3.5289e-18
4.20536e-18
3.34514e-18
4.11918e-18
3.85106e-18
2.70406e-18
2.21327e-18
2.43611e-18
2.35627e-18
1.97576e-18
3.22432e-18
2.23967e-18
1.71037e-18
2.12769e-18
2.88296e-18
3.29119e-18
4.27996e-18
3.14992e-18
1.86561e-18
1.86977e-18
2.00349e-18
2.13702e-18
1.39285e-18
2.90283e-18
3.57048e-18
3.19304e-18
2.04553e-18
1.87666e-18
2.18826e-18
2.19189e-18
2.95287e-18
2.58185e-18
3.09096e-18
3.04213e-18
1.99264e-18
2.66582e-18
2.37158e-18
1.95905e-18
2.1262e-18
2.34596e-18
1.35608e-18
2.42185e-18
3.61998e-18
4.04264e-18
4.37848e-18
2.70869e-18
1.71396e-18
1.76155e-18
3.3337e-18
2.17114e-18
2.10711e-18
1.54484e-18
1.80225e-18
2.40042e-18
2.66135e-18
4.34427e-18
3.46889e-18
2.1095e-18
2.90046e-18
2.94196e-18
3.03991e-18
2.98311e-18
2.29311e-18
1.69488e-18
2.47766e-18
3.84938e-18
5.73832e-18
7.95871e-18
6.36362e-18
3.43413e-18
2.01043e-18
2.54408e-18
3.12839e-18
2.49703e-18
2.69463e-18
2.61245e-18
1.77844e-18
1.77522e-18
2.45695e-18
1.97339e-18
9.9887e-19
1.36798e-18
3.15005e-18
3.82042e-18
4.26412e-18
5.31187e-18
9.95396e-18
4.74998e-18
1.97253e-18
1.72413e-18
1.84531e-18
2.38321e-18
2.50898e-18
2.41302e-18
2.7681e-18
3.60016e-18
4.50268e-18
4.91276e-18
3.86067e-18
2.8076e-18
2.75879e-18
2.87516e-18
3.4067e-18
2.96521e-18
2.34385e-18
1.98625e-18
1.89626e-18
1.81624e-18
1.61235e-18
1.63322e-18
1.99282e-18
2.33225e-18
2.06321e-18
1.66063e-18
1.42767e-18
1.2435e-18
1.1373e-18
1.20328e-18
1.60153e-18
2.45466e-18
3.60809e-18
3.67201e-18
2.74129e-18
2.05171e-18
1.618e-18
1.41621e-18
1.40126e-18
1.47122e-18
1.56218e-18
1.78948e-18
1.40537e-18
9.99897e-19
1.25812e-18
1.67535e-18
1.62849e-18
1.71365e-18
1.79094e-18
1.4271e-18
1.40736e-18
1.49176e-18
1.70545e-18
3.19597e-18
4.31257e-18
7.50412e-18
1.65453e-17
1.91026e-17
4.69798e-18
2.42403e-18
1.12119e-18
1.32797e-18
1.66905e-18
1.74666e-18
1.72689e-18
1.84016e-18
2.21189e-18
2.70817e-18
2.68285e-18
2.28066e-18
1.70928e-18
1.52752e-18
1.98649e-18
2.85709e-18
3.5973e-18
3.01493e-18
2.46628e-18
2.46116e-18
2.95759e-18
3.20615e-18
2.84281e-18
3.37042e-18
3.27264e-18
1.86368e-18
1.05621e-18
1.39282e-18
2.46827e-18
3.64071e-18
3.87936e-18
2.85831e-18
2.0979e-18
1.75311e-18
1.60077e-18
1.64285e-18
1.75885e-18
1.80586e-18
1.49908e-18
1.28913e-18
1.49246e-18
2.11439e-18
2.38402e-18
2.11106e-18
2.22326e-18
3.43872e-18
8.8862e-18
2.31251e-17
2.03109e-17
6.72698e-18
3.74453e-18
3.62409e-18
3.70684e-18
2.49314e-18
2.4096e-18
2.26526e-18
2.64369e-18
2.61815e-18
2.40501e-18
2.08729e-18
1.82339e-18
1.88411e-18
2.08434e-18
2.17804e-18
2.24936e-18
2.33884e-18
2.37731e-18
1.80034e-18
1.49778e-18
1.47512e-18
1.58165e-18
2.1131e-18
3.39841e-18
5.29765e-18
4.71536e-18
3.22025e-18
2.45544e-18
1.5393e-18
1.42366e-18
1.63538e-18
1.90572e-18
2.05765e-18
1.95803e-18
1.95216e-18
2.12248e-18
2.38141e-18
2.77812e-18
3.56883e-18
4.04492e-18
3.51467e-18
3.49424e-18
3.13078e-18
2.1384e-18
1.55558e-18
1.68911e-18
2.11546e-18
2.98159e-18
4.10734e-18
3.02593e-18
1.96684e-18
1.2903e-18
1.08188e-18
1.05773e-18
1.20899e-18
1.32007e-18
1.46915e-18
1.73549e-18
1.73622e-18
1.86686e-18
2.02194e-18
2.22932e-18
2.62055e-18
2.89644e-18
2.36047e-18
2.14256e-18
2.17063e-18
2.27485e-18
2.59337e-18
1.73366e-18
1.58305e-18
1.98577e-18
1.82995e-18
2.39564e-18
2.69419e-18
2.17221e-18
2.01707e-18
1.74008e-18
1.74408e-18
1.73109e-18
1.04073e-18
8.21339e-19
1.53437e-18
2.5963e-18
2.24909e-18
1.0341e-18
3.33574e-18
4.65381e-18
2.49553e-18
1.46645e-18
1.74069e-18
2.48319e-18
1.59755e-18
2.92012e-18
1.98839e-18
1.42205e-18
1.35004e-18
2.66439e-18
2.15459e-18
1.88045e-18
1.66747e-18
2.01591e-18
2.1079e-18
2.36623e-18
3.28733e-18
3.69486e-18
4.81063e-18
2.5732e-18
2.25872e-18
2.13662e-18
1.38746e-18
3.1166e-18
2.53069e-18
1.42224e-18
1.5587e-18
5.64033e-19
4.38946e-18
6.62633e-18
1.89684e-18
1.31859e-18
3.74835e-18
3.61427e-18
5.38381e-18
6.0837e-18
2.12906e-18
1.68172e-18
1.14262e-18
1.81435e-18
1.81169e-18
1.06244e-18
3.23091e-18
4.64657e-18
2.45829e-18
3.17814e-18
2.51418e-18
1.32363e-18
2.30189e-18
3.73981e-18
2.76019e-18
1.24552e-18
2.04595e-18
3.18703e-18
5.16215e-18
3.17813e-18
2.22969e-18
3.567e-18
1.87992e-18
1.54564e-18
1.85399e-18
2.62601e-18
2.03579e-18
3.92803e-18
6.14869e-18
2.80317e-18
3.00204e-18
2.89353e-18
2.26116e-18
1.77502e-18
2.60967e-18
2.84178e-18
1.78495e-18
2.68786e-18
2.46734e-18
1.60615e-18
2.11511e-18
1.82844e-18
1.757e-18
1.17224e-18
1.57025e-18
3.06568e-18
2.61134e-18
3.5349e-18
2.52327e-18
3.05344e-18
1.86392e-18
2.08184e-18
3.67536e-18
2.96411e-18
4.11639e-18
3.83194e-18
2.18587e-18
2.50153e-18
2.88221e-18
4.41659e-18
1.49498e-18
2.10859e-18
2.55386e-18
2.29082e-18
3.06899e-18
3.63906e-18
2.45193e-18
2.59897e-18
2.5642e-18
2.50958e-18
2.09531e-18
1.99941e-18
2.56556e-18
2.35262e-18
2.10059e-18
2.74625e-18
2.38726e-18
1.64776e-18
1.70348e-18
3.53681e-18
3.94377e-18
2.91884e-18
1.93116e-18
4.19403e-18
4.17034e-18
5.22612e-18
3.30775e-18
2.25781e-18
2.46855e-18
2.27485e-18
1.85705e-18
2.33068e-18
4.3818e-18
5.25307e-18
2.91975e-18
1.3017e-18
2.24551e-18
4.48513e-18
2.78824e-18
2.29038e-18
2.64166e-18
2.2334e-18
2.46301e-18
2.88897e-18
4.0556e-18
2.60971e-18
1.65364e-18
1.78304e-18
2.20753e-18
1.97024e-18
1.84871e-18
2.87161e-18
2.85727e-18
2.45682e-18
2.6577e-18
2.63009e-18
2.09793e-18
2.86302e-18
4.45768e-18
3.2932e-18
2.89402e-18
2.58558e-18
2.95237e-18
2.25683e-18
3.02047e-18
3.22727e-18
2.05744e-18
1.99437e-18
2.64885e-18
2.36795e-18
2.15589e-18
2.57151e-18
2.98048e-18
3.31895e-18
3.3205e-18
3.57911e-18
2.82883e-18
1.62205e-18
1.68437e-18
3.06608e-18
4.01651e-18
4.11869e-18
3.3822e-18
1.59636e-18
1.15888e-18
2.45469e-18
4.29316e-18
5.66536e-18
4.6413e-18
4.16008e-18
2.29177e-18
2.22716e-18
2.10218e-18
2.04937e-18
2.7442e-18
2.45884e-18
2.22192e-18
2.23431e-18
2.31064e-18
2.63432e-18
3.19432e-18
2.75346e-18
2.01557e-18
1.78602e-18
1.79421e-18
4.06955e-18
4.51081e-18
2.51822e-18
1.81873e-18
1.42084e-18
1.45439e-18
1.98559e-18
2.1118e-18
1.67944e-18
1.38059e-18
1.66611e-18
2.394e-18
2.96671e-18
3.79297e-18
3.78999e-18
3.14454e-18
3.61356e-18
3.71004e-18
4.08881e-18
4.00347e-18
2.26566e-18
1.8175e-18
1.89929e-18
2.22768e-18
2.73791e-18
3.45754e-18
3.57834e-18
3.04513e-18
2.18779e-18
1.59822e-18
1.54943e-18
1.77071e-18
2.0274e-18
2.33145e-18
2.62852e-18
2.54152e-18
2.6299e-18
2.83899e-18
2.37231e-18
1.64992e-18
1.42316e-18
1.55358e-18
1.73434e-18
1.68654e-18
1.63183e-18
1.70717e-18
1.40308e-18
1.14944e-18
1.6867e-18
2.90879e-18
2.20249e-18
1.59054e-18
1.56647e-18
1.93736e-18
3.29654e-18
4.53566e-18
4.52381e-18
5.4033e-18
8.51172e-18
1.24459e-17
9.27987e-18
4.76713e-18
2.66611e-18
1.30916e-18
1.24111e-18
1.49792e-18
1.74665e-18
1.92126e-18
2.06998e-18
2.20744e-18
2.22942e-18
2.25027e-18
2.22904e-18
1.97669e-18
1.63926e-18
1.52198e-18
1.6334e-18
1.91274e-18
2.11502e-18
2.27592e-18
2.59582e-18
3.63349e-18
6.36231e-18
6.88044e-18
4.88449e-18
2.49836e-18
1.49861e-18
1.30671e-18
1.85713e-18
3.11281e-18
4.3211e-18
3.30841e-18
2.74071e-18
1.95607e-18
1.42529e-18
1.34738e-18
1.48672e-18
1.51598e-18
1.40413e-18
1.46795e-18
1.91476e-18
2.60397e-18
2.44954e-18
1.83484e-18
1.5818e-18
1.82349e-18
2.90111e-18
7.0999e-18
1.58805e-17
1.11202e-17
4.37157e-18
2.91316e-18
1.98242e-18
1.63381e-18
1.90081e-18
2.54192e-18
3.54422e-18
4.25594e-18
4.49956e-18
2.73314e-18
2.09378e-18
1.54508e-18
1.46906e-18
1.78263e-18
2.31513e-18
3.09691e-18
4.12133e-18
5.20616e-18
5.15677e-18
3.36497e-18
2.50519e-18
2.75262e-18
3.38079e-18
4.27221e-18
5.06848e-18
4.69445e-18
3.74781e-18
2.84444e-18
1.81489e-18
1.42406e-18
1.67647e-18
2.12649e-18
2.74293e-18
2.73089e-18
2.33555e-18
1.77714e-18
1.56558e-18
2.1882e-18
2.76078e-18
3.0262e-18
2.75433e-18
3.09015e-18
3.29817e-18
2.15385e-18
1.70563e-18
1.93928e-18
2.60805e-18
2.9643e-18
2.83433e-18
2.0098e-18
1.30663e-18
1.19789e-18
1.30372e-18
1.30106e-18
1.30729e-18
1.69127e-18
2.25999e-18
2.14482e-18
1.90544e-18
1.61567e-18
1.8243e-18
2.28011e-18
2.52901e-18
2.41195e-18
2.45387e-18
2.39044e-18
1.97493e-18
2.07614e-18
2.30162e-18
2.70531e-18
3.06584e-18
2.77157e-18
2.84907e-18
2.8206e-18
2.3308e-18
2.1453e-18
1.97908e-18
1.80499e-18
1.20438e-18
6.90721e-19
1.01207e-18
2.04506e-18
1.66643e-18
1.94104e-18
2.83015e-18
3.01548e-18
2.55033e-18
3.45348e-18
3.02379e-18
1.37837e-18
1.5205e-18
2.57603e-18
4.11694e-18
2.90733e-18
2.10439e-18
2.46864e-18
2.3027e-18
2.84172e-18
1.36759e-18
1.05635e-18
2.58653e-18
2.37094e-18
2.10767e-18
4.86554e-19
1.98503e-18
1.24709e-18
1.18874e-18
4.51614e-18
3.04113e-18
1.89293e-18
2.94263e-18
1.30626e-18
1.51579e-18
8.01363e-19
1.86431e-18
3.2609e-18
1.7418e-18
4.63301e-18
4.02188e-18
4.41641e-18
5.65086e-18
1.80058e-18
2.11658e-18
2.76103e-18
4.40879e-18
3.98885e-18
4.18575e-18
2.00917e-18
1.11262e-18
1.86691e-18
1.8302e-18
8.92636e-19
1.99381e-18
1.55789e-18
5.55626e-18
2.14607e-18
2.21168e-18
2.48245e-18
2.63568e-18
3.88795e-18
2.04371e-18
2.17945e-18
3.21639e-18
4.49739e-18
3.5642e-18
2.33741e-18
2.45005e-18
1.6082e-18
1.86228e-18
2.65346e-18
2.53099e-18
2.18675e-18
2.45391e-18
3.35765e-18
5.89287e-18
3.31972e-18
1.86545e-18
2.98485e-18
3.09835e-18
2.08905e-18
2.94638e-18
3.0043e-18
2.20199e-18
1.8274e-18
2.32945e-18
1.83996e-18
1.56743e-18
2.56121e-18
1.68042e-18
2.6849e-18
4.82331e-18
3.04683e-18
2.75087e-18
4.15483e-18
5.44813e-18
3.45827e-18
4.14283e-18
3.61409e-18
2.14207e-18
2.87336e-18
4.66981e-18
2.92967e-18
2.07903e-18
1.73019e-18
1.98712e-18
3.04533e-18
2.99691e-18
2.23688e-18
2.48713e-18
3.60905e-18
3.97548e-18
4.08126e-18
5.40698e-18
4.067e-18
2.47983e-18
1.96135e-18
3.40461e-18
4.17039e-18
2.23612e-18
1.89766e-18
1.84918e-18
1.11925e-18
1.40381e-18
1.7583e-18
1.17498e-18
1.66391e-18
2.79193e-18
4.28452e-18
4.39137e-18
2.50667e-18
1.79415e-18
1.71609e-18
2.85409e-18
4.04151e-18
3.33767e-18
1.93971e-18
1.36553e-18
1.81317e-18
2.61298e-18
1.91384e-18
1.40667e-18
1.44742e-18
2.19564e-18
4.18631e-18
3.76208e-18
3.47178e-18
4.46989e-18
3.45214e-18
4.77359e-18
3.86762e-18
3.1865e-18
3.18564e-18
2.46833e-18
2.24184e-18
2.35855e-18
2.93426e-18
3.0873e-18
1.89426e-18
1.53569e-18
2.93811e-18
4.11377e-18
2.83996e-18
2.92587e-18
2.49095e-18
2.39474e-18
2.16975e-18
2.43714e-18
3.39603e-18
3.22352e-18
2.20059e-18
2.45832e-18
3.56842e-18
3.5608e-18
2.68923e-18
1.83894e-18
2.09838e-18
2.50318e-18
3.16923e-18
2.66607e-18
2.45348e-18
1.91881e-18
2.09346e-18
2.93937e-18
3.52687e-18
4.94431e-18
5.06751e-18
3.26e-18
2.24128e-18
2.35333e-18
2.18915e-18
2.05662e-18
2.05129e-18
2.33967e-18
1.90105e-18
1.88252e-18
1.52996e-18
1.68885e-18
2.95708e-18
3.46924e-18
2.57426e-18
2.01596e-18
2.53489e-18
2.70603e-18
3.4456e-18
4.6093e-18
3.69197e-18
2.69166e-18
2.78983e-18
3.58517e-18
6.9649e-18
5.18633e-18
2.46665e-18
1.81981e-18
1.11869e-18
1.49551e-18
2.27228e-18
2.68155e-18
2.67724e-18
2.20799e-18
1.80243e-18
1.95325e-18
2.42152e-18
3.12786e-18
3.71127e-18
3.67886e-18
3.18138e-18
3.69334e-18
3.63908e-18
3.87181e-18
3.82589e-18
2.41703e-18
1.98432e-18
2.11067e-18
2.47152e-18
2.86493e-18
3.08275e-18
2.74884e-18
2.41718e-18
2.04397e-18
1.84282e-18
2.03535e-18
2.42831e-18
2.55522e-18
2.11654e-18
1.59705e-18
1.25219e-18
1.38242e-18
1.91258e-18
2.53244e-18
2.35023e-18
1.83243e-18
1.65549e-18
1.75356e-18
1.94771e-18
1.80036e-18
1.21666e-18
1.04785e-18
1.89631e-18
2.87938e-18
3.37574e-18
2.14527e-18
1.84322e-18
2.33966e-18
3.2825e-18
3.93452e-18
3.4357e-18
3.85872e-18
5.98926e-18
7.47077e-18
6.27678e-18
4.5898e-18
3.21433e-18
2.11589e-18
1.56319e-18
1.51944e-18
1.73706e-18
2.02425e-18
2.37215e-18
2.30584e-18
2.12942e-18
1.97868e-18
1.79981e-18
1.62264e-18
1.60996e-18
1.88104e-18
2.41422e-18
3.05672e-18
2.99061e-18
2.44855e-18
2.70264e-18
4.55751e-18
7.04088e-18
8.2302e-18
5.29465e-18
2.52394e-18
1.65069e-18
1.48586e-18
1.87411e-18
2.83891e-18
4.23552e-18
4.81876e-18
3.08438e-18
2.21897e-18
1.76955e-18
1.84171e-18
2.17616e-18
2.52865e-18
2.60087e-18
2.45545e-18
2.27445e-18
2.07221e-18
1.99158e-18
2.18185e-18
2.39419e-18
2.62755e-18
3.34995e-18
6.07873e-18
1.1793e-17
8.78941e-18
3.57092e-18
2.30765e-18
1.53415e-18
1.38629e-18
1.3593e-18
1.99857e-18
2.29475e-18
3.2234e-18
3.82834e-18
3.85799e-18
2.52585e-18
1.85964e-18
1.56917e-18
1.91131e-18
2.59918e-18
3.70258e-18
4.71708e-18
4.30266e-18
4.29185e-18
3.33794e-18
2.05208e-18
1.50431e-18
1.69523e-18
2.24787e-18
2.95395e-18
2.97235e-18
2.45772e-18
1.80066e-18
1.45207e-18
1.50515e-18
1.8947e-18
2.50363e-18
2.95495e-18
2.90216e-18
2.43511e-18
1.94634e-18
1.5858e-18
1.35524e-18
1.78341e-18
2.32628e-18
2.92279e-18
2.99409e-18
3.06297e-18
2.36471e-18
1.60523e-18
1.7079e-18
2.0587e-18
2.22945e-18
1.93463e-18
2.06723e-18
2.35966e-18
2.12107e-18
1.55212e-18
1.63735e-18
2.11805e-18
2.68991e-18
2.81172e-18
2.90763e-18
3.01473e-18
2.89105e-18
2.25055e-18
1.94084e-18
2.08858e-18
2.33827e-18
2.32854e-18
2.06969e-18
1.91071e-18
2.05985e-18
2.34279e-18
2.57676e-18
2.91222e-18
2.45616e-18
1.63522e-18
1.47758e-18
1.95671e-18
3.4329e-18
4.1274e-18
2.32781e-18
2.15389e-18
2.02356e-18
1.68002e-18
1.76616e-18
2.36718e-18
1.55049e-18
1.43451e-18
1.92343e-18
2.24419e-18
1.80441e-18
9.46912e-19
1.32954e-18
1.12397e-18
6.88906e-19
1.45611e-18
2.51873e-18
2.22998e-18
3.01281e-18
3.33229e-18
1.95615e-18
2.61422e-18
1.45004e-18
2.13188e-18
6.67659e-18
4.58009e-18
1.90303e-18
8.24818e-19
7.30165e-19
1.71328e-18
1.88647e-18
2.39631e-18
3.34813e-18
3.94183e-18
8.11055e-18
3.73108e-18
3.10766e-18
2.06788e-18
2.27879e-18
1.65734e-18
3.28061e-18
4.23608e-18
3.22911e-18
2.1431e-18
2.21995e-18
1.62107e-18
2.45947e-18
1.90052e-18
5.05158e-18
7.28554e-18
2.37142e-18
1.75632e-18
2.01866e-18
4.01535e-18
4.07994e-18
2.14675e-18
3.44195e-18
2.28539e-18
4.19976e-18
2.97513e-18
2.78592e-18
1.34593e-18
2.15578e-18
2.22182e-18
5.03505e-18
4.66783e-18
3.97201e-18
2.00997e-18
2.55471e-18
3.93118e-18
3.43495e-18
1.85911e-18
2.01471e-18
2.69522e-18
1.70437e-18
1.60091e-18
2.33977e-18
2.26697e-18
3.79931e-18
4.25589e-18
2.19328e-18
3.16219e-18
3.55135e-18
2.28099e-18
2.27463e-18
2.88663e-18
1.93383e-18
1.85486e-18
1.62841e-18
1.48185e-18