/*--------------------------------*- C++ -*----------------------------------*\
  =========                 |
  \\      /  F ield         | OpenFOAM: The Open Source CFD Toolbox
   \\    /   O peration     | Website:  https://openfoam.org
    \\  /    A nd           | Version:  7
     \\/     M anipulation  |
\*---------------------------------------------------------------------------*/
FoamFile
{
    version     2.0;
    format      ascii;
    class       volScalarField;
    location    "5500";
    object      mu1;
}
// * * * * * * * * * * * * * * * * * * * * * * * * * * * * * * * * * * * * * //

dimensions      [1 -1 -1 0 0 0 0];

internalField   nonuniform List<scalar> 
160000
(
0.000914332
0.000912404
0.00091049
0.000908566
0.000906585
0.000904629
0.000902689
0.00090078
0.000898915
0.000896971
0.000894991
0.000893076
0.000891149
0.000889155
0.000887219
0.000885336
0.000883471
0.000881611
0.000879688
0.000877749
0.000875869
0.000874026
0.000872182
0.00087033
0.000868518
0.000866696
0.000864789
0.000862892
0.000861023
0.00085919
0.000857423
0.000855666
0.000853848
0.000852037
0.000850303
0.000848535
0.000846708
0.000844882
0.000843124
0.000841387
0.000839629
0.000837905
0.000836156
0.000834422
0.000832682
0.000830879
0.000829136
0.000827493
0.000825845
0.00082418
0.000822525
0.000820793
0.000819056
0.000817379
0.000815684
0.000814025
0.000812365
0.000810736
0.000809187
0.000807625
0.000805965
0.00080431
0.000802752
0.000801222
0.000799723
0.000798167
0.000796575
0.000794989
0.00079345
0.000791999
0.000790458
0.000788889
0.000787372
0.000785858
0.000784378
0.000782903
0.000781441
0.00078
0.000778551
0.000777099
0.000775655
0.000774177
0.000772732
0.000771331
0.000769916
0.000768492
0.000767096
0.000765746
0.00076441
0.000763038
0.000761701
0.000760371
0.000758981
0.000757608
0.00075629
0.000755029
0.000753765
0.00075249
0.000751232
0.000749996
0.000748752
0.000747521
0.000746277
0.000744992
0.00074376
0.000742535
0.000741335
0.000740151
0.000738936
0.000737735
0.000736547
0.000735415
0.000734289
0.000733149
0.000732043
0.000730923
0.000729811
0.000728704
0.000727559
0.000726425
0.000725337
0.000724286
0.000723242
0.000722184
0.000721128
0.000720055
0.000718989
0.000717981
0.000716994
0.000716001
0.000715032
0.000714087
0.000713115
0.000712079
0.000711055
0.000710082
0.000709134
0.000708195
0.00070728
0.000706403
0.000705504
0.000704557
0.000703667
0.000702797
0.000701869
0.000700966
0.000700101
0.000699239
0.000698398
0.000697582
0.000696777
0.000695963
0.000695165
0.000694356
0.000693556
0.000692773
0.000691977
0.000691181
0.000690397
0.000689631
0.000688878
0.000688135
0.000687406
0.00068668
0.000685978
0.000685279
0.000684546
0.000683832
0.000683126
0.000682433
0.000681742
0.000681049
0.000680402
0.000679755
0.0006791
0.000678474
0.000677849
0.000677223
0.000676589
0.000675947
0.00067535
0.000674758
0.000674161
0.00067359
0.000673014
0.000672432
0.000671853
0.000671282
0.000670721
0.00067015
0.000669587
0.000669072
0.000668584
0.000668086
0.000667568
0.000667059
0.000666544
0.00066598
0.000665439
0.000664951
0.000664483
0.000664033
0.00066359
0.000663142
0.000662683
0.000662215
0.00066175
0.000661312
0.000660898
0.000660493
0.000660092
0.000659696
0.000659306
0.000658922
0.00065854
0.000658164
0.000657796
0.000657429
0.000657055
0.000656678
0.000656306
0.000655949
0.000655615
0.000655291
0.000654965
0.000654637
0.000654302
0.000653978
0.000653659
0.000653336
0.000653038
0.000652744
0.000652445
0.000652146
0.000651849
0.000651558
0.000651275
0.000651
0.000650732
0.000650468
0.000650206
0.00064995
0.000649689
0.000649424
0.000649158
0.000648884
0.000648601
0.000648324
0.000648067
0.000647833
0.000647617
0.000647408
0.000647206
0.000647008
0.00064681
0.000646609
0.000646408
0.000646214
0.000646022
0.000645818
0.000645608
0.000645412
0.000645233
0.000645063
0.000644892
0.000644714
0.000644536
0.000644368
0.000644203
0.000644025
0.000643858
0.000643709
0.000643563
0.000643418
0.000643279
0.000643143
0.000643004
0.000642855
0.00064271
0.000642577
0.000642452
0.000642329
0.000642206
0.000642082
0.000641961
0.000641845
0.000641734
0.000641627
0.000641521
0.000641414
0.000641307
0.000641204
0.000641103
0.000640999
0.000640896
0.000640795
0.000640695
0.000640601
0.000640509
0.000640411
0.00064031
0.000640203
0.000640113
0.000640038
0.000639966
0.000639896
0.000639828
0.000639761
0.000639695
0.000639628
0.000639562
0.000639497
0.000639434
0.000639371
0.000639308
0.000639247
0.000639188
0.000639133
0.000639082
0.00063903
0.000638979
0.000638929
0.000638879
0.000638828
0.000638774
0.000638722
0.000638674
0.000638631
0.000638589
0.000638549
0.000638511
0.000638473
0.000638436
0.000638399
0.000638364
0.00063833
0.000638296
0.000638263
0.00063823
0.000638198
0.000638169
0.000638141
0.000638114
0.000638087
0.00063806
0.000638033
0.000638008
0.000637983
0.000637959
0.000637937
0.000637915
0.000637895
0.000637876
0.000637856
0.000637837
0.000637818
0.0006378
0.000637783
0.000637766
0.00063775
0.000637735
0.00063772
0.000637706
0.000637692
0.000637678
0.000637665
0.000637652
0.00063764
0.000637628
0.000637617
0.000637607
0.000637597
0.000637587
0.000637578
0.00063757
0.000637561
0.000637554
0.000637546
0.00063754
0.000637533
0.000637527
0.000637521
0.000637515
0.00063751
0.000637505
0.0006375
0.000637496
0.000637492
0.000637488
0.000637485
0.000637482
0.000637479
0.000637476
0.000637474
0.000637472
0.000637471
0.000637469
0.000637469
0.000637468
0.000637468
0.000914294
0.00091237
0.000910475
0.00090854
0.000906601
0.000904667
0.000902717
0.000900773
0.000898875
0.000896953
0.00089499
0.000893065
0.000891163
0.000889223
0.000887247
0.000885334
0.000883502
0.000881607
0.000879645
0.000877713
0.000875845
0.000874006
0.000872151
0.000870298
0.000868505
0.000866722
0.000864831
0.0008629
0.000861031
0.000859207
0.00085741
0.000855637
0.000853841
0.000852043
0.000850307
0.000848537
0.000846665
0.000844906
0.000843196
0.000841391
0.000839607
0.000837885
0.000836148
0.000834424
0.000832692
0.000830889
0.000829144
0.000827502
0.00082586
0.000824154
0.000822459
0.000820761
0.000819076
0.000817374
0.000815699
0.000814069
0.00081239
0.000810762
0.000809176
0.000807579
0.000805963
0.000804336
0.000802757
0.000801234
0.000799706
0.000798139
0.000796594
0.000795044
0.00079349
0.000791961
0.000790406
0.00078886
0.000787355
0.000785868
0.000784389
0.000782907
0.000781439
0.000779998
0.000778554
0.000777092
0.000775631
0.000774187
0.00077276
0.000771363
0.000769942
0.000768484
0.000767089
0.000765739
0.000764394
0.000763042
0.000761682
0.000760335
0.000758974
0.00075761
0.000756313
0.000755047
0.000753777
0.000752509
0.00075124
0.000750003
0.000748762
0.000747511
0.000746283
0.00074501
0.000743733
0.000742523
0.000741327
0.000740123
0.000738926
0.000737734
0.000736553
0.000735416
0.000734292
0.000733167
0.000732051
0.000730929
0.000729811
0.000728689
0.00072756
0.000726439
0.000725336
0.000724271
0.000723222
0.000722167
0.000721115
0.000720058
0.00071901
0.000717996
0.000716995
0.000716002
0.000715036
0.000714091
0.00071311
0.000712069
0.000711057
0.000710104
0.000709143
0.000708186
0.000707285
0.000706402
0.000705499
0.000704571
0.000703666
0.00070277
0.000701854
0.000700968
0.000700104
0.000699246
0.000698412
0.000697602
0.000696774
0.000695953
0.000695166
0.000694362
0.000693554
0.000692755
0.000691963
0.000691174
0.000690401
0.000689643
0.000688886
0.000688135
0.000687396
0.000686681
0.000685983
0.00068528
0.000684554
0.000683836
0.000683123
0.000682414
0.000681724
0.000681052
0.00068041
0.00067976
0.000679109
0.00067848
0.000677846
0.000677215
0.000676585
0.00067596
0.000675357
0.000674762
0.000674173
0.000673602
0.000673019
0.000672428
0.000671847
0.00067128
0.000670715
0.000670125
0.000669563
0.000669064
0.000668586
0.000668097
0.000667588
0.000667072
0.000666533
0.000665964
0.000665437
0.000664957
0.000664494
0.000664043
0.000663593
0.000663136
0.00066267
0.000662204
0.000661751
0.000661318
0.000660901
0.000660494
0.000660093
0.000659697
0.000659306
0.000658919
0.000658537
0.000658162
0.00065779
0.00065742
0.00065705
0.000656681
0.000656317
0.000655964
0.000655624
0.000655292
0.000654962
0.000654631
0.0006543
0.000653977
0.000653659
0.000653341
0.000653038
0.000652743
0.000652443
0.000652139
0.000651846
0.000651561
0.000651278
0.000651001
0.000650733
0.00065047
0.000650209
0.000649953
0.000649691
0.000649421
0.000649157
0.000648884
0.000648591
0.000648311
0.000648063
0.000647837
0.000647622
0.000647415
0.00064721
0.000647008
0.000646807
0.000646607
0.000646408
0.000646211
0.000646013
0.00064581
0.000645609
0.00064542
0.000645242
0.000645067
0.00064489
0.000644711
0.000644537
0.00064437
0.000644197
0.000644022
0.000643861
0.000643711
0.000643563
0.000643419
0.000643281
0.000643143
0.000643
0.000642852
0.00064271
0.000642578
0.000642452
0.000642328
0.000642204
0.000642081
0.000641961
0.000641846
0.000641735
0.000641628
0.000641522
0.000641416
0.00064131
0.000641206
0.000641103
0.000640998
0.000640897
0.000640795
0.000640693
0.000640598
0.000640507
0.000640409
0.000640299
0.000640199
0.000640116
0.000640041
0.000639969
0.000639898
0.000639829
0.000639761
0.000639694
0.000639628
0.000639562
0.000639497
0.000639433
0.000639369
0.000639307
0.000639247
0.00063919
0.000639136
0.000639083
0.00063903
0.000638978
0.000638928
0.000638877
0.000638823
0.000638771
0.000638722
0.000638676
0.000638633
0.000638591
0.00063855
0.000638512
0.000638473
0.000638436
0.000638399
0.000638364
0.00063833
0.000638296
0.000638263
0.00063823
0.000638199
0.00063817
0.000638142
0.000638114
0.000638087
0.00063806
0.000638033
0.000638007
0.000637982
0.000637959
0.000637937
0.000637916
0.000637896
0.000637876
0.000637856
0.000637837
0.000637818
0.0006378
0.000637783
0.000637766
0.00063775
0.000637735
0.00063772
0.000637706
0.000637692
0.000637678
0.000637665
0.000637652
0.00063764
0.000637628
0.000637617
0.000637607
0.000637597
0.000637587
0.000637578
0.00063757
0.000637562
0.000637554
0.000637547
0.00063754
0.000637533
0.000637527
0.000637521
0.000637515
0.00063751
0.000637505
0.0006375
0.000637496
0.000637492
0.000637488
0.000637485
0.000637482
0.000637479
0.000637476
0.000637474
0.000637472
0.000637471
0.000637469
0.000637469
0.000637468
0.000637468
0.000914325
0.000912416
0.00091048
0.000908539
0.000906589
0.000904641
0.000902732
0.000900766
0.000898854
0.000896957
0.000894988
0.000893054
0.000891176
0.00088927
0.000887286
0.000885356
0.00088347
0.000881539
0.000879637
0.000877725
0.000875829
0.000873962
0.000872113
0.000870302
0.000868492
0.000866676
0.000864827
0.000862949
0.000861053
0.000859215
0.000857444
0.000855659
0.000853857
0.000852047
0.000850274
0.000848504
0.000846687
0.000844925
0.000843199
0.000841422
0.000839626
0.00083786
0.000836124
0.000834413
0.000832649
0.000830881
0.000829195
0.000827544
0.000825871
0.000824133
0.000822405
0.000820723
0.000819069
0.000817406
0.000815732
0.000814083
0.000812424
0.000810784
0.000809154
0.000807549
0.000805969
0.00080436
0.000802758
0.000801221
0.000799712
0.000798139
0.000796567
0.000795025
0.000793489
0.00079194
0.000790412
0.000788894
0.00078735
0.000785864
0.000784398
0.00078291
0.000781443
0.000779992
0.000778519
0.000777074
0.000775644
0.000774194
0.000772756
0.000771363
0.000769958
0.000768528
0.000767117
0.000765712
0.000764353
0.000763022
0.000761664
0.000760303
0.00075897
0.000757634
0.00075633
0.000755069
0.000753805
0.000752535
0.000751266
0.000750011
0.000748771
0.000747517
0.000746267
0.000745007
0.000743731
0.000742494
0.000741294
0.000740114
0.000738936
0.000737742
0.000736569
0.000735422
0.000734286
0.000733172
0.000732054
0.000730932
0.000729811
0.000728675
0.000727543
0.000726436
0.000725353
0.000724285
0.00072322
0.000722159
0.000721109
0.000720059
0.000719022
0.000718002
0.000716994
0.00071601
0.000715045
0.000714071
0.000713073
0.00071207
0.00071108
0.000710113
0.000709154
0.0007082
0.000707282
0.00070639
0.000705489
0.000704567
0.000703662
0.000702771
0.000701862
0.000700968
0.000700103
0.000699254
0.000698424
0.000697604
0.000696775
0.000695959
0.000695166
0.000694356
0.000693534
0.000692742
0.000691959
0.000691169
0.0006904
0.000689642
0.000688892
0.000688141
0.000687395
0.000686676
0.000685978
0.00068528
0.00068457
0.000683853
0.000683126
0.000682402
0.000681712
0.000681049
0.000680397
0.000679753
0.000679124
0.000678497
0.000677854
0.000677213
0.000676587
0.000675969
0.000675361
0.000674771
0.00067419
0.000673603
0.00067301
0.000672419
0.000671836
0.000671259
0.000670666
0.000670085
0.000669562
0.000669074
0.000668588
0.000668095
0.000667588
0.000667068
0.000666532
0.000665983
0.000665458
0.000664973
0.000664509
0.000664052
0.00066359
0.000663121
0.000662654
0.000662198
0.000661756
0.000661327
0.000660908
0.000660497
0.000660095
0.000659699
0.000659305
0.000658916
0.000658533
0.000658157
0.000657784
0.000657415
0.00065705
0.000656691
0.000656333
0.000655976
0.000655626
0.000655284
0.000654951
0.000654623
0.000654298
0.000653977
0.000653656
0.000653342
0.000653039
0.000652741
0.000652442
0.000652146
0.000651852
0.00065156
0.000651277
0.000651005
0.000650738
0.000650473
0.000650208
0.000649949
0.000649688
0.00064942
0.00064915
0.000648874
0.000648576
0.000648296
0.00064806
0.000647842
0.000647632
0.000647425
0.000647216
0.000647009
0.000646806
0.000646604
0.000646404
0.000646204
0.000646005
0.000645807
0.000645615
0.00064543
0.000645248
0.000645068
0.000644889
0.000644713
0.000644539
0.000644365
0.00064419
0.000644022
0.000643865
0.000643713
0.000643564
0.00064342
0.00064328
0.000643139
0.000642995
0.000642849
0.000642709
0.000642578
0.000642451
0.000642327
0.000642203
0.000642081
0.000641964
0.00064185
0.000641738
0.00064163
0.000641524
0.000641418
0.000641313
0.000641208
0.000641103
0.000641
0.000640895
0.000640787
0.000640681
0.000640589
0.000640497
0.000640394
0.000640295
0.000640206
0.000640124
0.000640047
0.000639973
0.0006399
0.000639829
0.000639761
0.000639694
0.000639628
0.000639561
0.000639496
0.000639431
0.000639368
0.000639307
0.000639248
0.000639192
0.000639138
0.000639084
0.00063903
0.000638977
0.000638924
0.000638872
0.00063882
0.000638771
0.000638723
0.000638678
0.000638635
0.000638592
0.000638552
0.000638512
0.000638474
0.000638436
0.0006384
0.000638364
0.000638329
0.000638295
0.000638262
0.00063823
0.000638199
0.00063817
0.000638142
0.000638114
0.000638086
0.000638059
0.000638032
0.000638007
0.000637983
0.00063796
0.000637938
0.000637917
0.000637896
0.000637876
0.000637856
0.000637836
0.000637818
0.0006378
0.000637783
0.000637766
0.00063775
0.000637735
0.00063772
0.000637706
0.000637691
0.000637678
0.000637664
0.000637652
0.00063764
0.000637628
0.000637617
0.000637607
0.000637597
0.000637587
0.000637578
0.00063757
0.000637561
0.000637554
0.000637547
0.00063754
0.000637533
0.000637527
0.000637521
0.000637515
0.00063751
0.000637505
0.0006375
0.000637496
0.000637492
0.000637488
0.000637485
0.000637482
0.000637479
0.000637476
0.000637474
0.000637472
0.000637471
0.000637469
0.000637469
0.000637468
0.000637468
0.000914331
0.000912412
0.000910476
0.00090852
0.000906565
0.000904613
0.000902695
0.000900754
0.000898816
0.000896889
0.000894968
0.000893094
0.000891197
0.000889274
0.000887311
0.000885373
0.000883473
0.000881545
0.000879633
0.00087771
0.000875835
0.000873953
0.000872101
0.00087031
0.000868448
0.000866625
0.000864824
0.000862934
0.000861044
0.000859244
0.000857475
0.000855693
0.000853904
0.000852086
0.000850261
0.00084847
0.000846686
0.000844947
0.000843226
0.000841423
0.0008396
0.000837827
0.0008361
0.000834388
0.00083265
0.000830916
0.000829221
0.000827544
0.00082585
0.000824143
0.000822417
0.000820686
0.000819046
0.000817404
0.00081572
0.000814068
0.000812439
0.000810811
0.000809187
0.000807572
0.000805969
0.000804351
0.000802761
0.000801239
0.000799719
0.000798162
0.000796594
0.00079503
0.000793466
0.000791897
0.000790381
0.0007889
0.000787388
0.000785879
0.000784367
0.000782858
0.000781409
0.000779963
0.000778503
0.000777091
0.00077566
0.0007742
0.000772777
0.00077139
0.000769981
0.000768539
0.00076712
0.000765712
0.000764346
0.000762993
0.000761649
0.000760312
0.000758967
0.000757645
0.00075635
0.00075506
0.000753793
0.000752556
0.000751308
0.000750033
0.000748776
0.000747528
0.000746257
0.000744989
0.000743725
0.000742479
0.000741272
0.000740097
0.000738923
0.000737745
0.00073659
0.000735442
0.000734293
0.000733167
0.000732049
0.000730935
0.000729819
0.000728678
0.000727538
0.000726438
0.000725361
0.000724289
0.00072322
0.000722168
0.000721117
0.000720051
0.000719005
0.000717988
0.000716993
0.00071601
0.000715038
0.000714058
0.00071307
0.000712083
0.000711089
0.000710114
0.000709155
0.000708203
0.000707275
0.000706367
0.000705462
0.000704567
0.000703679
0.00070278
0.000701876
0.000700977
0.000700102
0.00069926
0.000698437
0.000697604
0.000696771
0.000695955
0.000695151
0.000694349
0.000693543
0.000692749
0.000691958
0.000691168
0.000690405
0.000689647
0.000688883
0.000688126
0.000687383
0.000686667
0.00068598
0.000685293
0.000684586
0.000683861
0.000683118
0.00068239
0.000681705
0.000681052
0.000680408
0.00067976
0.000679122
0.00067849
0.000677855
0.000677227
0.000676608
0.000675985
0.000675367
0.000674773
0.000674191
0.000673592
0.000672983
0.000672385
0.000671795
0.000671201
0.000670628
0.000670097
0.000669586
0.000669086
0.000668583
0.000668078
0.000667574
0.000667065
0.000666542
0.000666011
0.00066549
0.000664995
0.000664526
0.000664062
0.000663592
0.000663118
0.000662647
0.000662194
0.000661759
0.000661333
0.000660915
0.000660504
0.0006601
0.000659699
0.000659301
0.00065891
0.000658528
0.000658154
0.000657783
0.000657416
0.000657054
0.000656695
0.000656338
0.00065598
0.000655625
0.000655279
0.000654944
0.000654616
0.000654294
0.000653974
0.000653657
0.000653345
0.000653039
0.000652739
0.000652446
0.000652153
0.000651856
0.000651562
0.000651279
0.000651004
0.000650735
0.000650469
0.000650206
0.000649947
0.000649683
0.000649412
0.000649136
0.00064885
0.000648554
0.000648296
0.000648069
0.000647854
0.000647643
0.000647432
0.000647221
0.000647012
0.000646806
0.000646603
0.0006464
0.000646198
0.000646
0.000645807
0.000645619
0.000645434
0.000645251
0.000645068
0.00064489
0.000644715
0.000644541
0.000644365
0.000644189
0.000644021
0.000643863
0.00064371
0.000643562
0.00064342
0.00064328
0.000643136
0.000642991
0.000642847
0.000642708
0.000642578
0.000642452
0.000642328
0.000642205
0.000642084
0.000641966
0.000641851
0.00064174
0.000641632
0.000641525
0.000641419
0.000641314
0.000641209
0.000641103
0.000640994
0.000640881
0.000640769
0.000640669
0.000640579
0.00064049
0.000640396
0.000640304
0.000640216
0.000640132
0.000640051
0.000639974
0.000639901
0.00063983
0.000639762
0.000639694
0.000639628
0.000639561
0.000639495
0.000639431
0.000639367
0.000639306
0.000639249
0.000639193
0.000639138
0.000639084
0.000639029
0.000638974
0.00063892
0.000638869
0.000638819
0.000638772
0.000638725
0.00063868
0.000638636
0.000638593
0.000638552
0.000638513
0.000638475
0.000638437
0.000638401
0.000638364
0.000638329
0.000638294
0.000638261
0.000638229
0.000638198
0.00063817
0.000638141
0.000638114
0.000638086
0.000638058
0.000638032
0.000638007
0.000637983
0.00063796
0.000637938
0.000637917
0.000637896
0.000637876
0.000637856
0.000637837
0.000637818
0.0006378
0.000637783
0.000637766
0.00063775
0.000637735
0.00063772
0.000637705
0.000637691
0.000637678
0.000637664
0.000637652
0.00063764
0.000637628
0.000637617
0.000637607
0.000637597
0.000637587
0.000637578
0.00063757
0.000637562
0.000637554
0.000637547
0.00063754
0.000637533
0.000637527
0.000637521
0.000637515
0.00063751
0.000637505
0.0006375
0.000637496
0.000637492
0.000637488
0.000637485
0.000637482
0.000637479
0.000637476
0.000637474
0.000637472
0.000637471
0.000637469
0.000637469
0.000637468
0.000637468
0.000914345
0.000912435
0.000910472
0.000908493
0.000906547
0.000904592
0.000902672
0.000900742
0.000898789
0.00089688
0.000894974
0.000893133
0.000891254
0.000889228
0.000887258
0.000885384
0.000883497
0.000881584
0.000879669
0.000877708
0.00087579
0.000873925
0.0008721
0.000870295
0.00086845
0.000866642
0.000864836
0.000862943
0.000861076
0.000859251
0.000857435
0.000855673
0.000853916
0.000852105
0.000850264
0.000848484
0.000846739
0.000844971
0.000843168
0.000841357
0.00083959
0.000837823
0.000836083
0.000834386
0.000832675
0.00083095
0.000829258
0.000827577
0.000825838
0.000824105
0.000822397
0.000820698
0.000819034
0.000817389
0.000815735
0.00081407
0.000812434
0.00081081
0.000809179
0.000807572
0.00080597
0.000804368
0.000802788
0.000801253
0.000799739
0.000798181
0.000796613
0.000795041
0.000793463
0.000791896
0.000790367
0.000788878
0.000787359
0.00078585
0.000784354
0.000782846
0.000781384
0.00077995
0.000778514
0.000777067
0.000775635
0.000774221
0.000772798
0.000771393
0.000769981
0.000768544
0.000767126
0.00076573
0.000764348
0.000762988
0.000761651
0.000760321
0.000758978
0.000757647
0.000756351
0.000755066
0.000753791
0.000752543
0.000751308
0.000750057
0.000748794
0.000747525
0.000746263
0.000744994
0.00074372
0.00074247
0.000741262
0.000740094
0.000738919
0.000737741
0.000736592
0.000735464
0.000734322
0.00073316
0.000732017
0.000730923
0.000729836
0.000728699
0.000727556
0.000726453
0.000725367
0.000724292
0.000723228
0.000722167
0.000721094
0.000720029
0.000718998
0.00071799
0.000716988
0.000716
0.000715031
0.000714053
0.000713068
0.000712096
0.000711114
0.000710121
0.000709155
0.000708209
0.000707264
0.000706343
0.000705449
0.00070456
0.000703668
0.000702775
0.000701884
0.000700992
0.000700121
0.000699276
0.000698439
0.000697603
0.000696779
0.00069596
0.000695143
0.000694332
0.000693529
0.000692737
0.00069195
0.000691179
0.000690421
0.000689654
0.000688877
0.00068811
0.000687365
0.000686656
0.000685978
0.000685293
0.000684588
0.00068386
0.000683119
0.000682397
0.000681713
0.000681061
0.000680413
0.000679767
0.000679125
0.000678491
0.000677867
0.000677247
0.000676628
0.000676007
0.000675384
0.000674772
0.000674167
0.000673553
0.000672936
0.000672329
0.000671743
0.000671182
0.000670641
0.000670118
0.000669606
0.000669093
0.000668576
0.000668063
0.00066756
0.000667057
0.000666542
0.000666025
0.000665516
0.000665021
0.000664546
0.000664076
0.0006636
0.000663124
0.000662646
0.00066219
0.00066176
0.000661339
0.000660922
0.00066051
0.0006601
0.000659695
0.000659297
0.000658907
0.000658529
0.000658157
0.000657786
0.000657416
0.000657051
0.00065669
0.000656333
0.000655981
0.000655628
0.00065528
0.000654943
0.000654614
0.000654291
0.00065397
0.000653654
0.000653344
0.00065304
0.000652743
0.000652451
0.00065216
0.000651859
0.00065156
0.000651279
0.000651005
0.000650735
0.000650466
0.000650197
0.000649934
0.000649668
0.000649391
0.000649104
0.000648823
0.000648557
0.000648311
0.000648083
0.000647867
0.000647652
0.000647438
0.000647224
0.000647013
0.000646805
0.000646599
0.000646397
0.000646197
0.000646
0.000645808
0.00064562
0.000645434
0.000645251
0.00064507
0.000644893
0.000644718
0.000644544
0.000644366
0.000644187
0.000644016
0.000643858
0.00064371
0.000643566
0.000643423
0.000643278
0.00064313
0.000642984
0.000642845
0.000642709
0.000642579
0.000642453
0.000642329
0.000642206
0.000642086
0.000641969
0.000641854
0.000641742
0.000641631
0.000641524
0.000641419
0.000641314
0.000641206
0.000641094
0.000640976
0.000640863
0.000640762
0.000640668
0.000640578
0.000640489
0.0006404
0.000640311
0.000640223
0.000640137
0.000640053
0.000639975
0.000639902
0.000639832
0.000639763
0.000639695
0.000639628
0.000639561
0.000639495
0.00063943
0.000639366
0.000639306
0.000639249
0.000639193
0.000639138
0.000639082
0.000639026
0.000638971
0.000638919
0.000638868
0.00063882
0.000638773
0.000638727
0.000638681
0.000638637
0.000638593
0.000638552
0.000638513
0.000638475
0.000638438
0.000638401
0.000638365
0.000638329
0.000638294
0.00063826
0.000638228
0.000638199
0.00063817
0.000638141
0.000638113
0.000638085
0.000638058
0.000638032
0.000638008
0.000637984
0.000637961
0.000637939
0.000637917
0.000637896
0.000637875
0.000637856
0.000637837
0.000637818
0.0006378
0.000637783
0.000637766
0.00063775
0.000637734
0.00063772
0.000637705
0.000637691
0.000637678
0.000637665
0.000637652
0.00063764
0.000637628
0.000637617
0.000637607
0.000637596
0.000637587
0.000637578
0.00063757
0.000637562
0.000637554
0.000637547
0.00063754
0.000637533
0.000637527
0.000637521
0.000637515
0.00063751
0.000637505
0.0006375
0.000637496
0.000637492
0.000637488
0.000637485
0.000637482
0.000637479
0.000637476
0.000637474
0.000637472
0.000637471
0.000637469
0.000637468
0.000637468
0.000637468
0.000914353
0.000912471
0.000910522
0.000908513
0.00090656
0.000904583
0.000902626
0.0009007
0.000898798
0.00089692
0.000894999
0.000893121
0.000891211
0.000889222
0.000887277
0.000885343
0.000883452
0.000881589
0.000879701
0.000877771
0.000875827
0.00087392
0.000872074
0.000870285
0.000868466
0.000866611
0.000864795
0.00086296
0.000861124
0.000859268
0.000857423
0.000855661
0.000853899
0.000852122
0.0008503
0.000848495
0.000846735
0.000844957
0.000843145
0.00084134
0.000839577
0.000837822
0.000836094
0.000834397
0.000832675
0.000830949
0.000829258
0.000827574
0.000825863
0.000824114
0.000822374
0.000820705
0.000819051
0.000817375
0.000815726
0.000814085
0.000812432
0.000810801
0.000809192
0.000807582
0.000805978
0.000804398
0.000802816
0.000801262
0.000799741
0.000798179
0.000796604
0.000795043
0.00079347
0.000791893
0.000790352
0.000788836
0.000787308
0.000785821
0.000784352
0.000782852
0.00078137
0.000779929
0.000778505
0.000777083
0.000775649
0.000774216
0.000772804
0.000771402
0.000769983
0.000768555
0.000767142
0.000765733
0.000764338
0.000762984
0.000761667
0.000760338
0.000758974
0.000757639
0.00075635
0.000755071
0.000753803
0.000752544
0.000751286
0.000750049
0.000748818
0.000747554
0.000746258
0.000744954
0.000743686
0.000742471
0.000741292
0.000740121
0.000738926
0.000737732
0.00073658
0.000735459
0.000734328
0.000733169
0.000732024
0.000730923
0.000729836
0.000728724
0.000727587
0.000726463
0.000725372
0.000724294
0.000723228
0.000722158
0.000721081
0.000720029
0.000718996
0.000717979
0.00071698
0.000715997
0.000715023
0.000714043
0.000713068
0.000712113
0.000711136
0.000710124
0.000709137
0.00070818
0.000707247
0.000706343
0.000705452
0.000704564
0.000703669
0.000702768
0.000701882
0.00070101
0.000700141
0.000699282
0.000698438
0.000697609
0.000696785
0.00069596
0.000695134
0.000694312
0.000693511
0.000692732
0.000691966
0.000691196
0.000690424
0.000689642
0.000688853
0.000688092
0.000687369
0.000686664
0.000685969
0.000685275
0.000684578
0.000683858
0.000683126
0.000682413
0.00068173
0.000681076
0.000680424
0.000679767
0.000679122
0.000678498
0.000677882
0.000677266
0.00067665
0.000676025
0.0006754
0.000674784
0.000674164
0.000673522
0.000672869
0.000672262
0.000671708
0.000671173
0.000670651
0.000670138
0.00066962
0.000669097
0.000668573
0.000668055
0.000667548
0.000667046
0.000666539
0.000666032
0.000665529
0.000665036
0.000664561
0.000664088
0.00066361
0.000663134
0.000662656
0.000662195
0.000661761
0.00066134
0.000660923
0.000660509
0.000660098
0.000659694
0.000659299
0.000658912
0.000658533
0.00065816
0.000657786
0.000657412
0.000657044
0.000656684
0.000656332
0.000655985
0.000655636
0.000655288
0.000654944
0.000654611
0.000654286
0.000653967
0.000653652
0.000653343
0.000653042
0.00065275
0.000652458
0.000652161
0.000651858
0.00065156
0.000651278
0.000651002
0.000650725
0.00065045
0.000650181
0.000649918
0.000649648
0.000649368
0.00064909
0.000648822
0.000648566
0.000648325
0.000648096
0.000647876
0.000647659
0.000647442
0.000647227
0.000647014
0.000646805
0.000646599
0.000646395
0.000646196
0.000646001
0.000645809
0.00064562
0.000645433
0.000645249
0.00064507
0.000644895
0.00064472
0.000644542
0.000644361
0.000644182
0.000644015
0.00064386
0.000643712
0.000643567
0.000643422
0.000643275
0.000643126
0.000642982
0.000642844
0.000642711
0.000642582
0.000642455
0.00064233
0.000642207
0.000642087
0.000641969
0.000641854
0.000641742
0.000641633
0.000641524
0.000641418
0.000641311
0.000641199
0.000641078
0.00064096
0.000640856
0.000640761
0.000640669
0.000640579
0.000640491
0.000640403
0.000640314
0.000640226
0.00064014
0.000640056
0.000639978
0.000639904
0.000639833
0.000639764
0.000639695
0.000639627
0.000639559
0.000639493
0.000639429
0.000639367
0.000639306
0.000639249
0.000639193
0.000639137
0.000639081
0.000639025
0.000638971
0.000638919
0.000638869
0.000638821
0.000638774
0.000638728
0.000638682
0.000638637
0.000638593
0.000638552
0.000638513
0.000638475
0.000638438
0.000638401
0.000638365
0.000638329
0.000638293
0.00063826
0.000638228
0.000638199
0.000638169
0.00063814
0.000638112
0.000638085
0.000638058
0.000638033
0.000638008
0.000637985
0.000637962
0.000637939
0.000637917
0.000637896
0.000637875
0.000637855
0.000637836
0.000637818
0.0006378
0.000637783
0.000637766
0.00063775
0.000637734
0.000637719
0.000637705
0.000637691
0.000637678
0.000637664
0.000637652
0.00063764
0.000637629
0.000637617
0.000637606
0.000637596
0.000637587
0.000637578
0.00063757
0.000637562
0.000637554
0.000637547
0.00063754
0.000637533
0.000637527
0.000637521
0.000637515
0.00063751
0.000637505
0.0006375
0.000637496
0.000637492
0.000637488
0.000637485
0.000637481
0.000637479
0.000637476
0.000637474
0.000637472
0.000637471
0.000637469
0.000637468
0.000637468
0.000637468
0.000914356
0.000912458
0.000910532
0.000908571
0.000906601
0.000904598
0.000902615
0.000900682
0.000898768
0.000896875
0.000894991
0.000893108
0.000891162
0.000889187
0.00088726
0.000885359
0.000883471
0.000881578
0.000879702
0.000877813
0.000875848
0.000873936
0.000872111
0.000870311
0.000868481
0.000866608
0.000864767
0.000862931
0.000861102
0.000859263
0.000857428
0.000855644
0.000853888
0.000852126
0.000850333
0.000848524
0.00084671
0.000844912
0.000843135
0.000841372
0.000839599
0.000837826
0.000836096
0.000834394
0.000832661
0.00083094
0.000829258
0.000827562
0.000825852
0.000824126
0.000822389
0.00082071
0.000819054
0.000817373
0.000815722
0.000814095
0.00081245
0.000810817
0.000809205
0.000807594
0.000806004
0.000804423
0.000802825
0.000801242
0.000799715
0.000798187
0.000796611
0.000795008
0.000793424
0.000791893