/*--------------------------------*- C++ -*----------------------------------*\
  =========                 |
  \\      /  F ield         | OpenFOAM: The Open Source CFD Toolbox
   \\    /   O peration     | Website:  https://openfoam.org
    \\  /    A nd           | Version:  7
     \\/     M anipulation  |
\*---------------------------------------------------------------------------*/
FoamFile
{
    version     2.0;
    format      ascii;
    class       volScalarField;
    location    "5500";
    object      mu2;
}
// * * * * * * * * * * * * * * * * * * * * * * * * * * * * * * * * * * * * * //

dimensions      [1 -1 -1 0 0 0 0];

internalField   nonuniform List<scalar> 
160000
(
1.84558e-05
1.84602e-05
1.84646e-05
1.8469e-05
1.84735e-05
1.8478e-05
1.84824e-05
1.84868e-05
1.84911e-05
1.84956e-05
1.85001e-05
1.85046e-05
1.8509e-05
1.85136e-05
1.85181e-05
1.85225e-05
1.85269e-05
1.85312e-05
1.85357e-05
1.85402e-05
1.85446e-05
1.8549e-05
1.85533e-05
1.85577e-05
1.85619e-05
1.85662e-05
1.85707e-05
1.85752e-05
1.85797e-05
1.8584e-05
1.85882e-05
1.85924e-05
1.85968e-05
1.86011e-05
1.86052e-05
1.86095e-05
1.86139e-05
1.86183e-05
1.86225e-05
1.86267e-05
1.86309e-05
1.86351e-05
1.86394e-05
1.86436e-05
1.86478e-05
1.86522e-05
1.86564e-05
1.86605e-05
1.86645e-05
1.86686e-05
1.86726e-05
1.86769e-05
1.86812e-05
1.86853e-05
1.86895e-05
1.86936e-05
1.86977e-05
1.87018e-05
1.87056e-05
1.87095e-05
1.87136e-05
1.87178e-05
1.87217e-05
1.87255e-05
1.87293e-05
1.87332e-05
1.87372e-05
1.87412e-05
1.87451e-05
1.87487e-05
1.87526e-05
1.87566e-05
1.87604e-05
1.87643e-05
1.87681e-05
1.87718e-05
1.87756e-05
1.87792e-05
1.8783e-05
1.87867e-05
1.87904e-05
1.87942e-05
1.87979e-05
1.88015e-05
1.88052e-05
1.88089e-05
1.88125e-05
1.8816e-05
1.88195e-05
1.8823e-05
1.88265e-05
1.883e-05
1.88336e-05
1.88372e-05
1.88407e-05
1.8844e-05
1.88473e-05
1.88507e-05
1.8854e-05
1.88572e-05
1.88605e-05
1.88638e-05
1.88671e-05
1.88705e-05
1.88738e-05
1.8877e-05
1.88802e-05
1.88834e-05
1.88866e-05
1.88898e-05
1.8893e-05
1.8896e-05
1.88991e-05
1.89021e-05
1.89051e-05
1.89081e-05
1.89111e-05
1.89141e-05
1.89172e-05
1.89203e-05
1.89232e-05
1.89261e-05
1.89289e-05
1.89318e-05
1.89347e-05
1.89376e-05
1.89405e-05
1.89433e-05
1.8946e-05
1.89487e-05
1.89514e-05
1.8954e-05
1.89567e-05
1.89595e-05
1.89623e-05
1.8965e-05
1.89676e-05
1.89702e-05
1.89728e-05
1.89752e-05
1.89777e-05
1.89803e-05
1.89828e-05
1.89852e-05
1.89878e-05
1.89903e-05
1.89928e-05
1.89952e-05
1.89975e-05
1.89998e-05
1.90021e-05
1.90044e-05
1.90066e-05
1.90089e-05
1.90111e-05
1.90134e-05
1.90156e-05
1.90178e-05
1.90201e-05
1.90222e-05
1.90244e-05
1.90265e-05
1.90285e-05
1.90306e-05
1.90326e-05
1.90346e-05
1.90367e-05
1.90387e-05
1.90407e-05
1.90427e-05
1.90447e-05
1.90467e-05
1.90485e-05
1.90504e-05
1.90523e-05
1.90541e-05
1.90559e-05
1.90577e-05
1.90595e-05
1.90613e-05
1.90631e-05
1.90648e-05
1.90665e-05
1.90682e-05
1.90698e-05
1.90715e-05
1.90732e-05
1.90748e-05
1.90765e-05
1.90781e-05
1.90798e-05
1.90813e-05
1.90827e-05
1.90841e-05
1.90856e-05
1.90871e-05
1.90886e-05
1.90903e-05
1.90919e-05
1.90933e-05
1.90947e-05
1.9096e-05
1.90973e-05
1.90986e-05
1.90999e-05
1.91013e-05
1.91027e-05
1.9104e-05
1.91052e-05
1.91064e-05
1.91076e-05
1.91087e-05
1.91099e-05
1.9111e-05
1.91121e-05
1.91132e-05
1.91143e-05
1.91154e-05
1.91165e-05
1.91176e-05
1.91187e-05
1.91198e-05
1.91208e-05
1.91217e-05
1.91227e-05
1.91237e-05
1.91247e-05
1.91256e-05
1.91266e-05
1.91276e-05
1.91284e-05
1.91293e-05
1.91302e-05
1.91311e-05
1.9132e-05
1.91328e-05
1.91337e-05
1.91345e-05
1.91353e-05
1.91361e-05
1.91369e-05
1.91376e-05
1.91384e-05
1.91392e-05
1.914e-05
1.91408e-05
1.91417e-05
1.91425e-05
1.91433e-05
1.9144e-05
1.91446e-05
1.91453e-05
1.91459e-05
1.91465e-05
1.91471e-05
1.91477e-05
1.91483e-05
1.91488e-05
1.91494e-05
1.915e-05
1.91507e-05
1.91513e-05
1.91518e-05
1.91523e-05
1.91528e-05
1.91533e-05
1.91539e-05
1.91544e-05
1.91549e-05
1.91554e-05
1.91559e-05
1.91564e-05
1.91568e-05
1.91573e-05
1.91577e-05
1.91581e-05
1.91585e-05
1.9159e-05
1.91594e-05
1.91598e-05
1.91602e-05
1.91605e-05
1.91609e-05
1.91613e-05
1.91617e-05
1.9162e-05
1.91623e-05
1.91627e-05
1.9163e-05
1.91633e-05
1.91636e-05
1.91639e-05
1.91643e-05
1.91646e-05
1.91649e-05
1.91652e-05
1.91655e-05
1.91658e-05
1.9166e-05
1.91663e-05
1.91666e-05
1.9167e-05
1.91672e-05
1.91675e-05
1.91677e-05
1.91679e-05
1.91681e-05
1.91683e-05
1.91685e-05
1.91687e-05
1.91689e-05
1.91691e-05
1.91693e-05
1.91695e-05
1.91697e-05
1.91699e-05
1.91701e-05
1.91702e-05
1.91704e-05
1.91705e-05
1.91707e-05
1.91708e-05
1.9171e-05
1.91711e-05
1.91713e-05
1.91715e-05
1.91716e-05
1.91717e-05
1.91719e-05
1.9172e-05
1.91721e-05
1.91722e-05
1.91723e-05
1.91724e-05
1.91726e-05
1.91727e-05
1.91728e-05
1.91729e-05
1.9173e-05
1.91731e-05
1.91731e-05
1.91732e-05
1.91733e-05
1.91734e-05
1.91735e-05
1.91736e-05
1.91736e-05
1.91737e-05
1.91738e-05
1.91739e-05
1.91739e-05
1.9174e-05
1.9174e-05
1.91741e-05
1.91742e-05
1.91742e-05
1.91743e-05
1.91743e-05
1.91744e-05
1.91744e-05
1.91745e-05
1.91745e-05
1.91746e-05
1.91746e-05
1.91746e-05
1.91747e-05
1.91747e-05
1.91748e-05
1.91748e-05
1.91748e-05
1.91749e-05
1.91749e-05
1.91749e-05
1.91749e-05
1.9175e-05
1.9175e-05
1.9175e-05
1.9175e-05
1.91751e-05
1.91751e-05
1.91751e-05
1.91751e-05
1.91751e-05
1.91752e-05
1.91752e-05
1.91752e-05
1.91752e-05
1.91752e-05
1.91752e-05
1.91752e-05
1.91752e-05
1.91752e-05
1.91753e-05
1.91753e-05
1.91753e-05
1.91753e-05
1.91753e-05
1.91753e-05
1.91753e-05
1.91753e-05
1.84559e-05
1.84603e-05
1.84646e-05
1.8469e-05
1.84735e-05
1.84779e-05
1.84824e-05
1.84868e-05
1.84912e-05
1.84956e-05
1.85001e-05
1.85046e-05
1.8509e-05
1.85135e-05
1.85181e-05
1.85225e-05
1.85268e-05
1.85312e-05
1.85358e-05
1.85403e-05
1.85447e-05
1.8549e-05
1.85534e-05
1.85577e-05
1.8562e-05
1.85662e-05
1.85706e-05
1.85752e-05
1.85797e-05
1.8584e-05
1.85883e-05
1.85925e-05
1.85968e-05
1.86011e-05
1.86052e-05
1.86095e-05
1.8614e-05
1.86182e-05
1.86223e-05
1.86267e-05
1.8631e-05
1.86352e-05
1.86394e-05
1.86436e-05
1.86478e-05
1.86522e-05
1.86564e-05
1.86604e-05
1.86645e-05
1.86686e-05
1.86728e-05
1.8677e-05
1.86811e-05
1.86853e-05
1.86895e-05
1.86935e-05
1.86977e-05
1.87017e-05
1.87056e-05
1.87096e-05
1.87136e-05
1.87177e-05
1.87217e-05
1.87255e-05
1.87293e-05
1.87332e-05
1.87371e-05
1.8741e-05
1.8745e-05
1.87488e-05
1.87528e-05
1.87567e-05
1.87605e-05
1.87643e-05
1.8768e-05
1.87718e-05
1.87756e-05
1.87793e-05
1.87829e-05
1.87867e-05
1.87905e-05
1.87942e-05
1.87978e-05
1.88014e-05
1.88051e-05
1.88089e-05
1.88125e-05
1.8816e-05
1.88195e-05
1.8823e-05
1.88266e-05
1.88301e-05
1.88336e-05
1.88372e-05
1.88406e-05
1.88439e-05
1.88473e-05
1.88506e-05
1.8854e-05
1.88572e-05
1.88605e-05
1.88638e-05
1.88671e-05
1.88704e-05
1.88738e-05
1.8877e-05
1.88802e-05
1.88834e-05
1.88866e-05
1.88898e-05
1.8893e-05
1.8896e-05
1.88991e-05
1.89021e-05
1.89051e-05
1.89081e-05
1.89111e-05
1.89142e-05
1.89172e-05
1.89203e-05
1.89232e-05
1.89261e-05
1.8929e-05
1.89319e-05
1.89347e-05
1.89376e-05
1.89405e-05
1.89433e-05
1.8946e-05
1.89487e-05
1.89514e-05
1.8954e-05
1.89567e-05
1.89595e-05
1.89623e-05
1.8965e-05
1.89676e-05
1.89703e-05
1.89728e-05
1.89752e-05
1.89777e-05
1.89803e-05
1.89828e-05
1.89853e-05
1.89879e-05
1.89903e-05
1.89928e-05
1.89952e-05
1.89975e-05
1.89998e-05
1.90021e-05
1.90044e-05
1.90066e-05
1.90089e-05
1.90111e-05
1.90134e-05
1.90156e-05
1.90179e-05
1.90201e-05
1.90222e-05
1.90243e-05
1.90265e-05
1.90286e-05
1.90306e-05
1.90326e-05
1.90346e-05
1.90367e-05
1.90387e-05
1.90407e-05
1.90428e-05
1.90448e-05
1.90467e-05
1.90485e-05
1.90504e-05
1.90522e-05
1.90541e-05
1.90559e-05
1.90577e-05
1.90595e-05
1.90613e-05
1.9063e-05
1.90648e-05
1.90665e-05
1.90681e-05
1.90698e-05
1.90715e-05
1.90732e-05
1.90748e-05
1.90765e-05
1.90782e-05
1.90798e-05
1.90813e-05
1.90827e-05
1.90841e-05
1.90856e-05
1.90871e-05
1.90887e-05
1.90903e-05
1.90919e-05
1.90933e-05
1.90946e-05
1.90959e-05
1.90973e-05
1.90986e-05
1.91e-05
1.91013e-05
1.91027e-05
1.91039e-05
1.91052e-05
1.91064e-05
1.91076e-05
1.91087e-05
1.91099e-05
1.9111e-05
1.91121e-05
1.91133e-05
1.91143e-05
1.91154e-05
1.91165e-05
1.91176e-05
1.91187e-05
1.91198e-05
1.91208e-05
1.91217e-05
1.91227e-05
1.91237e-05
1.91247e-05
1.91256e-05
1.91266e-05
1.91275e-05
1.91284e-05
1.91293e-05
1.91302e-05
1.91311e-05
1.9132e-05
1.91328e-05
1.91337e-05
1.91345e-05
1.91353e-05
1.91361e-05
1.91369e-05
1.91376e-05
1.91384e-05
1.91392e-05
1.914e-05
1.91408e-05
1.91417e-05
1.91426e-05
1.91433e-05
1.9144e-05
1.91446e-05
1.91452e-05
1.91458e-05
1.91465e-05
1.91471e-05
1.91477e-05
1.91483e-05
1.91488e-05
1.91494e-05
1.91501e-05
1.91507e-05
1.91512e-05
1.91518e-05
1.91523e-05
1.91528e-05
1.91534e-05
1.91539e-05
1.91544e-05
1.91549e-05
1.91554e-05
1.91559e-05
1.91564e-05
1.91568e-05
1.91573e-05
1.91577e-05
1.91581e-05
1.91585e-05
1.9159e-05
1.91594e-05
1.91598e-05
1.91602e-05
1.91605e-05
1.91609e-05
1.91613e-05
1.91617e-05
1.9162e-05
1.91623e-05
1.91627e-05
1.9163e-05
1.91633e-05
1.91636e-05
1.91639e-05
1.91643e-05
1.91646e-05
1.91649e-05
1.91652e-05
1.91655e-05
1.91658e-05
1.91661e-05
1.91664e-05
1.91667e-05
1.9167e-05
1.91672e-05
1.91675e-05
1.91677e-05
1.91679e-05
1.91681e-05
1.91683e-05
1.91685e-05
1.91687e-05
1.91689e-05
1.91691e-05
1.91693e-05
1.91695e-05
1.91697e-05
1.91699e-05
1.917e-05
1.91702e-05
1.91704e-05
1.91705e-05
1.91707e-05
1.91708e-05
1.9171e-05
1.91712e-05
1.91713e-05
1.91715e-05
1.91716e-05
1.91717e-05
1.91719e-05
1.9172e-05
1.91721e-05
1.91722e-05
1.91723e-05
1.91724e-05
1.91726e-05
1.91727e-05
1.91728e-05
1.91729e-05
1.9173e-05
1.91731e-05
1.91731e-05
1.91732e-05
1.91733e-05
1.91734e-05
1.91735e-05
1.91736e-05
1.91736e-05
1.91737e-05
1.91738e-05
1.91739e-05
1.91739e-05
1.9174e-05
1.9174e-05
1.91741e-05
1.91742e-05
1.91742e-05
1.91743e-05
1.91743e-05
1.91744e-05
1.91744e-05
1.91745e-05
1.91745e-05
1.91746e-05
1.91746e-05
1.91746e-05
1.91747e-05
1.91747e-05
1.91748e-05
1.91748e-05
1.91748e-05
1.91749e-05
1.91749e-05
1.91749e-05
1.91749e-05
1.9175e-05
1.9175e-05
1.9175e-05
1.9175e-05
1.91751e-05
1.91751e-05
1.91751e-05
1.91751e-05
1.91751e-05
1.91752e-05
1.91752e-05
1.91752e-05
1.91752e-05
1.91752e-05
1.91752e-05
1.91752e-05
1.91752e-05
1.91752e-05
1.91753e-05
1.91753e-05
1.91753e-05
1.91753e-05
1.91753e-05
1.91753e-05
1.91753e-05
1.91753e-05
1.84558e-05
1.84602e-05
1.84646e-05
1.8469e-05
1.84735e-05
1.84779e-05
1.84823e-05
1.84868e-05
1.84912e-05
1.84956e-05
1.85001e-05
1.85046e-05
1.8509e-05
1.85134e-05
1.8518e-05
1.85225e-05
1.85269e-05
1.85314e-05
1.85358e-05
1.85403e-05
1.85447e-05
1.85491e-05
1.85535e-05
1.85577e-05
1.8562e-05
1.85663e-05
1.85707e-05
1.85751e-05
1.85796e-05
1.8584e-05
1.85882e-05
1.85924e-05
1.85967e-05
1.86011e-05
1.86053e-05
1.86096e-05
1.86139e-05
1.86182e-05
1.86223e-05
1.86266e-05
1.8631e-05
1.86352e-05
1.86394e-05
1.86436e-05
1.86479e-05
1.86522e-05
1.86563e-05
1.86603e-05
1.86644e-05
1.86687e-05
1.86729e-05
1.86771e-05
1.86811e-05
1.86852e-05
1.86894e-05
1.86935e-05
1.86976e-05
1.87016e-05
1.87057e-05
1.87097e-05
1.87136e-05
1.87176e-05
1.87217e-05
1.87255e-05
1.87293e-05
1.87332e-05
1.87372e-05
1.87411e-05
1.8745e-05
1.87489e-05
1.87527e-05
1.87566e-05
1.87605e-05
1.87643e-05
1.8768e-05
1.87718e-05
1.87756e-05
1.87793e-05
1.8783e-05
1.87867e-05
1.87904e-05
1.87941e-05
1.87979e-05
1.88014e-05
1.88051e-05
1.88088e-05
1.88124e-05
1.88161e-05
1.88196e-05
1.88231e-05
1.88266e-05
1.88302e-05
1.88337e-05
1.88371e-05
1.88406e-05
1.88439e-05
1.88472e-05
1.88505e-05
1.88539e-05
1.88572e-05
1.88605e-05
1.88638e-05
1.88671e-05
1.88704e-05
1.88738e-05
1.88771e-05
1.88803e-05
1.88835e-05
1.88866e-05
1.88898e-05
1.8893e-05
1.8896e-05
1.88991e-05
1.89021e-05
1.89051e-05
1.89081e-05
1.89111e-05
1.89142e-05
1.89173e-05
1.89203e-05
1.89232e-05
1.89261e-05
1.8929e-05
1.89319e-05
1.89347e-05
1.89376e-05
1.89404e-05
1.89432e-05
1.8946e-05
1.89487e-05
1.89513e-05
1.8954e-05
1.89568e-05
1.89595e-05
1.89623e-05
1.89649e-05
1.89676e-05
1.89702e-05
1.89728e-05
1.89752e-05
1.89777e-05
1.89803e-05
1.89828e-05
1.89853e-05
1.89878e-05
1.89903e-05
1.89928e-05
1.89951e-05
1.89975e-05
1.89998e-05
1.90021e-05
1.90044e-05
1.90066e-05
1.90089e-05
1.90112e-05
1.90134e-05
1.90156e-05
1.90179e-05
1.90201e-05
1.90222e-05
1.90243e-05
1.90265e-05
1.90286e-05
1.90306e-05
1.90326e-05
1.90346e-05
1.90366e-05
1.90387e-05
1.90407e-05
1.90428e-05
1.90448e-05
1.90467e-05
1.90486e-05
1.90504e-05
1.90522e-05
1.9054e-05
1.90559e-05
1.90577e-05
1.90595e-05
1.90613e-05
1.9063e-05
1.90647e-05
1.90664e-05
1.90681e-05
1.90698e-05
1.90715e-05
1.90732e-05
1.90749e-05
1.90766e-05
1.90783e-05
1.90798e-05
1.90813e-05
1.90827e-05
1.90841e-05
1.90856e-05
1.90871e-05
1.90887e-05
1.90903e-05
1.90918e-05
1.90932e-05
1.90946e-05
1.90959e-05
1.90973e-05
1.90987e-05
1.91e-05
1.91014e-05
1.91027e-05
1.91039e-05
1.91052e-05
1.91064e-05
1.91075e-05
1.91087e-05
1.91099e-05
1.9111e-05
1.91122e-05
1.91133e-05
1.91144e-05
1.91155e-05
1.91165e-05
1.91176e-05
1.91187e-05
1.91197e-05
1.91208e-05
1.91218e-05
1.91228e-05
1.91237e-05
1.91247e-05
1.91256e-05
1.91266e-05
1.91275e-05
1.91284e-05
1.91293e-05
1.91302e-05
1.91311e-05
1.9132e-05
1.91328e-05
1.91337e-05
1.91345e-05
1.91353e-05
1.91361e-05
1.91369e-05
1.91376e-05
1.91384e-05
1.91392e-05
1.914e-05
1.91409e-05
1.91418e-05
1.91426e-05
1.91433e-05
1.9144e-05
1.91446e-05
1.91452e-05
1.91458e-05
1.91465e-05
1.91471e-05
1.91477e-05
1.91483e-05
1.91489e-05
1.91495e-05
1.91501e-05
1.91506e-05
1.91512e-05
1.91517e-05
1.91523e-05
1.91528e-05
1.91534e-05
1.91539e-05
1.91544e-05
1.91549e-05
1.91554e-05
1.91559e-05
1.91564e-05
1.91568e-05
1.91572e-05
1.91577e-05
1.91581e-05
1.91585e-05
1.9159e-05
1.91594e-05
1.91598e-05
1.91602e-05
1.91605e-05
1.91609e-05
1.91613e-05
1.91616e-05
1.9162e-05
1.91623e-05
1.91627e-05
1.9163e-05
1.91633e-05
1.91636e-05
1.91639e-05
1.91642e-05
1.91646e-05
1.91649e-05
1.91652e-05
1.91655e-05
1.91658e-05
1.91661e-05
1.91664e-05
1.91667e-05
1.9167e-05
1.91672e-05
1.91674e-05
1.91677e-05
1.91679e-05
1.91681e-05
1.91683e-05
1.91685e-05
1.91687e-05
1.91689e-05
1.91691e-05
1.91693e-05
1.91695e-05
1.91697e-05
1.91699e-05
1.917e-05
1.91702e-05
1.91704e-05
1.91705e-05
1.91707e-05
1.91709e-05
1.9171e-05
1.91712e-05
1.91713e-05
1.91715e-05
1.91716e-05
1.91717e-05
1.91719e-05
1.9172e-05
1.91721e-05
1.91722e-05
1.91723e-05
1.91724e-05
1.91726e-05
1.91727e-05
1.91728e-05
1.91729e-05
1.9173e-05
1.91731e-05
1.91731e-05
1.91732e-05
1.91733e-05
1.91734e-05
1.91735e-05
1.91736e-05
1.91736e-05
1.91737e-05
1.91738e-05
1.91739e-05
1.91739e-05
1.9174e-05
1.9174e-05
1.91741e-05
1.91742e-05
1.91742e-05
1.91743e-05
1.91743e-05
1.91744e-05
1.91744e-05
1.91745e-05
1.91745e-05
1.91746e-05
1.91746e-05
1.91746e-05
1.91747e-05
1.91747e-05
1.91748e-05
1.91748e-05
1.91748e-05
1.91749e-05
1.91749e-05
1.91749e-05
1.91749e-05
1.9175e-05
1.9175e-05
1.9175e-05
1.9175e-05
1.91751e-05
1.91751e-05
1.91751e-05
1.91751e-05
1.91751e-05
1.91752e-05
1.91752e-05
1.91752e-05
1.91752e-05
1.91752e-05
1.91752e-05
1.91752e-05
1.91752e-05
1.91752e-05
1.91753e-05
1.91753e-05
1.91753e-05
1.91753e-05
1.91753e-05
1.91753e-05
1.91753e-05
1.91753e-05
1.84558e-05
1.84602e-05
1.84646e-05
1.84691e-05
1.84735e-05
1.8478e-05
1.84824e-05
1.84869e-05
1.84913e-05
1.84958e-05
1.85002e-05
1.85045e-05
1.85089e-05
1.85134e-05
1.85179e-05
1.85224e-05
1.85269e-05
1.85314e-05
1.85358e-05
1.85403e-05
1.85447e-05
1.85491e-05
1.85535e-05
1.85577e-05
1.85621e-05
1.85664e-05
1.85707e-05
1.85751e-05
1.85796e-05
1.85839e-05
1.85881e-05
1.85924e-05
1.85966e-05
1.8601e-05
1.86053e-05
1.86096e-05
1.86139e-05
1.86181e-05
1.86223e-05
1.86266e-05
1.8631e-05
1.86353e-05
1.86395e-05
1.86437e-05
1.86479e-05
1.86521e-05
1.86562e-05
1.86603e-05
1.86645e-05
1.86687e-05
1.86729e-05
1.86772e-05
1.86812e-05
1.86853e-05
1.86894e-05
1.86935e-05
1.86975e-05
1.87016e-05
1.87056e-05
1.87096e-05
1.87136e-05
1.87177e-05
1.87216e-05
1.87255e-05
1.87293e-05
1.87332e-05
1.87371e-05
1.87411e-05
1.8745e-05
1.8749e-05
1.87528e-05
1.87566e-05
1.87604e-05
1.87642e-05
1.87681e-05
1.87719e-05
1.87756e-05
1.87793e-05
1.87831e-05
1.87867e-05
1.87904e-05
1.87941e-05
1.87978e-05
1.88014e-05
1.8805e-05
1.88087e-05
1.88124e-05
1.88161e-05
1.88196e-05
1.88232e-05
1.88267e-05
1.88301e-05
1.88337e-05
1.88371e-05
1.88405e-05
1.88439e-05
1.88472e-05
1.88505e-05
1.88538e-05
1.88571e-05
1.88605e-05
1.88638e-05
1.88671e-05
1.88705e-05
1.88738e-05
1.88772e-05
1.88804e-05
1.88835e-05
1.88867e-05
1.88898e-05
1.88929e-05
1.8896e-05
1.88991e-05
1.89021e-05
1.89051e-05
1.89081e-05
1.89111e-05
1.89142e-05
1.89173e-05
1.89203e-05
1.89232e-05
1.89261e-05
1.8929e-05
1.89319e-05
1.89347e-05
1.89376e-05
1.89405e-05
1.89433e-05
1.8946e-05
1.89487e-05
1.89514e-05
1.89541e-05
1.89568e-05
1.89595e-05
1.89622e-05
1.89649e-05
1.89676e-05
1.89702e-05
1.89728e-05
1.89753e-05
1.89778e-05
1.89803e-05
1.89828e-05
1.89853e-05
1.89878e-05
1.89903e-05
1.89928e-05
1.89951e-05
1.89974e-05
1.89998e-05
1.90021e-05
1.90044e-05
1.90066e-05
1.90089e-05
1.90112e-05
1.90134e-05
1.90157e-05
1.90179e-05
1.902e-05
1.90222e-05
1.90244e-05
1.90265e-05
1.90286e-05
1.90306e-05
1.90326e-05
1.90346e-05
1.90366e-05
1.90386e-05
1.90408e-05
1.90428e-05
1.90448e-05
1.90467e-05
1.90485e-05
1.90504e-05
1.90522e-05
1.9054e-05
1.90559e-05
1.90577e-05
1.90594e-05
1.90612e-05
1.9063e-05
1.90647e-05
1.90664e-05
1.90681e-05
1.90699e-05
1.90716e-05
1.90734e-05
1.90751e-05
1.90767e-05
1.90783e-05
1.90798e-05
1.90812e-05
1.90827e-05
1.90842e-05
1.90856e-05
1.90871e-05
1.90886e-05
1.90902e-05
1.90917e-05
1.90932e-05
1.90945e-05
1.90959e-05
1.90973e-05
1.90987e-05
1.91e-05
1.91014e-05
1.91027e-05
1.91039e-05
1.91051e-05
1.91063e-05
1.91075e-05
1.91087e-05
1.91099e-05
1.9111e-05
1.91122e-05
1.91133e-05
1.91144e-05
1.91155e-05
1.91165e-05
1.91176e-05
1.91186e-05
1.91197e-05
1.91208e-05
1.91218e-05
1.91228e-05
1.91237e-05
1.91247e-05
1.91257e-05
1.91266e-05
1.91275e-05
1.91284e-05
1.91293e-05
1.91302e-05
1.91311e-05
1.9132e-05
1.91328e-05
1.91337e-05
1.91345e-05
1.91353e-05
1.91361e-05
1.91369e-05
1.91377e-05
1.91384e-05
1.91393e-05
1.91401e-05
1.91409e-05
1.91418e-05
1.91426e-05
1.91433e-05
1.91439e-05
1.91446e-05
1.91452e-05
1.91458e-05
1.91464e-05
1.91471e-05
1.91477e-05
1.91483e-05
1.91489e-05
1.91495e-05
1.91501e-05
1.91506e-05
1.91512e-05
1.91517e-05
1.91523e-05
1.91528e-05
1.91533e-05
1.91539e-05
1.91544e-05
1.91549e-05
1.91554e-05
1.91559e-05
1.91564e-05
1.91568e-05
1.91572e-05
1.91577e-05
1.91581e-05
1.91585e-05
1.9159e-05
1.91594e-05
1.91598e-05
1.91602e-05
1.91605e-05
1.91609e-05
1.91613e-05
1.91616e-05
1.9162e-05
1.91623e-05
1.91627e-05
1.9163e-05
1.91633e-05
1.91636e-05
1.91639e-05
1.91643e-05
1.91646e-05
1.91649e-05
1.91653e-05
1.91656e-05
1.91658e-05
1.91661e-05
1.91664e-05
1.91667e-05
1.91669e-05
1.91672e-05
1.91674e-05
1.91677e-05
1.91679e-05
1.91681e-05
1.91683e-05
1.91685e-05
1.91687e-05
1.91689e-05
1.91691e-05
1.91693e-05
1.91695e-05
1.91697e-05
1.91699e-05
1.917e-05
1.91702e-05
1.91704e-05
1.91705e-05
1.91707e-05
1.91709e-05
1.9171e-05
1.91712e-05
1.91713e-05
1.91715e-05
1.91716e-05
1.91717e-05
1.91719e-05
1.9172e-05
1.91721e-05
1.91722e-05
1.91723e-05
1.91724e-05
1.91726e-05
1.91727e-05
1.91728e-05
1.91729e-05
1.9173e-05
1.91731e-05
1.91731e-05
1.91732e-05
1.91733e-05
1.91734e-05
1.91735e-05
1.91736e-05
1.91736e-05
1.91737e-05
1.91738e-05
1.91738e-05
1.91739e-05
1.9174e-05
1.9174e-05
1.91741e-05
1.91742e-05
1.91742e-05
1.91743e-05
1.91743e-05
1.91744e-05
1.91744e-05
1.91745e-05
1.91745e-05
1.91746e-05
1.91746e-05
1.91746e-05
1.91747e-05
1.91747e-05
1.91748e-05
1.91748e-05
1.91748e-05
1.91749e-05
1.91749e-05
1.91749e-05
1.91749e-05
1.9175e-05
1.9175e-05
1.9175e-05
1.9175e-05
1.91751e-05
1.91751e-05
1.91751e-05
1.91751e-05
1.91751e-05
1.91752e-05
1.91752e-05
1.91752e-05
1.91752e-05
1.91752e-05
1.91752e-05
1.91752e-05
1.91752e-05
1.91752e-05
1.91753e-05
1.91753e-05
1.91753e-05
1.91753e-05
1.91753e-05
1.91753e-05
1.91753e-05
1.91753e-05
1.84558e-05
1.84601e-05
1.84646e-05
1.84691e-05
1.84736e-05
1.84781e-05
1.84825e-05
1.84869e-05
1.84914e-05
1.84958e-05
1.85002e-05
1.85044e-05
1.85088e-05
1.85135e-05
1.85181e-05
1.85224e-05
1.85268e-05
1.85313e-05
1.85357e-05
1.85403e-05
1.85448e-05
1.85492e-05
1.85535e-05
1.85577e-05
1.85621e-05
1.85664e-05
1.85706e-05
1.85751e-05
1.85795e-05
1.85839e-05
1.85882e-05
1.85924e-05
1.85966e-05
1.86009e-05
1.86053e-05
1.86096e-05
1.86138e-05
1.86181e-05
1.86224e-05
1.86268e-05
1.8631e-05
1.86353e-05
1.86395e-05
1.86437e-05
1.86478e-05
1.8652e-05
1.86561e-05
1.86603e-05
1.86645e-05
1.86688e-05
1.8673e-05
1.86771e-05
1.86812e-05
1.86853e-05
1.86894e-05
1.86935e-05
1.86975e-05
1.87016e-05
1.87056e-05
1.87096e-05
1.87136e-05
1.87176e-05
1.87216e-05
1.87254e-05
1.87292e-05
1.87331e-05
1.87371e-05
1.8741e-05
1.8745e-05
1.8749e-05
1.87529e-05
1.87566e-05
1.87605e-05
1.87643e-05
1.87681e-05
1.8772e-05
1.87757e-05
1.87794e-05
1.87831e-05
1.87868e-05
1.87904e-05
1.87941e-05
1.87977e-05
1.88014e-05
1.8805e-05
1.88087e-05
1.88124e-05
1.8816e-05
1.88196e-05
1.88232e-05
1.88266e-05
1.88301e-05
1.88336e-05
1.88371e-05
1.88405e-05
1.88439e-05
1.88472e-05
1.88505e-05
1.88538e-05
1.88571e-05
1.88604e-05
1.88638e-05
1.88671e-05
1.88705e-05
1.88739e-05
1.88772e-05
1.88804e-05
1.88835e-05
1.88867e-05
1.88898e-05
1.88929e-05
1.88959e-05
1.8899e-05
1.89021e-05
1.89052e-05
1.89081e-05
1.89111e-05
1.89141e-05
1.89172e-05
1.89202e-05
1.89232e-05
1.89261e-05
1.8929e-05
1.89319e-05
1.89348e-05
1.89377e-05
1.89405e-05
1.89433e-05
1.8946e-05
1.89487e-05
1.89514e-05
1.89541e-05
1.89568e-05
1.89595e-05
1.89622e-05
1.89649e-05
1.89676e-05
1.89702e-05
1.89728e-05
1.89754e-05
1.89779e-05
1.89803e-05
1.89828e-05
1.89853e-05
1.89878e-05
1.89903e-05
1.89927e-05
1.89951e-05
1.89974e-05
1.89998e-05
1.90021e-05
1.90044e-05
1.90067e-05
1.9009e-05
1.90112e-05
1.90135e-05
1.90157e-05
1.90179e-05
1.902e-05
1.90222e-05
1.90244e-05
1.90265e-05
1.90287e-05
1.90307e-05
1.90326e-05
1.90346e-05
1.90366e-05
1.90386e-05
1.90408e-05
1.90428e-05
1.90448e-05
1.90466e-05
1.90485e-05
1.90504e-05
1.90522e-05
1.9054e-05
1.90558e-05
1.90576e-05
1.90594e-05
1.90612e-05
1.9063e-05
1.90647e-05
1.90665e-05
1.90683e-05
1.907e-05
1.90718e-05
1.90735e-05
1.90751e-05
1.90767e-05
1.90782e-05
1.90797e-05
1.90812e-05
1.90827e-05
1.90842e-05
1.90857e-05
1.90871e-05
1.90886e-05
1.90901e-05
1.90916e-05
1.90931e-05
1.90945e-05
1.90959e-05
1.90972e-05
1.90986e-05
1.91e-05
1.91014e-05
1.91026e-05
1.91039e-05
1.91051e-05
1.91063e-05
1.91075e-05
1.91087e-05
1.91099e-05
1.9111e-05
1.91122e-05
1.91133e-05
1.91144e-05
1.91155e-05
1.91165e-05
1.91176e-05
1.91187e-05
1.91197e-05
1.91207e-05
1.91218e-05
1.91228e-05
1.91238e-05
1.91247e-05
1.91257e-05
1.91266e-05
1.91275e-05
1.91284e-05
1.91293e-05
1.91302e-05
1.91311e-05
1.9132e-05
1.91328e-05
1.91337e-05
1.91345e-05
1.91353e-05
1.91361e-05
1.91369e-05
1.91377e-05
1.91385e-05
1.91393e-05
1.91402e-05
1.9141e-05
1.91418e-05
1.91426e-05
1.91432e-05
1.91439e-05
1.91445e-05
1.91452e-05
1.91458e-05
1.91464e-05
1.91471e-05
1.91477e-05
1.91483e-05
1.91489e-05
1.91495e-05
1.91501e-05
1.91506e-05
1.91512e-05
1.91517e-05
1.91523e-05
1.91528e-05
1.91533e-05
1.91539e-05
1.91544e-05
1.91549e-05
1.91555e-05
1.91559e-05
1.91564e-05
1.91568e-05
1.91572e-05
1.91577e-05
1.91581e-05
1.91586e-05
1.9159e-05
1.91594e-05
1.91598e-05
1.91602e-05
1.91605e-05
1.91609e-05
1.91613e-05
1.91616e-05
1.9162e-05
1.91623e-05
1.91627e-05
1.9163e-05
1.91633e-05
1.91636e-05
1.91639e-05
1.91643e-05
1.91646e-05
1.9165e-05
1.91653e-05
1.91656e-05
1.91658e-05
1.91661e-05
1.91664e-05
1.91666e-05
1.91669e-05
1.91672e-05
1.91674e-05
1.91677e-05
1.91679e-05
1.91681e-05
1.91683e-05
1.91685e-05
1.91687e-05
1.91689e-05
1.91691e-05
1.91693e-05
1.91695e-05
1.91697e-05
1.91699e-05
1.917e-05
1.91702e-05
1.91704e-05
1.91705e-05
1.91707e-05
1.91709e-05
1.9171e-05
1.91712e-05
1.91713e-05
1.91715e-05
1.91716e-05
1.91717e-05
1.91719e-05
1.9172e-05
1.91721e-05
1.91722e-05
1.91723e-05
1.91724e-05
1.91726e-05
1.91727e-05
1.91728e-05
1.91729e-05
1.9173e-05
1.91731e-05
1.91731e-05
1.91732e-05
1.91733e-05
1.91734e-05
1.91735e-05
1.91736e-05
1.91736e-05
1.91737e-05
1.91738e-05
1.91738e-05
1.91739e-05
1.9174e-05
1.9174e-05
1.91741e-05
1.91742e-05
1.91742e-05
1.91743e-05
1.91743e-05
1.91744e-05
1.91744e-05
1.91745e-05
1.91745e-05
1.91746e-05
1.91746e-05
1.91746e-05
1.91747e-05
1.91747e-05
1.91748e-05
1.91748e-05
1.91748e-05
1.91749e-05
1.91749e-05
1.91749e-05
1.91749e-05
1.9175e-05
1.9175e-05
1.9175e-05
1.9175e-05
1.91751e-05
1.91751e-05
1.91751e-05
1.91751e-05
1.91751e-05
1.91752e-05
1.91752e-05
1.91752e-05
1.91752e-05
1.91752e-05
1.91752e-05
1.91752e-05
1.91752e-05
1.91752e-05
1.91753e-05
1.91753e-05
1.91753e-05
1.91753e-05
1.91753e-05
1.91753e-05
1.91753e-05
1.91753e-05
1.84558e-05
1.84601e-05
1.84645e-05
1.84691e-05
1.84736e-05
1.84781e-05
1.84826e-05
1.8487e-05
1.84914e-05
1.84957e-05
1.85001e-05
1.85045e-05
1.85089e-05
1.85135e-05
1.8518e-05
1.85225e-05
1.85269e-05
1.85313e-05
1.85357e-05
1.85402e-05
1.85447e-05
1.85492e-05
1.85536e-05
1.85578e-05
1.85621e-05
1.85664e-05
1.85707e-05
1.85751e-05
1.85794e-05
1.85838e-05
1.85882e-05
1.85924e-05
1.85966e-05
1.86009e-05
1.86052e-05
1.86096e-05
1.86138e-05
1.86181e-05
1.86225e-05
1.86268e-05
1.86311e-05
1.86353e-05
1.86395e-05
1.86436e-05
1.86478e-05
1.8652e-05
1.86561e-05
1.86603e-05
1.86645e-05
1.86687e-05
1.8673e-05
1.86771e-05
1.86812e-05
1.86853e-05
1.86894e-05
1.86935e-05
1.86976e-05
1.87016e-05
1.87056e-05
1.87096e-05
1.87136e-05
1.87176e-05
1.87215e-05
1.87254e-05
1.87292e-05
1.87331e-05
1.87371e-05
1.8741e-05
1.8745e-05
1.8749e-05
1.87529e-05
1.87567e-05
1.87606e-05
1.87644e-05
1.87681e-05
1.8772e-05
1.87757e-05
1.87794e-05
1.87831e-05
1.87867e-05
1.87904e-05
1.87941e-05
1.87977e-05
1.88013e-05
1.8805e-05
1.88087e-05
1.88124e-05
1.8816e-05
1.88197e-05
1.88232e-05
1.88266e-05
1.88301e-05
1.88336e-05
1.88371e-05
1.88405e-05
1.88439e-05
1.88472e-05
1.88505e-05
1.88538e-05
1.88571e-05
1.88603e-05
1.88637e-05
1.88671e-05
1.88706e-05
1.8874e-05
1.88772e-05
1.88803e-05
1.88835e-05
1.88866e-05
1.88898e-05
1.88929e-05
1.88959e-05
1.8899e-05
1.89021e-05
1.89052e-05
1.89081e-05
1.89111e-05
1.89141e-05
1.89171e-05
1.89202e-05
1.89231e-05
1.89261e-05
1.8929e-05
1.89319e-05
1.89348e-05
1.89377e-05
1.89405e-05
1.89433e-05
1.8946e-05
1.89487e-05
1.89514e-05
1.89541e-05
1.89568e-05
1.89594e-05
1.89621e-05
1.89649e-05
1.89676e-05
1.89703e-05
1.89729e-05
1.89754e-05
1.89778e-05
1.89803e-05
1.89828e-05
1.89853e-05
1.89878e-05
1.89902e-05
1.89927e-05
1.89951e-05
1.89974e-05
1.89997e-05
1.90021e-05
1.90044e-05
1.90067e-05
1.9009e-05
1.90113e-05
1.90135e-05
1.90156e-05
1.90178e-05
1.902e-05
1.90222e-05
1.90244e-05
1.90266e-05
1.90287e-05
1.90307e-05
1.90326e-05
1.90346e-05
1.90366e-05
1.90387e-05
1.90407e-05
1.90428e-05
1.90447e-05
1.90466e-05
1.90485e-05
1.90504e-05
1.90522e-05
1.9054e-05
1.90558e-05
1.90575e-05
1.90593e-05
1.90611e-05
1.90629e-05
1.90647e-05
1.90665e-05
1.90684e-05
1.90702e-05
1.9072e-05
1.90736e-05
1.90752e-05
1.90767e-05
1.90782e-05
1.90797e-05
1.90812e-05
1.90827e-05
1.90842e-05
1.90857e-05
1.90872e-05
1.90886e-05
1.90901e-05
1.90916e-05
1.9093e-05
1.90944e-05
1.90958e-05
1.90972e-05
1.90986e-05
1.91e-05
1.91014e-05
1.91026e-05
1.91039e-05
1.91051e-05
1.91063e-05
1.91075e-05
1.91087e-05
1.91099e-05
1.9111e-05
1.91122e-05
1.91133e-05
1.91144e-05
1.91155e-05
1.91166e-05
1.91176e-05
1.91187e-05
1.91197e-05
1.91207e-05
1.91218e-05
1.91228e-05
1.91238e-05
1.91247e-05
1.91257e-05
1.91266e-05
1.91275e-05
1.91284e-05
1.91293e-05
1.91302e-05
1.91311e-05
1.9132e-05
1.91328e-05
1.91337e-05
1.91345e-05
1.91353e-05
1.91362e-05
1.9137e-05
1.91377e-05
1.91385e-05
1.91394e-05
1.91402e-05
1.9141e-05
1.91418e-05
1.91425e-05
1.91432e-05
1.91439e-05
1.91445e-05
1.91452e-05
1.91458e-05
1.91464e-05
1.91471e-05
1.91477e-05
1.91483e-05
1.91489e-05
1.91495e-05
1.91501e-05
1.91506e-05
1.91512e-05
1.91517e-05
1.91523e-05
1.91528e-05
1.91533e-05
1.91539e-05
1.91544e-05
1.9155e-05
1.91555e-05
1.91559e-05
1.91564e-05
1.91568e-05
1.91572e-05
1.91577e-05
1.91581e-05
1.91586e-05
1.9159e-05
1.91594e-05
1.91598e-05
1.91602e-05
1.91605e-05
1.91609e-05
1.91613e-05
1.91616e-05
1.9162e-05
1.91623e-05
1.91626e-05
1.9163e-05
1.91633e-05
1.91636e-05
1.9164e-05
1.91643e-05
1.91647e-05
1.9165e-05
1.91653e-05
1.91656e-05
1.91658e-05
1.91661e-05
1.91664e-05
1.91666e-05
1.91669e-05
1.91672e-05
1.91674e-05
1.91677e-05
1.91679e-05
1.91681e-05
1.91683e-05
1.91685e-05
1.91687e-05
1.91689e-05
1.91691e-05
1.91693e-05
1.91695e-05
1.91697e-05
1.91699e-05
1.917e-05
1.91702e-05
1.91704e-05
1.91705e-05
1.91707e-05
1.91709e-05
1.9171e-05
1.91712e-05
1.91713e-05
1.91715e-05
1.91716e-05
1.91717e-05
1.91719e-05
1.9172e-05
1.91721e-05
1.91722e-05
1.91723e-05
1.91724e-05
1.91726e-05
1.91727e-05
1.91728e-05
1.91729e-05
1.9173e-05
1.91731e-05
1.91731e-05
1.91732e-05
1.91733e-05
1.91734e-05
1.91735e-05
1.91736e-05
1.91736e-05
1.91737e-05
1.91738e-05
1.91738e-05
1.91739e-05
1.9174e-05
1.9174e-05
1.91741e-05
1.91742e-05
1.91742e-05
1.91743e-05
1.91743e-05
1.91744e-05
1.91744e-05
1.91745e-05
1.91745e-05
1.91746e-05
1.91746e-05
1.91746e-05
1.91747e-05
1.91747e-05
1.91748e-05
1.91748e-05
1.91748e-05
1.91749e-05
1.91749e-05
1.91749e-05
1.91749e-05
1.9175e-05
1.9175e-05
1.9175e-05
1.9175e-05
1.91751e-05
1.91751e-05
1.91751e-05
1.91751e-05
1.91751e-05
1.91752e-05
1.91752e-05
1.91752e-05
1.91752e-05
1.91752e-05
1.91752e-05
1.91752e-05
1.91752e-05
1.91752e-05
1.91753e-05
1.91753e-05
1.91753e-05
1.91753e-05
1.91753e-05
1.91753e-05
1.91753e-05
1.91753e-05
1.84558e-05
1.84601e-05
1.84645e-05
1.8469e-05
1.84735e-05
1.8478e-05
1.84826e-05
1.8487e-05
1.84914e-05
1.84958e-05
1.85001e-05
1.85045e-05
1.8509e-05
1.85136e-05
1.8518e-05
1.85225e-05
1.85269e-05
1.85313e-05
1.85357e-05
1.85401e-05
1.85447e-05
1.85492e-05
1.85535e-05
1.85577e-05
1.8562e-05
1.85664e-05
1.85708e-05
1.85751e-05
1.85795e-05
1.85839e-05
1.85882e-05
1.85925e-05
1.85967e-05
1.86009e-05
1.86052e-05
1.86095e-05
1.86139e-05
1.86182e-05
1.86225e-05
1.86267e-05
1.8631e-05
1.86353e-05
1.86395e-05
1.86436e-05
1.86479e-05
1.8652e-05
1.86561e-05
1.86603e-05
1.86645e-05
1.86687e-05
1.8673e-05
1.86771e-05
1.86812e-05
1.86853e-05
1.86894e-05
1.86934e-05
1.86975e-05
1.87016e-05
1.87056e-05
1.87096e-05
1.87135e-05
1.87175e-05
1.87215e-05