/*--------------------------------*- C++ -*----------------------------------*\
  =========                 |
  \\      /  F ield         | OpenFOAM: The Open Source CFD Toolbox
   \\    /   O peration     | Website:  https://openfoam.org
    \\  /    A nd           | Version:  7
     \\/     M anipulation  |
\*---------------------------------------------------------------------------*/
FoamFile
{
    version     2.0;
    format      ascii;
    class       volScalarField;
    location    "5500";
    object      muTotal;
}
// * * * * * * * * * * * * * * * * * * * * * * * * * * * * * * * * * * * * * //

dimensions      [1 -1 -1 0 0 0 0];

internalField   nonuniform List<scalar> 
160000
(
0.000484129
0.000483129
0.000449512
0.000447351
0.000421361
0.000428151
0.000501872
0.000532585
0.000485774
0.00046854
0.000452646
0.000442422
0.000443311
0.000443442
0.000443544
0.000467288
0.000484526
0.000488036
0.000486992
0.000485939
0.000480096
0.000428517
0.000432095
0.000456227
0.000467734
0.000416854
0.000409143
0.00040773
0.000404668
0.00040383
0.000446441
0.000479019
0.00047802
0.000473418
0.000472059
0.000417693
0.000416912
0.000416036
0.000415192
0.000451624
0.000457978
0.000457589
0.000401956
0.000390907
0.000389529
0.000387537
0.000468773
0.000472552
0.000471629
0.000469003
0.000396539
0.0003736
0.000372396
0.000371656
0.00037091
0.000370179
0.000433633
0.000432783
0.00040643
0.000404232
0.000416707
0.000427213
0.000426717
0.000425922
0.000418135
0.000421898
0.00042138
0.000420562
0.000419653
0.000353355
0.000352691
0.000352014
0.00035136
0.000350706
0.000392357
0.00041847
0.000423752
0.000420925
0.000422921
0.00042215
0.000423229
0.000422863
0.000422092
0.000404612
0.000392084
0.000391377
0.000390685
0.000390015
0.000389394
0.000388712
0.00038801
0.000387347
0.000386662
0.000386658
0.000386005
0.000379522
0.000378904
0.000409077
0.000408959
0.000408087
0.000407548
0.000392509
0.00039187
0.000391214
0.000368465
0.000367873
0.000367298
0.000366723
0.000366145
0.000385133
0.000408209
0.000406379
0.000405771
0.000405157
0.000384995
0.000384423
0.000369248
0.000357227
0.000366714
0.000409068
0.000407822
0.00039273
0.000392181
0.000391614
0.000391063
0.000392801
0.000401774
0.000401221
0.000400684
0.00040014
0.000399613
0.000375506
0.000362406
0.000361892
0.00036139
0.000360906
0.000364629
0.000364159
0.000363703
0.000360331
0.000361626
0.000361148
0.000356769
0.000356333
0.000355886
0.000355431
0.000355016
0.000354583
0.00037857
0.000378136
0.000346541
0.000346149
0.000345759
0.000345373
0.000343233
0.000342859
0.000342469
0.000362589
0.000362199
0.000361811
0.000343399
0.000343422
0.000350344
0.000364104
0.000353428
0.000333424
0.00033308
0.000311692
0.000311383
0.000311079
0.000330506
0.000403207
0.000402826
0.000402455
0.000402072
0.000353684
0.000353368
0.000365807
0.000374613
0.000374285
0.000373945
0.000373628
0.000373301
0.000344792
0.000336048
0.000336673
0.000336394
0.000329035
0.00026401
0.000256193
0.000298542
0.000317716
0.00033853
0.000362075
0.000361811
0.000292656
0.000235605
0.000318177
0.000493762
0.000493441
0.00049306
0.000492738
0.000435574
0.000331612
0.000297768
0.000297561
0.000326587
0.000384883
0.000384637
0.000383856
0.000383628
0.000382909
0.000374179
0.000366797
0.000361783
0.000352655
0.000339132
0.000338951
0.00038234
0.000382084
0.000381909
0.000381676
0.000378313
0.00032114
0.000314981
0.00031483
0.000314656
0.000314529
0.000314363
0.00034256
0.000342402
0.000340778
0.000330375
0.000330235
0.000330076
0.000329947
0.000329794
0.000365956
0.000371264
0.000371105
0.000370963
0.000337078
0.000326167
0.000294712
0.000258284
0.000198593
0.000169381
0.000199561
0.000361087
0.00048473
0.000484545
0.000484412
0.000477605
0.000423525
0.000358273
0.00033822
0.000329622
0.000289181
0.000289097
0.000352488
0.000356041
0.000355925
0.00035584
0.000320435
0.000305753
0.000314689
0.000314607
0.000300086
0.000273184
0.000273125
0.000367042
0.000384415
0.000384312
0.000384246
0.000369805
0.000294774
0.000294712
0.000294623
0.000330287
0.000330196
0.000326151
0.000291187
0.000291131
0.00029108
0.000300944
0.000382439
0.00038234
0.000382283
0.000350493
0.000344615
0.000344558
0.000317514
0.000317469
0.000331547
0.000356689
0.000356632
0.000349803
0.000235834
0.000168533
0.000127288
0.000127279
0.000179529
0.000499765
0.000499764
0.000499651
0.000499647
0.000499544
0.000451661
0.000390404
0.000325114
0.000297032
0.000288186
0.000278606
0.00027858
0.000318444
0.000365361
0.000365283
0.000365294
0.000344167
0.000281757
0.000243274
0.000212096
0.000193901
0.000193913
0.000193851
0.000193888
0.000263142
0.000354168
0.000388443
0.000388418
0.00038321
0.000380616
0.00038059
0.000380564
0.000369577
0.000345719
0.000306055
0.00029979
0.000299739
0.000339396
0.00033935
0.000339363
0.00033932
0.000281711
0.000281699
0.000281688
0.000281676
0.000299194
0.000379134
0.000379208
0.000379108
0.00037506
0.00032294
0.000313822
0.000313801
0.000314883
0.000361257
0.000361209
0.000361237
0.000361191
0.00035413
0.000313372
0.000313362
0.000313359
0.000313325
0.000313346
0.000313285
0.000313334
0.000313394
0.000363927
0.000363877
0.000363891
0.000363866
0.00036388
0.000357877
0.000357876
0.000347256
0.000322074
0.000321686
0.000321683
0.000322072
0.000348643
0.000335301
0.000335298
0.000335289
0.000341433
0.000341429
0.000341428
0.000335088
0.000301457
0.000295153
0.00027382
0.00027382
0.000271322
0.00022935
0.000237499
0.000337902
0.000337884
0.000402896
0.000417041
0.000466945
0.000465452
0.000511718
0.000457164
0.000435361
0.000428418
0.000429974
0.000447781
0.000461753
0.000469376
0.00046837
0.000458512
0.000442618
0.000443202
0.00044224
0.00046703
0.000483596
0.000442895
0.000438888
0.00043773
0.000444537
0.000430216
0.000476996
0.000476003
0.00046785
0.000411928
0.00040807
0.000405525
0.000404671
0.000451386
0.00044963
0.000449892
0.000465964
0.000474951
0.000472466
0.00041773
0.000415811
0.000414969
0.000421127
0.00045951
0.000458556
0.000456113
0.000435086
0.000390886
0.000388478
0.000387518
0.000386728
0.000423055
0.000471084
0.000468829
0.000428946
0.000383518
0.000430154
0.000429281
0.000427051
0.000400312
0.00043335
0.000418263
0.000404987
0.000404167
0.00040333
0.000426913
0.000424272
0.000415892
0.000415118
0.000415821
0.000394093
0.000393347
0.000392599
0.00040144
0.000400956
0.000400192
0.000372629
0.00038613
0.000422446
0.000424528
0.00042375
0.000409965
0.000381567
0.000383793
0.000421559
0.000402704
0.000396344
0.000395646
0.000394935
0.000395161
0.000394462
0.000390012
0.000389343
0.000388675
0.000387998
0.000387332
0.000388922
0.000388244
0.000380149
0.000379529
0.00040896
0.000409638
0.000408964
0.000405412
0.000407553
0.000406889
0.000360329
0.000359732
0.000389316
0.00036787
0.000397253
0.000410146
0.000409496
0.000408853
0.000408212
0.000382713
0.000366749
0.000362522
0.000360363
0.000359826
0.000357752
0.000357219
0.000381227
0.000409732
0.000409122
0.000408538
0.000407957
0.000407376
0.000402931
0.000402356
0.000401783
0.000401231
0.000400683
0.000400143
0.000399614
0.00036289
0.000362401
0.000361891
0.000370424
0.000359932
0.000364631
0.000364155
0.000358548
0.000358114
0.000357668
0.000357213
0.000356765
0.000357237
0.000374334
0.000373873
0.000381266
0.000380813
0.00038034
0.000356455
0.000356044
0.000355637
0.000344007
0.000343616
0.000343234
0.000342842
0.00034247
0.000342088
0.000341648
0.000341283
0.000340919
0.00034191
0.000364473
0.000364106
0.000334784
0.000333425
0.000338771
0.000317312
0.000312892
0.000344848
0.000382966
0.000403203
0.000361169
0.000360832
0.000363133
0.000373948
0.000375295
0.000374951
0.000374616
0.000374274
0.000373952
0.000373628
0.000368196
0.000295008
0.00029476
0.000301211
0.00027064
0.000192071
0.000160607
0.000176925
0.000361795
0.000468701
0.000436406
0.000350976
0.000268331
0.000235781
0.000235601
0.000288176
0.000493582
0.000493408
0.000493075
0.000443564
0.000363396
0.000300588
0.000297758
0.000348892
0.000385132
0.000384876
0.000384649
0.000384407
0.000383737
0.000362014
0.000339788
0.000344859
0.00034967
0.000336558
0.000339125
0.000373615
0.000382289
0.000382089
0.000381879
0.000359679
0.000324905
0.000315137
0.000314985
0.000314811
0.000314678
0.000314503
0.000314383
0.000314211
0.000342186
0.00037941
0.000379249
0.000379068
0.000378903
0.000339858
0.000371555
0.000371414
0.000371252
0.000371109
0.000350114
0.000286717
0.000274475
0.000256004
0.000172248
0.00015533
0.00015529
0.000374373
0.000484901
0.000484708
0.000484573
0.000470697
0.000409972
0.000386706
0.000364907
0.000323439
0.000289255
0.00028917
0.000335267
0.000356149
0.000356031
0.00035594
0.000318053
0.000305832
0.00030575
0.000305667
0.00030718
0.000269813
0.00027318
0.00038458
0.000384512
0.000384399
0.000384332
0.000384228
0.000333154
0.000294773
0.000294687
0.00029464
0.000294555
0.000294516
0.000291248
0.000291184
0.000327482
0.000382552
0.000382512
0.00038241
0.000382356
0.00037543
0.00035342
0.00033072
0.000301079
0.000314345
0.000354218
0.000354165
0.000274519
0.000226964
0.000226739
0.000181306
0.000127305
0.000127296
0.000127269
0.000338652
0.000499825
0.000499709
0.000497918
0.000438034
0.000380593
0.000343889
0.000321944
0.000294776
0.00027865
0.000278623
0.000278596
0.000323163
0.000365396
0.000365314
0.000365314
0.000337393
0.000264668
0.00022891
0.000205034
0.000193949
0.000193927
0.000284072
0.000403927
0.000403893
0.000403866
0.000388478
0.00038845
0.00037313
0.000326966
0.000319134
0.000326921
0.000339068
0.000344594
0.000340665
0.000310164
0.000303535
0.000324111
0.000330001
0.000323078
0.000323045
0.000339311
0.000281711
0.000281699
0.000281688
0.000294439
0.000379147
0.000379222
0.000379121
0.000379122
0.000348714
0.000313831
0.000313811
0.00031381
0.00031379
0.000313791
0.000314117
0.000352349
0.000361194
0.000350963
0.000326192
0.000313365
0.000313332
0.000369115
0.000369074
0.000369116
0.000369058
0.000369071
0.000357203
0.000345317
0.000345488
0.000346032
0.000324871
0.000322241
0.000321565
0.000321556
0.000321557
0.00033485
0.000347682
0.000355379
0.000355374
0.000355372
0.00035537
0.000334982
0.000334969
0.00034143
0.000302066
0.000294761
0.000294754
0.000294754
0.000283045
0.000283029
0.000271778
0.000229346
0.000257975
0.000290965
0.000345781
0.000381017
0.000417112
0.00046717
0.000465475
0.00051172
0.000500592
0.000499291
0.00044933
0.000448793
0.000473695
0.000460407
0.000461936
0.000459051
0.000454493
0.000442624
0.000444963
0.000443993
0.00046254
0.000484372
0.000483334
0.000439144
0.000437736
0.000435431
0.000471395
0.000474453
0.0004504
0.000446993
0.00044608
0.000445946
0.000431625
0.000457523
0.000456566
0.000420685
0.000439392
0.000466225
0.000474952
0.000441173
0.000419845
0.00045268
0.000451415
0.000443676
0.000416863
0.00040959
0.000409753
0.000428419
0.000432945
0.000437897
0.000434417
0.000408275
0.000407703
0.000408097
0.000438895
0.000434702
0.000407314
0.000402751
0.000401775
0.000400974
0.000400347
0.000420184
0.000445523
0.000444647
0.000441938
0.000385599
0.000384851
0.000424233
0.000423188
0.000420624
0.000421892
0.000421081
0.000419314
0.000392598
0.000391853
0.000389815
0.000389086
0.000396749
0.00039602
0.000384348
0.00038364
0.00038294
0.000382251
0.000381547
0.000405155
0.00041883
0.000419361
0.000418601
0.000411354
0.000396557
0.00037816
0.000387245
0.000401311
0.000400617
0.000388663
0.000387991
0.000387315
0.000382777
0.000382121
0.000381455
0.000356263
0.000355685
0.000355105
0.000366038
0.000370095
0.000364924
0.000396166
0.000377385
0.000356636
0.000389315
0.000411175
0.000411973
0.000387618
0.000387018
0.000386407
0.00038581
0.000385223
0.000390214
0.000373924
0.00037337
0.000370467
0.000357751
0.000374137
0.000401581
0.000403321
0.000376
0.000367087
0.000366564
0.000369401
0.000385277
0.000375887
0.000360971
0.000360474
0.000359982
0.000362669
0.000372324
0.000396123
0.000395581
0.000394347
0.000370815
0.000359936
0.000359465
0.000358996
0.000358545
0.000358107
0.000370565
0.000377775
0.000377304
0.000353962
0.000353515
0.000353081
0.000356413
0.000380811
0.000380371
0.000349543
0.00034914
0.000348743
0.000348357
0.000360013
0.000359598
0.0003592
0.000356364
0.000367842
0.000367444
0.000366766
0.00034092
0.000340562
0.000340206
0.00036478
0.000364422
0.000364047
0.000339575
0.000288795
0.000284778
0.000345965
0.000403582
0.000403205
0.00040282
0.000402449
0.000354179
0.000345691
0.000345373
0.000345056
0.000344745
0.000369095
0.000373951
0.000355356
0.000323684
0.000295152
0.000233732
0.000181016
0.000160823
0.0001607
0.000160572
0.000358794
0.000517167
0.000504786
0.000444745
0.000364417
0.000288707
0.000237328
0.000235601
0.000258405
0.000354866
0.000402445
0.000384353
0.000324142
0.00029742
0.000317134
0.000358074
0.000385382
0.000385127
0.000368458
0.000363245
0.00036303
0.000368049
0.000337572
0.000337118
0.00033693
0.000336734
0.000336555
0.000358928
0.000378259
0.000378059
0.000337215
0.000321114
0.000320945
0.00032078
0.000325531
0.000358425
0.000349318
0.000321673
0.000314531
0.000341446
0.000363629
0.000371039
0.000379419
0.000379239
0.000346931
0.000307433
0.000339483
0.000354938
0.000342006
0.000340356
0.000340219
0.000340086
0.000324236
0.000245079
0.000168977
0.000155401
0.00015535
0.000155263
0.000374353
0.000484873
0.000484736
0.000480377
0.000391361
0.000339603
0.000318618
0.000307669
0.000294252
0.000289253
0.000289168
0.000326177
0.000356137
0.000356036
0.000310683
0.000301557
0.000310267
0.000312941
0.000287143
0.000263316
0.000269802
0.000352923
0.000384579
0.000357848
0.000351709
0.000351628
0.000351553
0.000329894
0.000296713
0.000294708
0.00029462
0.000303419
0.000351815
0.000382782
0.000382713
0.000382632
0.000382565
0.000366742
0.000337487
0.000342273
0.000361134
0.000351306
0.000312123
0.000251788
0.000192961
0.000146778
0.000127413
0.00012736
0.000127368
0.000127338
0.000127334
0.000127299
0.000157916
0.00041339
0.000499842
0.000499774
0.000434456
0.000358655
0.000330626
0.000330594
0.000343258
0.000319668
0.000286039
0.00028147
0.000296222
0.000314751
0.00034951
0.000365344
0.000348757
0.000295936
0.000265207
0.000249361
0.000221774
0.000205034
0.000233524
0.000372838
0.000403958
0.000403927
0.000403898
0.000390955
0.000353447
0.000346968
0.000337157
0.000319153
0.000319133
0.000342614
0.000342595
0.000335921
0.00032727
0.000305799
0.000303538
0.000321211
0.00034225
0.000338184
0.000315761
0.000285164
0.00028514
0.000335955
0.000379205
0.000379161
0.000379231
0.000379134
0.000379125
0.000341986
0.000343128
0.000348102
0.000348096
0.00034808
0.000330912
0.000313785
0.000335302
0.000352356
0.000351722
0.000322498
0.000313372
0.000313355
0.000314223
0.000369081
0.000369096
0.000368081
0.000366092
0.000349671
0.000313404
0.000313404
0.000323918
0.000388717
0.000388692
0.000388708
0.000388681
0.000388685
0.000367349
0.000322905
0.000322898
0.0003229
0.00032289
0.000322894
0.000328103
0.000351912
0.000326548
0.000326546
0.000326538
0.0003271
0.000323014
0.000277576
0.000277564
0.000277572
0.000277562
0.000277571
0.00027756
0.00026585
0.000327042
0.000406293
0.000417183
0.000468542
0.000492044
0.000487608
0.000487735
0.000494873
0.000490749
0.000472753
0.00047369
0.000460388
0.000467911
0.00046693
0.000465973
0.000455852
0.000444339
0.000443382
0.000439845
0.000439666
0.000439881
0.000438913
0.000445372
0.000435435
0.000431881
0.000430611
0.000444643
0.000468168
0.000467204
0.000456477
0.000456121
0.000455143
0.000404092
0.000403284
0.000402482
0.000402166
0.000401333
0.000404485
0.000460147
0.0004592
0.000434653
0.000413082
0.000410733
0.000409578
0.000408735
0.000408032
0.000414499
0.000437897
0.000436148
0.000435279
0.000433622
0.000426169
0.000408327
0.000407495
0.000404428
0.00040274
0.000405345
0.000407205
0.000406403
0.000396528
0.000395506
0.000387094
0.000386344
0.000385598
0.000384848
0.000432565
0.000404562
0.000403814
0.000403324
0.000375688
0.000344684
0.000420072
0.000419262
0.000415502
0.000364714
0.000354949
0.000402879
0.000418885
0.000418098
0.000417318
0.000416564
0.000415804
0.000382252
0.00038157
0.00038087
0.000380191
0.000379526
0.000378854
0.000378162
0.000377486
0.000376812
0.000399143
0.000398454
0.000388113
0.000388699
0.00038803
0.00038002
0.000364978
0.000394038
0.000385639
0.000355114
0.000354544
0.000353961
0.000352865
0.000312913
0.000312404
0.000335887
0.0003803
0.000415699
0.000416107
0.000415462
0.000414818
0.000414172
0.000391208
0.000390816
0.000390222
0.000364663
0.000358815
0.000358284
0.000357755
0.000357209
0.000391102
0.000388379
0.000371884
0.00037135
0.000370817
0.000357179
0.000356676
0.000356164
0.000362064
0.000361565
0.000359981
0.000367303
0.000368801
0.000370378
0.000353606
0.000336684
0.000323602
0.000355511
0.000369104
0.000381961
0.000384874
0.000401284
0.000406506
0.000377776
0.000354406
0.000353957
0.000353524
0.000353076
0.000352655
0.000379851
0.000366795
0.000366372
0.000365945
0.000365529
0.000361206
0.000339464
0.00033393
0.000333558
0.00033319
0.00033282
0.000332466
0.000330111
0.000340913
0.000353753
0.000376299
0.000389876
0.000356723
0.000307859
0.000284157
0.000279842
0.000283322
0.00038716
0.000403583
0.000388203
0.000371838
0.000375726
0.000375383
0.000375041
0.000374698
0.000351222
0.000322047
0.00033988
0.000373564
0.000336546
0.000260971
0.000225851
0.000197522
0.000173857
0.000160815
0.000238624
0.000463265
0.000545582
0.000537692
0.000483372
0.000428108
0.000412196
0.00038133
0.00030606
0.000246271
0.000246087
0.000279178
0.000331168
0.000335855
0.0002636
0.00026343
0.000265655
0.000344196
0.000385376
0.000385133
0.000374784
0.000371913
0.000371684
0.000352492
0.000337316
0.000337121
0.000360009
0.000375183
0.000374974
0.000371704
0.000359463
0.000338164
0.000321285
0.000321116
0.000320947
0.00035217
0.000383516
0.000383324
0.000383137
0.00035742
0.000334097
0.000326304
0.000326157
0.000326005
0.000358817
0.000343171
0.000286416
0.000274497
0.000330719
0.000368272
0.000379001
0.000378848
0.000367174
0.000329657
0.00025786
0.000186258
0.00015546
0.000155407
0.000155323
0.00020777
0.000485043
0.000484905
0.000484719
0.000400716
0.000344669
0.000323565
0.000299794
0.000293784
0.000293694
0.000293597
0.000334012
0.000356237
0.000356141
0.000331956
0.00030164
0.000301558
0.000306935
0.00034177
0.000315202
0.000263317
0.000263073
0.000290362
0.000371193
0.000383109
0.00038302
0.000382935
0.000368855
0.000296933
0.000294775
0.000294697
0.000294645
0.00035657
0.000393887
0.000393807
0.000372793
0.000341282
0.000333309
0.000333255
0.000337487
0.000336745
0.000338957
0.000332807
0.000303182
0.000225768
0.000143907
0.000127434
0.000127387
0.000127392
0.000155186
0.000347728
0.000424514
0.000446831
0.000446772
0.000446696
0.000362713
0.000351779
0.000336755
0.000365664
0.0003749
0.000374848
0.000374809
0.000350291
0.00033024
0.000322566
0.000305375
0.000304899
0.000310986
0.0003566
0.00035335
0.000321492
0.000271155
0.000218981
0.000215909
0.000215872
0.000327246
0.000403987
0.000403956
0.000403927
0.000358213
0.000309011
0.000293646
0.000314265
0.000341941
0.000327171
0.000293287
0.000273156
0.000273141
0.000273119
0.000288485
0.000361473
0.000394522
0.000405502
0.000405483
0.000396224
0.000343551
0.000298507
0.000285152
0.000290072
0.000379173
0.000379182
0.000377557
0.00036711
0.000356387
0.000337798
0.000334883
0.000334871
0.000338177
0.000344951
0.000332835
0.000308885
0.000296207
0.000296186
0.000315062
0.000345966
0.000348678
0.000334831
0.000309219
0.000309213
0.000309204
0.000289829
0.000281742
0.000319527
0.000313397
0.000316261
0.000322203
0.000359866
0.000388709
0.000388687
0.000388695
0.000388521
0.00034659
0.000322903
0.000323649
0.000323625
0.000322897
0.000322887
0.000322892
0.000351901
0.00035465
0.000354647
0.000354646
0.000327096
0.000327092
0.000335241
0.000301288
0.000256152
0.000256141
0.00025615
0.000256136
0.000264504
0.000317958
0.00039703
0.000417253
0.000490962
0.000500555
0.000485111
0.000482152
0.000477756
0.000472937
0.00045577
0.000458091
0.000459738
0.000452847
0.000458396
0.000449423
0.000453203
0.000451201
0.000449704
0.00043985
0.000443546
0.000438104
0.000438931
0.000445371
0.000440876
0.000442394
0.00043061
0.000431696
0.00042613
0.000420269
0.000419418
0.000416761
0.000417002
0.000465282
0.000464319
0.000461913
0.000465872
0.000464004
0.000391664
0.000389011
0.000387062
0.00038622
0.000427328
0.000461704
0.000426479
0.000457897
0.000455009
0.000423221
0.000415718
0.000414878
0.000414056
0.000414133
0.000421715
0.000418652
0.000413527
0.00041254
0.00041092
0.000398876
0.000398092
0.000397301
0.000396525
0.000416232
0.000414597
0.000389235
0.000387967
0.000438277
0.000458441
0.000457811
0.000457295
0.000456468
0.000454551
0.000344232
0.000343567
0.000342912
0.000342273
0.000341651
0.000341051
0.000376679
0.000395628
0.000417789
0.000410465
0.000409731
0.000414674
0.000413923
0.000411597
0.000380882
0.0003802
0.000388151
0.000396147
0.000395427
0.000393125
0.000375558
0.000371036
0.000370395
0.000369765
0.000361657
0.000361037
0.000360424
0.000364976
0.000413297
0.000412611
0.000411947
0.000411284
0.000410618
0.00040994
0.000312912
0.000312403
0.000311896
0.000311379
0.000316767
0.000414319
0.000408969
0.000395899
0.000398787
0.00039123
0.00039065
0.000390236
0.000389635
0.000389043
0.000383248
0.000357761
0.000357221
0.000367205
0.000355905
0.000370427
0.000362143
0.000351204
0.000360713
0.000364164
0.000363643
0.000354081
0.0003536
0.000355673
0.000409741
0.000409205
0.000408664
0.000408107
0.000407559
0.00029783
0.000297427
0.000297047
0.000296657
0.000299526
0.000396324
0.000406499
0.000405999
0.000405495
0.000373057
0.000355097
0.00035466
0.000347238
0.000338704
0.000338313
0.000337919
0.000337534
0.000337148
0.00036238
0.000375286
0.000374856
0.000374447
0.000374025
0.000349183
0.000312929
0.000312584
0.000312255
0.00031191
0.00033927
0.000405053
0.000404655
0.000341449
0.000387435
0.000279839
0.000279552
0.0002922
0.000366201
0.000381352
0.00037184
0.000350422
0.000352513
0.000368137
0.000363501
0.000344332
0.000321269
0.000305917
0.000305642
0.000332506
0.000305017
0.000247428
0.000261874
0.000382707
0.00050741
0.000562216
0.000561752
0.000548872
0.000484786
0.000404907
0.000377283
0.000389851
0.000380471
0.000318248
0.000296879
0.000360672
0.000363539
0.000363287
0.000363018
0.000263606
0.000263418
0.000263252
0.000263058
0.000385062
0.000385128
0.000358135
0.000344447
0.000343476
0.000343269
0.000369109
0.000375618
0.000375401
0.000375189
0.000347115
0.000326653
0.000326474
0.000326297
0.000326119
0.000347773
0.000346089
0.000351269
0.000377448
0.000383323
0.000352765
0.000326681
0.000326526
0.000354209
0.000362418
0.000362262
0.000362093
0.000354848
0.000326298
0.000242791
0.000310809
0.000339725
0.000298886
0.000264009
0.000254917
0.000254813
0.000238851
0.000187615
0.000159781
0.000214999
0.000347764
0.000459899
0.00048507
0.000484889
0.000414593
0.00033625
0.000305946
0.00029862
0.000298526
0.000311502
0.000341683
0.000356452
0.000356339
0.000356236
0.000344644
0.000316646
0.000301639
0.000311144
0.000342261
0.000342165
0.00032113
0.000312399
0.000263073
0.000263004
0.000262937
0.000354114
0.00038302
0.000343904
0.000297001
0.000296934
0.000305211
0.000394137
0.000394047
0.000393979
0.000393888
0.000368394
0.00034566
0.000345308
0.000339869
0.000323392
0.000323337
0.000323282
0.000337316
0.000337259
0.000286748
0.000187339
0.000127461
0.000127415
0.000168588
0.000348664
0.000470201
0.000470172
0.000470068
0.000470026
0.000409412
0.000321513
0.000252323
0.000252291
0.000254309
0.00037494
0.000374889
0.00037486
0.000340623
0.000305018
0.000304989
0.000304941
0.000304928
0.000304872
0.00030487
0.000345362
0.000343291
0.000289056
0.000254753
0.000243054
0.000273812
0.000357532
0.000404017
0.000403987
0.000403957
0.000375023
0.000302473
0.000282451
0.000282434
0.000335089
0.000352874
0.000352807
0.000352796
0.000309756
0.000309724
0.000273119
0.000273103
0.000273086
0.000311868
0.000400065
0.000387918
0.000350171
0.000350675
0.00037921
0.000379205
0.00037918
0.000379177
0.000351333
0.000324262
0.000319378
0.000318037
0.000316139
0.000321217
0.000354506
0.000354496
0.000352749
0.000321347
0.000303648
0.000297692
0.000296194
0.000296178
0.000298763
0.000348869
0.00035269
0.000352707
0.000352689
0.000345202
0.000352641
0.000278924
0.000278914
0.000278914
0.000292902
0.00035759
0.000388708
0.000388692
0.000372047
0.000322907
0.000322912
0.000322897
0.000322905
0.000322885
0.000322899
0.000338373
0.00034682
0.000346818
0.000333068
0.000307485
0.000307472
0.000342427
0.000342428
0.000332746
0.000335241
0.00033524
0.000335238
0.000326224
0.000256143
0.000256154
0.000296365
0.000364393
0.000364372
0.000417324
0.000467833
0.000485474
0.000473424
0.000465675
0.000455867
0.000454896
0.000453934
0.000452988
0.000452053
0.000452192
0.00045034
0.000449417
0.000450539
0.000449557
0.000458889
0.000465345
0.000459302
0.000438107
0.000437582
0.000436574
0.00043563
0.000457447
0.000456501
0.000430712
0.000431503
0.000436389
0.000416637
0.000416735
0.000410977
0.000433496
0.000463728
0.000463479
0.000465863
0.000463095
0.000390268
0.00038621
0.000385433
0.000385479
0.000388483
0.000462544
0.000467841
0.000464831
0.000435562
0.000417136
0.000416025
0.000427784
0.000425297
0.000412496
0.000407634
0.000419608
0.000418743
0.000400451
0.000399666
0.000398871
0.000398087
0.000397318
0.000426205
0.00042537
0.000409156
0.000408223
0.000412968
0.000419729
0.00045821
0.000457747
0.000457296
0.0004564
0.000455512
0.000359874
0.00034357
0.000342911
0.000395216
0.000435228
0.000434405
0.000414063
0.000395627
0.000410781
0.000411405
0.000410665
0.000397532
0.000382508
0.000381822
0.000381135
0.00038046
0.000379422
0.000378743
0.000378061
0.000377385
0.000403958
0.000403241
0.000401667
0.000362278
0.000361664
0.000377109
0.00039019
0.000390782
0.000400293
0.000370346
0.000379575
0.000411275
0.000410611
0.000399645
0.000312924
0.000312404
0.000311877
0.000353302
0.00039919
0.000386532
0.000385937
0.000385331
0.000398892
0.000398284
0.000395478
0.000366075
0.000366402
0.000384081
0.000383519
0.000378321
0.000353272
0.000352739
0.000352208
0.000351697
0.000351187
0.000350689
0.000350184
0.000359209
0.000356172
0.000374812
0.000410802
0.000410298
0.000409746
0.00040921
0.000408653
0.000408112
0.00040315
0.000297838
0.000297434
0.000297032
0.000296652
0.000363737
0.000391271
0.000388961
0.000377738
0.000383044
0.000382566
0.000374471
0.000350868
0.000350444
0.000365208
0.000364778
0.000362196
0.000339146
0.000337148
0.000336763
0.000339647
0.000372853
0.00036035
0.000327049
0.000313267
0.000312924
0.000312589
0.000312237
0.000388319
0.000405484
0.000405051
0.000404673
0.000404251
0.00040385
0.000279836
0.000279552
0.000314841
0.000351393
0.000351069
0.000350745
0.000350419
0.00036017
0.000365119
0.000355944
0.000336089
0.000314083
0.000311976
0.000297293
0.000227488
0.00014476
0.000144441
0.000301663
0.000515273
0.000562658
0.000562195
0.000559381
0.000459264
0.000358838
0.000332828
0.000332577
0.000358716
0.000380425
0.000359335
0.000357648
0.000363815
0.00036356
0.000363283
0.000363036
0.000263602
0.000263429
0.000263234
0.000266949
0.000373218
0.000384364
0.000365298
0.000350028
0.000343475
0.000346811
0.000375842
0.000375621
0.000375405
0.000374543
0.000349764
0.000326655
0.000330408
0.000352468
0.00035228
0.000352098
0.000328056
0.000322713
0.000322543
0.000322383
0.00032222
0.000328074
0.000348696
0.000362584
0.000362425
0.000362254
0.000343488
0.000279299
0.000303406
0.00022126
0.000260017
0.000265871
0.000240894
0.000245566
0.000254918
0.000248201
0.000213714
0.000208535
0.000264258
0.000360618
0.000432966
0.000446086
0.000434705
0.00041475
0.000358427
0.000306996
0.000298626
0.000298527
0.000336159
0.000356665
0.000356563
0.000356446
0.000356342
0.000333033
0.000300692
0.000300607
0.000300524
0.000312689
0.000342266
0.000342171
0.000308444
0.000308374
0.000263071
0.000263002
0.000338105
0.000354138
0.000351982
0.000318077
0.000297004
0.000296936
0.000307449
0.000394128
0.000394054
0.000375298
0.000355373
0.000352935
0.000352856
0.000352804
0.000352728
0.000352674
0.000352601
0.000340812
0.000307783
0.000276407
0.000223144
0.000155119
0.000127451
0.000153567
0.000328749
0.000470268
0.000470218
0.000464039
0.000450198
0.000426364
0.000304373
0.000294013
0.000252324
0.000252292
0.00025226
0.000347757
0.000374901
0.000374693
0.000321266
0.000305021
0.000304979
0.000312809
0.000381133
0.000382212
0.00038215
0.00038214
0.000346984
0.000274291
0.000248033
0.000248002
0.000294024
0.000341072
0.000382237
0.00038526
0.000345667
0.0002982
0.000282471
0.000282454
0.000282432
0.000314696
0.000352828
0.000352855
0.000352796
0.000307026
0.000307019
0.000273118
0.000273104
0.000273086
0.000337028
0.00039286
0.00035867
0.000350174
0.000350733
0.000367576
0.000360872
0.000360857
0.000365107
0.000378139
0.000336071
0.000316149
0.00031615
0.000316087
0.000316129
0.000354491
0.000354495
0.000354485
0.000351731
0.000333337
0.00032371
0.000310815
0.000296362
0.000307388
0.000352698
0.000352752
0.000352696
0.000352734
0.000352682
0.000352676
0.00027892
0.000278919
0.000278906
0.000278896
0.000348579
0.000363447
0.00038599
0.000401078
0.000401071
0.000401062
0.000391535
0.000366806
0.000356412
0.000360535
0.00036053
0.000339169
0.000327593
0.000333064
0.000316489
0.000307464
0.000307459
0.000307457
0.000307455
0.000307447
0.000307447
0.000307449
0.000278026
0.00025615
0.000268852
0.000374129
0.000428702
0.000472524
0.000522271
0.000496776
0.000458073
0.00046431
0.000457165
0.000456197
0.000477221
0.000476197
0.000463473
0.000452347
0.000469727
0.00045115
0.000452932
0.000463982
0.000462976
0.000461251
0.000465354
0.000439977
0.000439056
0.000437881
0.000450477
0.000462631
0.000456511
0.000431594
0.000430725
0.000438208
0.000436386
0.000416624
0.000418638
0.000410966
0.000431806
0.000465984
0.000463412
0.000456734
0.000462347
0.000391274
0.000391937
0.000386235
0.000417661
0.000427004
0.000431366
0.000467854
0.00046683
0.000448246
0.000430445
0.000444162
0.000442684
0.000406353
0.000405545
0.000404729
0.000404645
0.000401541
0.000400453
0.000399994
0.000410131
0.00041148
0.000412063
0.000426215
0.000424792
0.000413827
0.000404586
0.000393711
0.000400681
0.000457657