/*--------------------------------*- C++ -*----------------------------------*\
  =========                 |
  \\      /  F ield         | OpenFOAM: The Open Source CFD Toolbox
   \\    /   O peration     | Website:  https://openfoam.org
    \\  /    A nd           | Version:  7
     \\/     M anipulation  |
\*---------------------------------------------------------------------------*/
FoamFile
{
    version     2.0;
    format      ascii;
    class       volScalarField;
    location    "5500";
    object      nuTotal;
}
// * * * * * * * * * * * * * * * * * * * * * * * * * * * * * * * * * * * * * //

dimensions      [0 2 -1 0 0 0 0];

internalField   nonuniform List<scalar> 
160000
(
9.33963e-07
9.32056e-07
9.32701e-07
9.30903e-07
9.31194e-07
9.28543e-07
9.20801e-07
9.1694e-07
9.18029e-07
9.17293e-07
9.16505e-07
9.15385e-07
9.13327e-07
9.11264e-07
9.09263e-07
9.05436e-07
9.02269e-07
9.00117e-07
8.98216e-07
8.96299e-07
8.94778e-07
8.9698e-07
8.94763e-07
8.90859e-07
8.88121e-07
8.90491e-07
8.89261e-07
8.87441e-07
8.85813e-07
8.84003e-07
8.78356e-07
8.74107e-07
8.72309e-07
8.70772e-07
8.69087e-07
8.71674e-07
8.69861e-07
8.68056e-07
8.6632e-07
8.61439e-07
8.59144e-07
8.57399e-07
8.60387e-07
8.59713e-07
8.58056e-07
8.564e-07
8.47562e-07
8.45607e-07
8.43977e-07
8.42449e-07
8.46829e-07
8.47475e-07
8.45809e-07
8.44154e-07
8.42482e-07
8.40844e-07
8.32974e-07
8.31364e-07
8.32078e-07
8.3067e-07
8.27813e-07
8.25197e-07
8.23631e-07
8.22119e-07
8.21239e-07
8.19306e-07
8.17707e-07
8.16139e-07
8.14627e-07
8.19964e-07
8.18443e-07
8.16895e-07
8.15397e-07
8.13904e-07
8.07757e-07
8.03834e-07
8.01877e-07
8.00625e-07
7.98961e-07
7.97525e-07
7.95943e-07
7.94447e-07
7.93019e-07
7.93091e-07
7.92802e-07
7.91395e-07
7.90016e-07
7.88682e-07
7.87358e-07
7.86003e-07
7.84686e-07
7.83371e-07
7.81998e-07
7.80575e-07
7.79272e-07
7.78614e-07
7.77365e-07
7.73197e-07
7.71905e-07
7.70702e-07
7.69462e-07
7.69552e-07
7.68323e-07
7.67053e-07
7.68068e-07
7.66858e-07
7.65672e-07
7.64504e-07
7.63302e-07
7.60109e-07
7.5677e-07
7.55756e-07
7.54643e-07
7.53516e-07
7.54216e-07
7.53109e-07
7.53484e-07
7.5364e-07
7.51411e-07
7.46218e-07
7.45197e-07
7.4544e-07
7.44407e-07
7.43362e-07
7.42317e-07
7.41045e-07
7.3914e-07
7.38143e-07
7.37168e-07
7.36186e-07
7.35227e-07
7.36498e-07
7.36841e-07
7.35819e-07
7.34807e-07
7.33846e-07
7.32461e-07
7.31534e-07
7.3063e-07
7.30076e-07
7.29001e-07
7.28067e-07
7.27613e-07
7.26755e-07
7.25837e-07
7.24946e-07
7.2409e-07
7.2324e-07
7.19891e-07
7.19086e-07
7.2158e-07
7.20777e-07
7.19989e-07
7.19189e-07
7.18604e-07
7.1783e-07
7.17045e-07
7.13984e-07
7.13208e-07
7.12451e-07
7.137e-07
7.12922e-07
7.11371e-07
7.09139e-07
7.0954e-07
7.11138e-07
7.10414e-07
7.12506e-07
7.1181e-07
7.11125e-07
7.07801e-07
6.99685e-07
6.99046e-07
6.98405e-07
6.97757e-07
7.01686e-07
7.01069e-07
6.99117e-07
6.97592e-07
6.96955e-07
6.96367e-07
6.95782e-07
6.95192e-07
6.97575e-07
6.97993e-07
6.9731e-07
6.96737e-07
6.97038e-07
7.06723e-07
7.0773e-07
6.99482e-07
6.96189e-07
6.93066e-07
6.89975e-07
6.89461e-07
6.97741e-07
7.08679e-07
6.92884e-07
6.77566e-07
6.77079e-07
6.76618e-07
6.76171e-07
6.79166e-07
6.882e-07
6.92334e-07
6.91873e-07
6.87363e-07
6.80758e-07
6.80349e-07
6.79998e-07
6.79601e-07
6.79253e-07
6.79648e-07
6.79955e-07
6.80054e-07
6.80605e-07
6.81717e-07
6.81354e-07
6.76558e-07
6.76189e-07
6.75817e-07
6.75467e-07
6.75423e-07
6.81287e-07
6.81755e-07
6.81431e-07
6.81103e-07
6.8078e-07
6.80467e-07
6.76664e-07
6.7637e-07
6.76246e-07
6.77151e-07
6.76855e-07
6.76563e-07
6.76274e-07
6.75996e-07
6.71781e-07
6.70994e-07
6.70734e-07
6.70474e-07
6.73747e-07
6.74779e-07
6.78839e-07
6.85002e-07
7.00895e-07
7.13168e-07
6.99941e-07
6.69203e-07
6.59905e-07
6.59692e-07
6.59484e-07
6.59648e-07
6.62841e-07
6.68175e-07
6.7012e-07
6.70919e-07
6.7632e-07
6.7613e-07
6.67734e-07
6.67148e-07
6.66955e-07
6.66777e-07
6.7065e-07
6.72443e-07
6.71033e-07
6.70856e-07
6.72707e-07
6.76899e-07
6.76722e-07
6.64233e-07
6.62493e-07
6.6235e-07
6.62205e-07
6.63368e-07
6.72211e-07
6.72074e-07
6.7193e-07
6.66965e-07
6.66837e-07
6.67196e-07
6.71906e-07
6.71785e-07
6.71663e-07
6.70048e-07
6.60727e-07
6.6062e-07
6.60513e-07
6.63456e-07
6.63974e-07
6.63868e-07
6.66977e-07
6.66876e-07
6.65024e-07
6.62164e-07
6.62064e-07
6.62666e-07
6.80903e-07
7.04705e-07
7.33852e-07
7.33747e-07
6.991e-07
6.5117e-07
6.51093e-07
6.51024e-07
6.50952e-07
6.50887e-07
6.53477e-07
6.57809e-07
6.64364e-07
6.68098e-07
6.69391e-07
6.70904e-07
6.70842e-07
6.64867e-07
6.59588e-07
6.59534e-07
6.59476e-07
6.61584e-07
6.69945e-07
6.77408e-07
6.85634e-07
6.91773e-07
6.91713e-07
6.91678e-07
6.91607e-07
6.72908e-07
6.60056e-07
6.56824e-07
6.56785e-07
6.5719e-07
6.57378e-07
6.57341e-07
6.57306e-07
6.58267e-07
6.6063e-07
6.65463e-07
6.66323e-07
6.66295e-07
6.61188e-07
6.61162e-07
6.61132e-07
6.61109e-07
6.68957e-07
6.6893e-07
6.68903e-07
6.68878e-07
6.66114e-07
6.56974e-07
6.56944e-07
6.56931e-07
6.57273e-07
6.62795e-07
6.63944e-07
6.63927e-07
6.63764e-07
6.58477e-07
6.58464e-07
6.58444e-07
6.58432e-07
6.59125e-07
6.63862e-07
6.63848e-07
6.63834e-07
6.63824e-07
6.63807e-07
6.63802e-07
6.63782e-07
6.63761e-07
6.58026e-07
6.5802e-07
6.58009e-07
6.58001e-07
6.57991e-07
6.58572e-07
6.58564e-07
6.59654e-07
6.62557e-07
6.62599e-07
6.62592e-07
6.62537e-07
6.59472e-07
6.60938e-07
6.60933e-07
6.60929e-07
6.60231e-07
6.60227e-07
6.60223e-07
6.60934e-07
6.65261e-07
6.66187e-07
6.69668e-07
6.69665e-07
6.70109e-07
6.7919e-07
6.77152e-07
6.60594e-07
6.60595e-07
6.54485e-07
6.5342e-07
9.35206e-07
9.33346e-07
9.28139e-07
9.30068e-07
9.2992e-07
9.28557e-07
9.26406e-07
9.22852e-07
9.19771e-07
9.17212e-07
9.15271e-07
9.14055e-07
9.134e-07
9.11354e-07
9.09402e-07
9.05452e-07
9.02366e-07
9.03541e-07
9.01861e-07
8.99972e-07
8.97474e-07
8.96808e-07
8.9118e-07
8.89348e-07
8.88099e-07
8.90986e-07
8.8941e-07
8.87666e-07
8.85821e-07
8.79797e-07
8.78087e-07
8.76242e-07
8.73166e-07
8.7067e-07
8.69063e-07
8.71673e-07
8.69918e-07
8.6818e-07
8.65852e-07
8.60842e-07
8.59078e-07
8.5749e-07
8.57374e-07
8.59718e-07
8.58177e-07
8.56412e-07
8.5469e-07
8.49488e-07
8.44031e-07
8.42435e-07
8.43776e-07
8.4635e-07
8.40184e-07
8.38502e-07
8.36963e-07
8.3771e-07
8.33023e-07
8.32629e-07
8.32202e-07
8.30629e-07
8.29037e-07
8.25249e-07
8.23843e-07
8.22997e-07
8.21487e-07
8.19806e-07
8.20236e-07
8.18705e-07
8.1717e-07
8.14732e-07
8.13169e-07
8.11641e-07
8.12894e-07
8.09924e-07
8.0503e-07
8.03326e-07
8.01874e-07
8.01575e-07
8.0281e-07
8.01065e-07
7.96058e-07
7.96221e-07
7.95339e-07
7.93959e-07
7.92555e-07
7.91023e-07
7.89644e-07
7.88675e-07
7.87346e-07
7.86011e-07
7.84667e-07
7.83336e-07
7.81769e-07
7.80421e-07
7.79883e-07
7.78632e-07
7.74539e-07
7.73168e-07
7.71914e-07
7.70945e-07
7.69472e-07
7.68235e-07
7.71587e-07
7.7033e-07
7.65928e-07
7.66845e-07
7.62692e-07
7.60307e-07
7.59123e-07
7.57945e-07
7.56777e-07
7.57938e-07
7.58408e-07
7.57697e-07
7.56774e-07
7.55666e-07
7.54734e-07
7.53625e-07
7.49929e-07
7.46176e-07
7.45086e-07
7.44032e-07
7.42995e-07
7.41952e-07
7.41243e-07
7.40198e-07
7.39161e-07
7.38158e-07
7.37169e-07
7.36187e-07
7.35231e-07
7.37806e-07
7.36837e-07
7.35809e-07
7.33861e-07
7.33973e-07
7.32471e-07
7.31524e-07
7.31188e-07
7.30316e-07
7.29423e-07
7.28507e-07
7.27612e-07
7.26628e-07
7.23898e-07
7.23022e-07
7.21407e-07
7.20558e-07
7.19738e-07
7.21328e-07
7.2051e-07
7.19698e-07
7.20194e-07
7.194e-07
7.18602e-07
7.17813e-07
7.17031e-07
7.16252e-07
7.15496e-07
7.14748e-07
7.14e-07
7.13099e-07
7.09847e-07
7.0914e-07
7.11706e-07
7.11139e-07
7.0973e-07
7.11725e-07
7.11592e-07
7.06783e-07
7.02148e-07
6.99689e-07
7.02911e-07
7.02269e-07
7.01353e-07
6.99624e-07
6.98835e-07
6.98211e-07
6.97588e-07
6.9697e-07
6.96374e-07
6.95785e-07
6.95702e-07
7.04257e-07
7.03683e-07
7.02063e-07
7.06625e-07
7.27651e-07
7.42387e-07
7.33022e-07
6.91543e-07
6.82707e-07
6.84276e-07
6.91153e-07
7.02558e-07
7.09197e-07
7.08668e-07
6.97312e-07
6.77573e-07
6.77088e-07
6.76628e-07
6.79096e-07
6.85159e-07
6.92384e-07
6.92322e-07
6.85228e-07
6.81192e-07
6.80765e-07
6.80352e-07
6.79949e-07
6.79592e-07
6.81237e-07
6.8322e-07
6.82242e-07
6.81315e-07
6.82398e-07
6.81712e-07
6.77737e-07
6.76557e-07
6.76191e-07
6.75832e-07
6.77581e-07
6.81156e-07
6.82077e-07
6.81751e-07
6.81428e-07
6.81098e-07
6.80783e-07
6.80464e-07
6.80154e-07
6.76395e-07
6.72335e-07
6.72038e-07
6.71738e-07
6.71448e-07
6.75113e-07
6.71535e-07
6.7126e-07
6.70996e-07
6.70735e-07
6.7257e-07
6.80662e-07
6.82475e-07
6.8575e-07
7.12332e-07
7.21446e-07
7.21146e-07
6.68182e-07
6.60134e-07
6.5991e-07
6.59696e-07
6.60252e-07
6.6405e-07
6.65726e-07
6.67513e-07
6.71888e-07
6.76512e-07
6.76319e-07
6.69837e-07
6.67347e-07
6.6715e-07
6.66962e-07
6.71144e-07
6.72615e-07
6.72441e-07
6.72264e-07
6.71869e-07
6.77689e-07
6.76893e-07
6.62805e-07
6.62643e-07
6.62496e-07
6.62348e-07
6.62208e-07
6.67223e-07
6.72211e-07
6.72074e-07
6.71925e-07
6.71788e-07
6.71655e-07
6.72026e-07
6.71905e-07
6.66773e-07
6.60963e-07
6.60841e-07
6.6073e-07
6.6062e-07
6.61127e-07
6.63152e-07
6.65558e-07
6.69343e-07
6.67394e-07
6.62632e-07
6.62528e-07
6.73162e-07
6.83378e-07
6.83328e-07
6.98747e-07
7.33945e-07
7.33842e-07
7.33743e-07
6.63365e-07
6.5117e-07
6.51099e-07
6.51114e-07
6.54487e-07
6.58791e-07
6.62325e-07
6.64827e-07
6.68506e-07
6.71032e-07
6.70968e-07
6.70905e-07
6.64333e-07
6.59647e-07
6.59592e-07
6.59533e-07
6.62395e-07
6.73049e-07
6.80973e-07
6.87948e-07
6.91808e-07
6.91761e-07
6.69344e-07
6.55758e-07
6.5571e-07
6.55664e-07
6.56866e-07
6.56825e-07
6.58132e-07
6.62966e-07
6.63902e-07
6.62892e-07
6.61435e-07
6.60788e-07
6.61184e-07
6.64897e-07
6.65783e-07
6.63021e-07
6.62274e-07
6.63086e-07
6.6306e-07
6.61109e-07
6.68956e-07
6.68929e-07
6.68903e-07
6.66849e-07
6.56997e-07
6.56966e-07
6.56952e-07
6.5693e-07
6.59856e-07
6.63964e-07
6.63946e-07
6.63926e-07
6.63909e-07
6.6389e-07
6.63828e-07
6.5934e-07
6.58432e-07
6.59452e-07
6.62231e-07
6.63847e-07
6.63837e-07
6.57596e-07
6.57586e-07
6.57569e-07
6.57561e-07
6.57548e-07
6.58689e-07
6.59918e-07
6.59889e-07
6.5982e-07
6.62244e-07
6.62561e-07
6.62637e-07
6.6263e-07
6.62622e-07
6.61015e-07
6.59587e-07
6.5878e-07
6.58774e-07
6.58768e-07
6.58763e-07
6.60964e-07
6.6096e-07
6.60227e-07
6.65181e-07
6.66253e-07
6.66251e-07
6.66247e-07
6.68093e-07
6.68093e-07
6.70027e-07
6.79191e-07
6.72649e-07
6.66815e-07
6.59723e-07
6.56297e-07
6.53415e-07
9.35221e-07
9.33392e-07
9.28144e-07
9.26882e-07
9.2497e-07
9.26701e-07
9.24783e-07
9.20802e-07
9.19855e-07
9.17786e-07
9.15989e-07
9.14364e-07
9.13413e-07
9.11255e-07
9.09294e-07
9.05818e-07
9.02279e-07
9.0037e-07
9.01832e-07
8.99984e-07
8.98229e-07
8.93445e-07
8.91324e-07
8.91292e-07
8.89705e-07
8.8791e-07
8.86018e-07
8.8529e-07
8.81217e-07
8.79401e-07
8.80591e-07
8.77118e-07
8.73163e-07
8.70674e-07
8.71425e-07
8.71445e-07
8.66812e-07
8.65097e-07
8.63934e-07
8.64409e-07
8.63234e-07
8.61394e-07
8.57915e-07
8.55766e-07
8.53536e-07
8.52e-07
8.52583e-07
8.50931e-07
8.49166e-07
8.44677e-07
8.43239e-07
8.43919e-07
8.42645e-07
8.41019e-07
8.39366e-07
8.37721e-07
8.34176e-07
8.30396e-07
8.28784e-07
8.27342e-07
8.30806e-07
8.29218e-07
8.23847e-07
8.22349e-07
8.21011e-07
8.19278e-07
8.17724e-07
8.16283e-07
8.17169e-07
8.15639e-07
8.1426e-07
8.1276e-07
8.10407e-07
8.08939e-07
8.08582e-07
8.07112e-07
8.05663e-07
8.0423e-07
8.02776e-07
7.98984e-07
7.96302e-07
7.94759e-07
7.93337e-07
7.92522e-07
7.92417e-07
7.92764e-07
7.90375e-07
7.87577e-07
7.86234e-07
7.85991e-07
7.84649e-07
7.83304e-07
7.82373e-07
7.81053e-07
7.79768e-07
7.81194e-07
7.79946e-07
7.78693e-07
7.76133e-07
7.7439e-07
7.73662e-07
7.69207e-07
7.69737e-07
7.7068e-07
7.65926e-07
7.62672e-07
7.61363e-07
7.62337e-07
7.61173e-07
7.59993e-07
7.58834e-07
7.577e-07
7.56045e-07
7.56491e-07
7.55387e-07
7.54521e-07
7.54734e-07
7.51796e-07
7.48021e-07
7.46722e-07
7.48156e-07
7.47966e-07
7.46913e-07
7.45512e-07
7.4284e-07
7.42667e-07
7.43145e-07
7.42138e-07
7.41142e-07
7.39827e-07
7.37815e-07
7.34539e-07
7.33552e-07
7.32623e-07
7.33845e-07
7.33982e-07
7.33035e-07
7.32092e-07
7.31185e-07
7.30304e-07
7.28056e-07
7.26381e-07
7.25486e-07
7.2699e-07
7.26092e-07
7.25209e-07
7.23939e-07
7.20567e-07
7.19747e-07
7.221e-07
7.21281e-07
7.20474e-07
7.19691e-07
7.17563e-07
7.1675e-07
7.15968e-07
7.15456e-07
7.13432e-07
7.12671e-07
7.11951e-07
7.14006e-07
7.13264e-07
7.12527e-07
7.09066e-07
7.08375e-07
7.07687e-07
7.09651e-07
7.16065e-07
7.15982e-07
7.06643e-07
7.00342e-07
6.99685e-07
6.99041e-07
6.98404e-07
7.02311e-07
7.02597e-07
7.01962e-07
7.01328e-07
7.0071e-07
6.97483e-07
6.96378e-07
6.97645e-07
7.00766e-07
7.04236e-07
7.16068e-07
7.33614e-07
7.43496e-07
7.42932e-07
7.42354e-07
6.92396e-07
6.80623e-07
6.80735e-07
6.83716e-07
6.89747e-07
6.98937e-07
7.08804e-07
7.08667e-07
7.0284e-07
6.87983e-07
6.83071e-07
6.84129e-07
6.90085e-07
6.93342e-07
6.90026e-07
6.84722e-07
6.81635e-07
6.81198e-07
6.82298e-07
6.82376e-07
6.81969e-07
6.81055e-07
6.83887e-07
6.83529e-07
6.83143e-07
6.82766e-07
6.82394e-07
6.79556e-07
6.77301e-07
6.7694e-07
6.80783e-07
6.82382e-07
6.8203e-07
6.81685e-07
6.80722e-07
6.76651e-07
6.77265e-07
6.80177e-07
6.80779e-07
6.77124e-07
6.74451e-07
6.73418e-07
6.72333e-07
6.72037e-07
6.74937e-07
6.79524e-07
6.75155e-07
6.73178e-07
6.74289e-07
6.74196e-07
6.73934e-07
6.73673e-07
6.75293e-07
6.88413e-07
7.14277e-07
7.21697e-07
7.21422e-07
7.21146e-07
6.68169e-07
6.60132e-07
6.59914e-07
6.59934e-07
6.65763e-07
6.70598e-07
6.72926e-07
6.74185e-07
6.75938e-07
6.76509e-07
6.76312e-07
6.70916e-07
6.67345e-07
6.67156e-07
6.72323e-07
6.73418e-07
6.72e-07
6.71449e-07
6.75063e-07
6.79098e-07
6.77686e-07
6.65989e-07
6.62805e-07
6.65144e-07
6.65617e-07
6.65471e-07
6.65328e-07
6.6761e-07
6.71914e-07
6.72065e-07
6.71925e-07
6.70478e-07
6.64421e-07
6.61328e-07
6.61204e-07
6.61082e-07
6.60962e-07
6.62288e-07
6.65224e-07
6.6457e-07
6.62485e-07
6.63374e-07
6.67913e-07
6.78015e-07
6.94658e-07
7.18458e-07
7.344e-07
7.34332e-07
7.34202e-07
7.34111e-07
7.34009e-07
7.33939e-07
7.10455e-07
6.5662e-07
6.51262e-07
6.51181e-07
6.54879e-07
6.61002e-07
6.63982e-07
6.63912e-07
6.62394e-07
6.65115e-07
6.69873e-07
6.70554e-07
6.68149e-07
6.65476e-07
6.6131e-07
6.59651e-07
6.61265e-07
6.67872e-07
6.73005e-07
6.76164e-07
6.82901e-07
6.87947e-07
6.79681e-07
6.58493e-07
6.55807e-07
6.55757e-07
6.55711e-07
6.56706e-07
6.60134e-07
6.6077e-07
6.61811e-07
6.6394e-07
6.63902e-07
6.61079e-07
6.61043e-07
6.61755e-07
6.62738e-07
6.65498e-07
6.65782e-07
6.63382e-07
6.60871e-07
6.61294e-07
6.63989e-07
6.68417e-07
6.68391e-07
6.61432e-07
6.57044e-07
6.57022e-07
6.5699e-07
6.56974e-07
6.56953e-07
6.60605e-07
6.60458e-07
6.599e-07
6.5988e-07
6.59862e-07
6.61767e-07
6.63891e-07
6.61218e-07
6.5934e-07
6.59389e-07
6.62702e-07
6.63861e-07
6.63849e-07
6.63719e-07
6.57598e-07
6.57583e-07
6.57666e-07
6.57842e-07
6.59476e-07
6.63749e-07
6.63738e-07
6.62381e-07
6.55759e-07
6.55751e-07
6.55741e-07
6.55735e-07
6.55727e-07
6.57625e-07
6.62447e-07
6.62441e-07
6.62434e-07
6.62429e-07
6.62422e-07
6.61779e-07
6.59113e-07
6.61957e-07
6.61953e-07
6.61949e-07
6.61877e-07
6.62375e-07
6.69016e-07
6.69015e-07
6.69011e-07
6.6901e-07
6.69007e-07
6.69007e-07
6.71114e-07
6.61864e-07
6.54222e-07
6.5341e-07
9.35121e-07
9.31434e-07
9.29759e-07
9.27744e-07
9.25245e-07
9.23527e-07
9.22854e-07
9.20791e-07
9.19818e-07
9.17257e-07
9.15358e-07
9.13505e-07
9.12346e-07
9.11311e-07
9.09371e-07
9.07677e-07
9.05736e-07
9.03733e-07
9.01847e-07
8.99325e-07
8.98235e-07
8.96606e-07
8.9481e-07
8.91769e-07
8.88017e-07
8.86215e-07
8.85177e-07
8.83261e-07
8.81393e-07
8.84033e-07
8.82286e-07
8.80525e-07
8.78708e-07
8.76913e-07
8.74714e-07
8.68076e-07
8.66312e-07
8.66479e-07
8.66622e-07
8.64981e-07
8.63209e-07
8.61457e-07
8.5974e-07
8.57365e-07
8.53536e-07
8.51893e-07
8.50218e-07
8.48627e-07
8.47512e-07
8.47358e-07
8.45653e-07
8.44156e-07
8.42622e-07
8.40675e-07
8.38759e-07
8.37127e-07
8.36396e-07
8.34812e-07
8.33985e-07
8.3239e-07
8.30807e-07
8.29209e-07
8.23155e-07
8.24036e-07
8.22534e-07
8.20969e-07
8.22146e-07
8.24219e-07
8.14608e-07
8.13057e-07
8.11818e-07
8.15388e-07
8.14972e-07
8.08304e-07
8.0531e-07
8.03819e-07
8.02389e-07
8.00959e-07
7.99516e-07
8.01222e-07
7.99809e-07
7.98366e-07
7.96961e-07
7.95591e-07
7.94199e-07
7.92775e-07
7.91373e-07
7.89983e-07
7.86363e-07
7.85026e-07
7.84621e-07
7.83178e-07
7.81848e-07
7.81278e-07
7.81535e-07
7.77222e-07
7.76718e-07
7.78714e-07
7.77481e-07
7.76222e-07
7.75042e-07
7.79098e-07
7.77844e-07
7.73205e-07
7.66803e-07
7.62277e-07
7.60994e-07
7.59832e-07
7.58671e-07
7.57506e-07
7.58342e-07
7.57188e-07
7.56052e-07
7.57463e-07
7.56944e-07
7.55844e-07
7.54742e-07
7.53615e-07
7.48963e-07
7.48077e-07
7.48583e-07
7.47524e-07
7.46468e-07
7.4684e-07
7.45801e-07
7.44749e-07
7.43009e-07
7.42005e-07
7.41142e-07
7.39335e-07
7.38168e-07
7.36987e-07
7.37764e-07
7.38745e-07
7.39412e-07
7.34469e-07
7.32018e-07
7.29755e-07
7.28515e-07
7.26099e-07
7.24719e-07
7.26381e-07
7.27887e-07
7.26999e-07
7.26106e-07
7.25219e-07
7.24353e-07
7.20665e-07
7.21103e-07
7.2028e-07
7.19457e-07
7.1865e-07
7.18264e-07
7.1988e-07
7.19716e-07
7.18932e-07
7.18151e-07
7.17371e-07
7.16618e-07
7.16122e-07
7.13998e-07
7.11745e-07
7.08658e-07
7.06658e-07
7.09185e-07
7.14593e-07
7.17629e-07
7.17625e-07
7.16226e-07
7.02459e-07
7.00335e-07
7.00976e-07
7.01834e-07
7.00785e-07
7.00154e-07
6.99529e-07
6.98901e-07
7.00654e-07
7.03513e-07
7.00644e-07
6.96422e-07
6.99773e-07
7.11017e-07
7.18823e-07
7.27383e-07
7.36995e-07
7.43456e-07
7.12891e-07
6.84648e-07
6.79871e-07
6.79694e-07
6.81886e-07
6.84856e-07
6.85518e-07
6.87588e-07
6.95708e-07
7.06093e-07
7.0557e-07
6.98344e-07
6.90194e-07
6.89139e-07
6.99746e-07
6.99282e-07
6.98341e-07
6.8621e-07
6.81631e-07
6.812e-07
6.81701e-07
6.81536e-07
6.8113e-07
6.82643e-07
6.83918e-07
6.83524e-07
6.80619e-07
6.78744e-07
6.78374e-07
6.78295e-07
6.79117e-07
6.81052e-07
6.8274e-07
6.82388e-07
6.82034e-07
6.78006e-07
6.74606e-07
6.74274e-07
6.7395e-07
6.76069e-07
6.78306e-07
6.7892e-07
6.78612e-07
6.7831e-07
6.74305e-07
6.75665e-07
6.83033e-07
6.84762e-07
6.76185e-07
6.71849e-07
6.70563e-07
6.70297e-07
6.71111e-07
6.74893e-07
6.85926e-07
7.06545e-07
7.2195e-07
7.21677e-07
7.21412e-07
6.97387e-07
6.60365e-07
6.60139e-07
6.59927e-07
6.65223e-07
6.70258e-07
6.72516e-07
6.75533e-07
6.76223e-07
6.76022e-07
6.75824e-07
6.70178e-07
6.67537e-07
6.67345e-07
6.69814e-07
6.73602e-07
6.73421e-07
6.72462e-07
6.67921e-07
6.70965e-07
6.79099e-07
6.7896e-07
6.73997e-07
6.6401e-07
6.62767e-07
6.62616e-07
6.6247e-07
6.63605e-07
6.72029e-07
6.72204e-07
6.72062e-07
6.71918e-07
6.64067e-07
6.60516e-07
6.60391e-07
6.62097e-07
6.65168e-07
6.65953e-07
6.65836e-07
6.65226e-07
6.65195e-07
6.64829e-07
6.65426e-07
6.69154e-07
6.84254e-07
7.20644e-07
7.34496e-07
7.34419e-07
7.34285e-07
7.1253e-07
6.62859e-07
6.56111e-07
6.54532e-07
6.54439e-07
6.54348e-07
6.60855e-07
6.6187e-07
6.63426e-07
6.60317e-07
6.59377e-07
6.59308e-07
6.5924e-07
6.61569e-07
6.63742e-07
6.64609e-07
6.6682e-07
6.66818e-07
6.65911e-07
6.60513e-07
6.60785e-07
6.64358e-07
6.71902e-07
6.83751e-07
6.8459e-07
6.84541e-07
6.63361e-07
6.55855e-07
6.55806e-07
6.55759e-07
6.59745e-07
6.65458e-07
6.67632e-07
6.6466e-07
6.61275e-07
6.62943e-07
6.67517e-07
6.70801e-07
6.70764e-07
6.7073e-07
6.68111e-07
6.58972e-07
6.55978e-07
6.55073e-07
6.55043e-07
6.55744e-07
6.60669e-07
6.66353e-07
6.68389e-07
6.67576e-07
6.57046e-07
6.5702e-07
6.5714e-07
6.58079e-07
6.59107e-07
6.61074e-07
6.61385e-07
6.61365e-07
6.60967e-07
6.60198e-07
6.61541e-07
6.64551e-07
6.66346e-07
6.66332e-07
6.6367e-07
6.59981e-07
6.59676e-07
6.61191e-07
6.6439e-07
6.64376e-07
6.64364e-07
6.67185e-07
6.68479e-07
6.62965e-07
6.6375e-07
6.63363e-07
6.62594e-07
6.58392e-07
6.5575e-07
6.55743e-07
6.55734e-07
6.55741e-07
6.59718e-07
6.62447e-07
6.62347e-07
6.62343e-07
6.62428e-07
6.62423e-07
6.62417e-07
6.59114e-07
6.58826e-07
6.58822e-07
6.58818e-07
6.61878e-07
6.61875e-07
6.6091e-07
6.6528e-07
6.73024e-07
6.73024e-07
6.7302e-07
6.73021e-07
6.71369e-07
6.62998e-07
6.5495e-07
6.53404e-07
9.33492e-07
9.30877e-07
9.29932e-07
9.28114e-07
9.26438e-07
9.24788e-07
9.24149e-07
9.21979e-07
9.19841e-07
9.18432e-07
9.16027e-07
9.14858e-07
9.12617e-07
9.10696e-07
9.08792e-07
9.07688e-07
9.05433e-07
9.03925e-07
9.01882e-07
8.99322e-07
8.97724e-07
8.95677e-07
8.94809e-07
8.92854e-07
8.91447e-07
8.90117e-07
8.88332e-07
8.86627e-07
8.84679e-07
8.78778e-07
8.76982e-07
8.75351e-07
8.7325e-07
8.71525e-07
8.76024e-07
8.74463e-07
8.72867e-07
8.71128e-07
8.65274e-07
8.60644e-07
8.61659e-07
8.57292e-07
8.5572e-07
8.56576e-07
8.55485e-07
8.5378e-07
8.52109e-07
8.50365e-07
8.47888e-07
8.46371e-07
8.45072e-07
8.43406e-07
8.41837e-07
8.41284e-07
8.3965e-07
8.38006e-07
8.3639e-07
8.32859e-07
8.3132e-07
8.32091e-07
8.30562e-07
8.24352e-07
8.21193e-07
8.19658e-07
8.18137e-07
8.16592e-07
8.15117e-07
8.24289e-07
8.22733e-07
8.21188e-07
8.19679e-07
8.1821e-07
8.16707e-07
8.10892e-07
8.07413e-07
8.03833e-07
8.02964e-07
8.01546e-07
7.99626e-07
7.98195e-07
7.96919e-07
7.98387e-07
7.96982e-07
7.94719e-07
7.9248e-07
7.9106e-07
7.89811e-07
7.90133e-07
7.89181e-07
7.87838e-07
7.86517e-07
7.86037e-07
7.84711e-07
7.83397e-07
7.81536e-07
7.75498e-07
7.74238e-07
7.73004e-07
7.71783e-07
7.70547e-07
7.69298e-07
7.79095e-07
7.77851e-07
7.76599e-07
7.75343e-07
7.73225e-07
7.61132e-07
7.60377e-07
7.60321e-07
7.58837e-07
7.58342e-07
7.57226e-07
7.5608e-07
7.54932e-07
7.53802e-07
7.53223e-07
7.54759e-07
7.53636e-07
7.51355e-07
7.51445e-07
7.4874e-07
7.48503e-07
7.48624e-07
7.46447e-07
7.44958e-07
7.43905e-07
7.43887e-07
7.42891e-07
7.41613e-07
7.35366e-07
7.34407e-07
7.33439e-07
7.32465e-07
7.31504e-07
7.43264e-07
7.42286e-07
7.41332e-07
7.40401e-07
7.38946e-07
7.26507e-07
7.24706e-07
7.23827e-07
7.22945e-07
7.24982e-07
7.25939e-07
7.25058e-07
7.24989e-07
7.2512e-07
7.24292e-07
7.23468e-07
7.22653e-07
7.21845e-07
7.18133e-07
7.15983e-07
7.1519e-07
7.14405e-07
7.13629e-07
7.15437e-07
7.19243e-07
7.18488e-07
7.17719e-07
7.16964e-07
7.12608e-07
7.05347e-07
7.04677e-07
7.10185e-07
7.04718e-07
7.17625e-07
7.16894e-07
7.13969e-07
7.03753e-07
7.01609e-07
7.0184e-07
7.03392e-07
7.02492e-07
7.00204e-07
7.00021e-07
7.01446e-07
7.03637e-07
7.05125e-07
7.04511e-07
7.00261e-07
7.03324e-07
7.13289e-07
7.09501e-07
6.92407e-07
6.83349e-07
6.80285e-07
6.7975e-07
6.79752e-07
6.82344e-07
6.87146e-07
6.89003e-07
6.87337e-07
6.87652e-07
6.94005e-07
6.96533e-07
6.8797e-07
6.87149e-07
6.86658e-07
6.86191e-07
6.9976e-07
6.99293e-07
6.98821e-07
6.98353e-07
6.81655e-07
6.81202e-07
6.83345e-07
6.84381e-07
6.84058e-07
6.83654e-07
6.80535e-07
6.79503e-07
6.79118e-07
6.78744e-07
6.81196e-07
6.83202e-07
6.82838e-07
6.82477e-07
6.82121e-07
6.79219e-07
6.79036e-07
6.78106e-07
6.75154e-07
6.74273e-07
6.76889e-07
6.79537e-07
6.79221e-07
6.75735e-07
6.74574e-07
6.74272e-07
6.73979e-07
6.74413e-07
6.77352e-07
6.91256e-07
6.78747e-07
6.74833e-07
6.79872e-07
6.85535e-07
6.87087e-07
6.86824e-07
6.90138e-07
7.05968e-07
7.19311e-07
6.95704e-07
6.71374e-07
6.62064e-07
6.6038e-07
6.60155e-07
6.64382e-07
6.71439e-07
6.75092e-07
6.75931e-07
6.75723e-07
6.73656e-07
6.69719e-07
6.67929e-07
6.67731e-07
6.67537e-07
6.68564e-07
6.71725e-07
6.73602e-07
6.72072e-07
6.68055e-07
6.67881e-07
6.702e-07
6.7116e-07
6.78961e-07
6.78785e-07
6.78617e-07
6.65519e-07
6.62616e-07
6.66301e-07
6.72169e-07
6.72027e-07
6.70666e-07
6.60918e-07
6.6078e-07
6.60645e-07
6.60517e-07
6.6264e-07
6.64817e-07
6.64726e-07
6.65202e-07
6.67031e-07
6.66918e-07
6.66807e-07
6.65015e-07
6.64909e-07
6.71649e-07
6.96985e-07
7.34588e-07
7.34505e-07
7.05191e-07
6.62962e-07
6.53414e-07
6.53319e-07
6.53232e-07
6.53142e-07
6.57028e-07
6.65528e-07
6.76742e-07
6.76657e-07
6.76144e-07
6.5945e-07
6.59379e-07
6.59308e-07
6.62688e-07
6.6708e-07
6.67013e-07
6.6695e-07
6.66882e-07
6.66822e-07
6.66755e-07
6.61689e-07
6.61855e-07
6.68933e-07
6.75078e-07
6.77568e-07
6.71308e-07
6.6007e-07
6.55904e-07
6.55854e-07
6.55806e-07
6.58191e-07
6.66423e-07
6.69461e-07
6.69417e-07
6.62091e-07
6.60107e-07
6.60073e-07
6.60035e-07
6.65102e-07
6.65067e-07
6.7073e-07
6.70695e-07
6.70661e-07
6.64629e-07
6.55498e-07
6.56462e-07
6.59989e-07
6.59906e-07
6.57127e-07
6.57099e-07
6.57073e-07
6.57046e-07
6.59698e-07
6.62744e-07
6.63333e-07
6.63481e-07
6.63704e-07
6.63032e-07
6.59233e-07
6.59213e-07
6.59373e-07
6.62934e-07
6.6528e-07
6.66125e-07
6.66331e-07
6.66316e-07
6.65916e-07
6.59656e-07
6.59242e-07
6.59225e-07
6.59213e-07
6.5999e-07
6.59191e-07
6.68953e-07
6.68942e-07
6.68931e-07
6.66661e-07
6.58629e-07
6.55759e-07
6.55751e-07
6.5721e-07
6.62469e-07
6.62461e-07
6.62455e-07
6.62447e-07
6.62442e-07
6.62434e-07
6.60594e-07
6.5966e-07
6.59655e-07
6.61185e-07
6.64427e-07
6.64425e-07
6.60112e-07
6.60108e-07
6.61202e-07
6.6091e-07
6.60907e-07
6.60904e-07
6.61969e-07
6.73022e-07
6.73018e-07
6.65992e-07
6.57827e-07
6.57828e-07
6.53399e-07
9.35198e-07
9.31957e-07
9.30839e-07
9.29367e-07
9.28137e-07
9.26185e-07
9.2425e-07
9.22347e-07
9.20468e-07
9.18525e-07
9.16701e-07
9.14846e-07
9.12789e-07
9.10824e-07
9.08076e-07
9.0559e-07
9.04111e-07
9.0393e-07
9.02031e-07
9.00131e-07
8.9821e-07
8.94456e-07
8.92631e-07
8.9293e-07
8.90986e-07
8.88652e-07
8.8855e-07
8.86647e-07
8.853e-07
8.81336e-07
8.77014e-07
8.75221e-07
8.73233e-07
8.71611e-07
8.76209e-07
8.74776e-07
8.73039e-07
8.71194e-07
8.68995e-07
8.60563e-07
8.58365e-07
8.56778e-07
8.57279e-07
8.57133e-07
8.55456e-07
8.52633e-07
8.51103e-07
8.50513e-07
8.492e-07
8.46295e-07
8.44576e-07
8.4456e-07
8.42927e-07
8.41271e-07
8.39642e-07
8.3802e-07
8.33664e-07
8.32052e-07
8.3183e-07
8.30252e-07
8.2816e-07
8.25928e-07
8.21238e-07
8.19672e-07
8.18139e-07
8.16595e-07
8.15037e-07
8.22338e-07
8.22741e-07
8.21184e-07
8.13664e-07
8.08575e-07
8.07065e-07
8.07232e-07
8.07411e-07
8.04453e-07
8.02865e-07
8.01441e-07
8.01175e-07
8.01187e-07
7.99771e-07
7.98355e-07
7.96961e-07
7.95614e-07
7.94213e-07
7.92802e-07
7.91406e-07
7.87357e-07
7.85978e-07
7.8472e-07
7.87366e-07
7.86054e-07
7.82958e-07
7.80262e-07
7.78868e-07
7.76652e-07
7.78303e-07
7.7603e-07
7.71762e-07
7.70538e-07
7.70235e-07
7.79123e-07
7.77845e-07
7.7656e-07
7.69691e-07
7.63701e-07
7.63664e-07
7.62507e-07
7.61325e-07
7.58818e-07
7.57679e-07
7.56773e-07
7.58519e-07
7.57278e-07
7.54285e-07
7.53197e-07
7.5258e-07
7.54111e-07
7.52988e-07
7.51879e-07
7.50801e-07
7.49737e-07
7.48684e-07
7.47628e-07
7.45483e-07
7.44725e-07
7.41669e-07
7.37327e-07
7.36334e-07
7.35363e-07
7.34399e-07
7.3343e-07
7.32465e-07
7.31895e-07
7.43286e-07
7.42288e-07
7.41316e-07
7.40372e-07
7.30592e-07
7.26958e-07
7.26243e-07
7.26381e-07
7.24942e-07
7.24052e-07
7.23913e-07
7.25501e-07
7.24643e-07
7.22147e-07
7.21312e-07
7.2072e-07
7.22464e-07
7.21844e-07
7.21028e-07
7.1982e-07
7.15367e-07
7.15835e-07
7.18941e-07
7.20008e-07
7.19246e-07
7.18474e-07
7.17696e-07
7.08277e-07
7.06051e-07
7.05356e-07
7.04666e-07
7.03982e-07
7.03292e-07
7.17623e-07
7.16901e-07
7.10574e-07
7.05333e-07
7.04687e-07
7.04042e-07
7.03393e-07
7.01673e-07
7.00514e-07
7.00826e-07
7.02434e-07
7.04634e-07
7.04273e-07
7.05791e-07
7.19643e-07
7.56863e-07
7.56387e-07
7.02459e-07
6.83492e-07
6.80808e-07
6.80278e-07
6.79858e-07
6.84387e-07
6.91906e-07
6.94284e-07
6.93766e-07
6.90288e-07
6.87644e-07
6.89171e-07
6.88818e-07
6.87658e-07
6.8716e-07
6.86674e-07
6.86204e-07
6.99774e-07
6.99301e-07
6.98835e-07
6.976e-07
6.82745e-07
6.81271e-07
6.82621e-07
6.83767e-07
6.84058e-07
6.83257e-07
6.79896e-07
6.79505e-07
6.79122e-07
6.78809e-07
6.80911e-07
6.83202e-07
6.82348e-07
6.79456e-07
6.791e-07
6.78752e-07
6.81141e-07
6.81447e-07
6.81103e-07
6.80763e-07
6.80435e-07
6.7936e-07
6.76647e-07
6.74878e-07
6.74571e-07
6.74275e-07
6.75948e-07
6.84553e-07
6.80423e-07
6.96819e-07
6.87201e-07
6.85751e-07
6.90789e-07
6.89407e-07
6.8707e-07
6.88236e-07
6.96972e-07
6.98317e-07
6.84037e-07
6.70317e-07
6.64062e-07
6.62931e-07
6.63429e-07
6.64609e-07
6.69272e-07
6.75177e-07
6.7616e-07
6.75948e-07
6.70781e-07
6.68333e-07
6.68128e-07
6.67928e-07
6.67731e-07
6.70086e-07
6.74135e-07
6.73948e-07
6.73764e-07
6.71861e-07
6.68055e-07
6.67883e-07
6.71885e-07
6.71708e-07
6.78957e-07
6.7878e-07
6.6742e-07
6.65519e-07
6.65588e-07
6.69384e-07
6.72168e-07
6.72023e-07
6.70347e-07
6.60916e-07
6.60779e-07
6.62267e-07
6.64057e-07
6.64176e-07
6.64054e-07
6.63931e-07
6.63813e-07
6.63696e-07
6.63584e-07
6.64737e-07
6.68731e-07
6.73495e-07
6.85083e-07
7.13173e-07
7.34589e-07
7.13889e-07
6.65317e-07
6.53507e-07
6.53412e-07
6.53673e-07
6.54414e-07
6.5589e-07
6.67915e-07
6.69345e-07
6.76745e-07
6.7666e-07
6.76577e-07
6.62134e-07
6.5938e-07
6.59325e-07
6.64985e-07
6.6708e-07
6.67014e-07
6.65868e-07
6.58394e-07
6.58233e-07
6.58173e-07
6.58111e-07
6.61455e-07
6.71399e-07
6.7651e-07
6.76457e-07
6.67985e-07
6.61809e-07
6.57699e-07
6.57386e-07
6.61149e-07
6.67094e-07
6.69507e-07
6.69461e-07
6.69417e-07
6.64604e-07
6.60112e-07
6.60068e-07
6.60035e-07
6.65477e-07
6.65439e-07
6.7073e-07
6.70695e-07
6.70661e-07
6.6152e-07
6.5608e-07
6.59149e-07
6.59988e-07
6.599e-07
6.58194e-07
6.58813e-07
6.58786e-07
6.58346e-07
6.57114e-07
6.61341e-07
6.6375e-07
6.63726e-07
6.63711e-07
6.63683e-07
6.59234e-07
6.59213e-07
6.59194e-07
6.59459e-07
6.61464e-07
6.62602e-07
6.64252e-07
6.66288e-07
6.64687e-07
6.59256e-07
6.59235e-07
6.59226e-07
6.59208e-07
6.592e-07
6.59188e-07
6.68954e-07
6.68942e-07
6.68932e-07
6.68922e-07
6.59558e-07
6.58042e-07
6.5598e-07
6.54734e-07
6.54726e-07
6.54719e-07
6.55481e-07
6.5767e-07
6.58682e-07
6.58263e-07
6.58258e-07
6.60499e-07
6.6184e-07
6.61186e-07
6.63221e-07
6.64426e-07
6.64422e-07
6.64418e-07
6.64415e-07
6.64413e-07
6.6441e-07
6.64407e-07
6.68931e-07
6.7302e-07
6.70556e-07
6.56914e-07
6.52598e-07
6.49883e-07
6.47373e-07
9.33102e-07
9.34021e-07
9.31547e-07
9.30099e-07
9.28153e-07
9.24476e-07
9.22516e-07
9.21493e-07
9.20413e-07
9.17104e-07
9.16627e-07
9.14546e-07
9.11673e-07
9.09721e-07
9.07874e-07
9.05605e-07
9.05708e-07
9.03838e-07
9.02007e-07
8.99013e-07
8.96038e-07
8.94546e-07
8.94734e-07
8.92955e-07
8.90423e-07
8.8865e-07
8.88523e-07
8.8644e-07
8.85279e-07
8.81476e-07
8.76852e-07
8.75209e-07
8.73909e-07
8.71671e-07
8.76136e-07
8.74196e-07
8.72926e-07
8.67938e-07
8.65268e-07
8.63073e-07
8.58386e-07
8.56637e-07
8.56256e-07
8.55957e-07
8.53041e-07
8.51387e-07
8.52831e-07
8.51155e-07
8.49466e-07
8.47691e-07
8.46195e-07
8.44565e-07
8.42897e-07
8.40194e-07
8.38363e-07
8.36629e-07
8.33682e-07
8.32118e-07
8.31417e-07
8.30605e-07
8.30015e-07
8.27697e-07