/*--------------------------------*- C++ -*----------------------------------*\
  =========                 |
  \\      /  F ield         | OpenFOAM: The Open Source CFD Toolbox
   \\    /   O peration     | Website:  https://openfoam.org
    \\  /    A nd           | Version:  7
     \\/     M anipulation  |
\*---------------------------------------------------------------------------*/
FoamFile
{
    version     2.0;
    format      ascii;
    class       volScalarField;
    location    "5500";
    object      p;
}
// * * * * * * * * * * * * * * * * * * * * * * * * * * * * * * * * * * * * * //

dimensions      [1 -1 -2 0 0 0 0];

internalField   nonuniform List<scalar> 
160000
(
86781.9
86781.7
86781.4
86781
86780.5
86779.9
86779.1
86778.1
86776.8
86775.7
86774.7
86773.4
86772.1
86770.9
86769.6
86767.9
86766
86764.1
86762.5
86760.9
86758.8
86756.2
86753.7
86751.4
86748.7
86746.2
86744.3
86742.6
86740.5
86738.2
86735.2
86732.2
86730.1
86727.9
86724.9
86722.3
86720.4
86718.5
86716.3
86713.9
86711.7
86709.3
86707.1
86704.9
86703
86701.5
86699.8
86697.4
86695.1
86693.3
86691.4
86690.1
86688.8
86687.5
86686.4
86685.2
86684.2
86683.3
86681.9
86680.9
86680.4
86680
86679.5
86679
86678.8
86678.7
86678.8
86679
86679.4
86680.1
86680.6
86681.3
86682.3
86683.5
86685
86686.6
86688.3
86690.4
86692.4
86694.5
86696.6
86698.5
86700.7
86703.7
86706.5
86709.2
86712.4
86716.7
86721.4
86725.4
86729.8
86734
86737.4
86740.9
86745.8
86752.7
86759.5
86766
86772.8
86780.6
86788
86795.6
86802.3
86807.7
86814.5
86822.4
86831.1
86839.7
86847.3
86855
86863.1
86874.1
86884.7
86894.5
86906.7
86917.6
86928.6
86939.3
86947.8
86956
86966.5
86981
86995.4
87007.9
87019.6
87028.8
87038.3
87052.8
87069.3
87084.5
87102.1
87120.9
87132.5
87140.7
87150.5
87164.9
87179.5
87194.6
87216
87240.9
87257.2
87268.7
87283.6
87301.5
87314.1
87328.8
87347.3
87365.1
87384.8
87407.8
87430.6
87452.2
87476.6
87496
87515.9
87538.4
87558.9
87576.5
87594.8
87614.4
87634.5
87657.9
87684
87710.2
87738.8
87763.5
87781
87800.4
87823.6
87849.3
87874.3
87898.1
87929.6
87949.8
87967.9
87996.8
88025.3
88053.7
88075.1
88095.2
88126.3
88155.7
88181.8
88218.6
88251.1
88280.2
88311.5
88346.2
88383.2
88413.6
88445.1
88488.3
88535.1
88568.2
88593.5
88621.9
88650
88670.9
88697
88734.6
88771.1
88811.1
88846.9
88873.1
88895
88919.4
88958.1
89002.7
89040.4
89079.3
89118.1
89153.7
89192.2
89237.5
89275.6
89311.9
89358.4
89395.9
89428.1
89466.6
89501
89533.9
89575
89613.2
89647.4
89681
89714.4
89754
89794.2
89834.3
89897.5
89950.2
89989
90026.7
90068.8
90109
90152.5
90201.2
90253.8
90303.1
90346.6
90390.2
90423.3
90455.8
90491.3
90520
90548.4
90587.2
90635.8
90694.4
90762.7
90819.8
90877.5
90949.1
91012.3
91055
91100.2
91155.8
91206.7
91244.9
91281.1
91323.5
91369.9
91419.8
91464.2
91503.5
91545.5
91585.8
91619.9
91653.1
91702.1
91778
91844
91912.2
91969.2
92015
92052.2
92090
92147.9
92216.8
92275.7
92330.6
92380.7
92431.5
92489.3
92562.1
92626.1
92689.1
92733.6
92765.1
92798.2
92843
92895.3
92942.7
92990.1
93029.7
93068.8
93123.4
93171.6
93212.9
93264.4
93318.6
93380.9
93460.9
93544.2
93635
93720.1
93794.9
93871.1
93918.9
93962.2
94016.4
94067.9
94117.2
94184.7
94273.4
94350.1
94422
94482.9
94533.6
94590.1
94650.1
94702.5
94749.4
94807.8
94878.2
94932
94983.9
95057.1
95142
95217
95295.1
95381.3
95454.5
95523.8
95594.6
95649.3
95695.8
95737.5
95789
95889
95982.3
96058.4
96137
96197.5
96262.9
96366.6
96464.5
96563
96656.7
96742.3
96826.8
96888.7
96946.3
97020.9
97097.2
97164.4
97234.1
97321
97423.2
97521.5
97600.1
97667.5
97740.6
97811.9
97885.4
97967.7
98019
98068.2
98154.7
98272.9
98389.6
98493.6
98564.2
98641.3
98735.4
98824.3
98930.1
99040.2
99152.7
99249.3
99354.1
99453.6
99545.1
99643.7
99733.8
99816.1
99900.7
99993.7
100093
100196
100299
100390
100486
100608
100698
100793
100970
101121
101252
86782
86781.9
86781.6
86781.2
86780.7
86780
86779.1
86778.2
86777
86775.9
86774.9
86773.6
86772.1
86770.8
86769.6
86768
86766
86764.3
86762.9
86761.2
86759.1
86756.6
86754.1
86751.7
86749
86746.1
86744.2
86742.5
86740.6
86738.3
86735.6
86732.7
86730.2
86727.9
86724.9
86722.4
86720.6
86718.5
86715.9
86713.9
86712
86709.6
86707.3
86705
86703.1
86701.6
86699.9
86697.3
86695.1
86693.6
86692
86690.3
86688.8
86687.6
86686.5
86685.2
86684.2
86683.3
86682.2
86681.2
86680.5
86680.1
86679.6
86679.2
86678.9
86678.9
86679
86679.2
86679.6
86680.1
86680.6
86681.4
86682.4
86683.7
86685.2
86686.7
86688.4
86690.5
86692.5
86694.5
86696.6
86698.7
86701.2
86704.3
86707
86709.4
86712.4
86716.6
86721.2
86725.4
86729.4
86733.6
86737.4
86741.1
86746.5
86753.5
86760.1
86766.7
86773.4
86781
86788.3
86795.3
86802.7
86808.2
86813.9
86822
86830.7
86839
86847.1
86854.9
86863.2
86873.8
86884.8
86896
86907.5
86918.1
86928.8
86938.8
86948
86956.8
86966.5
86979.3
86993.5
87006.3
87018.4
87028.9
87040
87054.5
87069.5
87084.9
87103.2
87121.7
87132.1
87140.6
87151.6
87167.9
87180.5
87193
87215.9
87240.4
87257.5
87269.7
87283.6
87299.7
87313.1
87328.8
87347.7
87366.4
87387.9
87412.4
87430.7
87449.5
87476.7
87496.5
87515.1
87536.1
87556.3
87575.1
87595.4
87615.9
87636.6
87658
87681.4
87709.7
87740.2
87765
87782.9
87801.7
87823
87844.6
87870.2
87897.2
87930.2
87950.2
87970.9
87999.3
88023.6
88049.8
88074.3
88097.2
88127.3
88158.2
88188.9
88224.4
88252.4
88278.5
88309.2
88344.4
88380.7
88410.1
88441
88486.7
88537.6
88571
88597.7
88623.6
88647.8
88670.4
88696.7
88735
88773.5
88811.6
88846.5
88873.6
88894.7
88917.6
88956.3
89001.3
89039.2
89078.4
89117.8
89156
89191.9
89233.5
89276.1
89313
89352.3
89391.9
89428.2
89467.1
89503.8
89542
89579.9
89615.2
89648.9
89681.9
89715.7
89754.9
89794.7
89836.8
89896.2
89951.4
89989.7
90024.2
90065.4
90107.8
90153.5
90202
90254.6
90303.8
90349
90394.6
90424
90452.2
90487.8
90517.2
90543.5
90580
90639.1
90706.1
90774.3
90833
90882.5
90940.1
91004.5
91051.3
91099.9
91149.4
91194.9
91240.3
91286.1
91332
91377.1
91424
91463.8
91500.7
91544.4
91585.2
91617.7
91654.3
91714.3
91779.3
91840.6
91912.2
91969.2
92015.2
92050.1
92086.9
92149.3
92217
92276.4
92330.2
92381.1
92433.5
92490.1
92554.9
92619.3
92684.7
92735
92772.2
92808.1
92848
92891.8
92936
92984.7
93028.2
93069.8
93122.9
93171.3
93211.4
93259.6
93318.2
93387.3
93474.7
93556.1
93639.1
93717.7
93790
93861.3
93913.8
93962.4
94017.2
94066.8
94117.2
94181
94265.9
94352.9
94427
94484.1
94533.9
94587
94645
94698.3
94745
94802.4
94882
94940.6
94993
95062.4
95152.9
95221.3
95288.6
95379.6
95450
95514.2
95589
95643.7
95689.8
95740.7
95808.6
95899.3
95984
96055.8
96126.9
96196.1
96266.8
96352.8
96453.1
96560.8
96659.9
96747.5
96831.1
96892.7
96948.1
97019.4
97101.1
97168.3
97234.4
97317.9
97423.1
97521.2
97598.1
97664.3
97734
97803.2
97881.2
97960.5
98019.1
98082.6
98172.1
98266.5
98368.3
98471.5
98560
98645.6
98741.7
98843.1
98944.1
99050.7
99156.5
99248.6
99356.8
99444.1
99521.7
99631.8
99731.6
99817
99906.9
99999.9
100090
100192
100298
100386
100482
100598
100691
100793
100952
101107
101253
86782.3
86782.2
86781.9
86781.5
86781
86780.3
86779.4
86778.5
86777.4
86776.2
86775.1
86773.8
86772.2
86770.8
86769.6
86768.1
86766.4
86764.8
86763.2
86761.4
86759.5
86757.3
86754.9
86752.1
86749.5
86746.7
86744.4
86742.5
86740.7
86738.6
86735.6
86732.8
86730.3
86728.1
86725.6
86723
86720.9
86718.6
86715.9
86714
86712.1
86710
86707.7
86705.3
86703.5
86702
86699.8
86697.3
86695.3
86693.9
86692.6
86691
86689.2
86687.8
86686.6
86685.3
86684.3
86683.4
86682.5
86681.7
86680.8
86680.3
86679.9
86679.5
86679.2
86679.2
86679.3
86679.5
86679.9
86680.3
86680.9
86681.7
86682.7
86684
86685.5
86686.9
86688.7
86690.7
86692.5
86694.6
86696.8
86698.9
86701.5
86704.6
86707.5
86710.1
86713.1
86716.5
86720.6
86725.1
86729.1
86733.2
86737.5
86741.9
86747.6
86754.4
86761.1
86768
86774.7
86781.6
86788.7
86795.5
86802.3
86808.5
86814.3
86821.1
86829.6
86838.8
86847.6
86855.5
86864.4
86874.6
86884.7
86896.8
86908
86918.6
86929.2
86938.4
86947.1
86956.9
86967.9
86980.5
86993
87005.3
87017.4
87028.7
87041.1
87055.1
87069.9
87086.5
87104.3
87118.9
87130.6
87141.5
87153.4
87168.5
87182
87195.9
87215.9
87239.2
87257.4
87270.3
87283.8
87300.1
87313.8
87328.5
87347.6
87368.2
87390.7
87412.7
87431.1
87451.7
87477.9
87496.3
87513
87534
87554.7
87573.3
87594.7
87616.2
87637.7
87658.9
87681.2
87708.7
87739.4
87765.9
87786.1
87806
87824.9
87843.3
87866.4
87893.6
87921.3
87948.2
87977.4
88003.2
88024.6
88047.9
88073.9
88098.5
88126
88161.8
88196.7
88225.8
88251.6
88277.3
88306.7
88339.4
88373.2
88406.2
88443.3
88493.5
88537.4
88572.5
88602.2
88626.1
88648.6
88672.3
88699.2
88736.5
88777.2
88811.5
88840.5
88866.9
88893.7
88923.3
88965.5
89002.5
89035.3
89081
89121.3
89153.7
89188.5
89232.8
89275.4
89312
89349
89389.3
89432.6
89472.3
89506
89541.7
89578.9
89613.8
89649.3
89683.7
89720.1
89759.6
89795.2
89836.3
89893.3
89947.7
89992.3
90032.2
90068.4
90104.6
90150.5
90203.4
90259.4
90304.5
90347.5
90393.7
90423.3
90450
90482
90512.8
90540.2
90573.9
90644.2
90719.8
90787.6
90842.1
90891.1
90943.5
90996
91046.2
91094.8
91141.1
91186.7
91239.3
91292.1
91336
91380
91425.2
91467
91504.7
91541.7
91578.4
91615.3
91662.3
91719.6
91781.3
91846.1
91913.2
91965.6
92012.1
92048.5
92086.1
92149.2
92213.9
92276.1
92329.9
92379.6
92437.9
92499.3
92557.3
92615.3
92680.6
92733.6
92778.3
92815.3
92850
92890.7
92933.2
92977.8
93021.1
93066.3
93122.7
93168.8
93210.2
93266.5
93337.6
93420.1
93494.1
93563.3
93632.9
93705.8
93784.2
93853.9
93906.8
93960
94013.5
94061.2
94116.1
94188.8
94275.8
94353.3
94423.1
94479.8
94531.4
94582
94632.6
94686.3
94743.1
94813.8
94886.5
94947
95005.6
95075.6
95164.5
95230.4
95291
95373
95445.6
95507.8
95580.7
95635.4
95683.1
95742.3
95817
95903.4
95993.1
96060.8
96119.5
96189.8
96268.7
96348.8
96440.8
96557.1
96668
96751.1
96831.6
96892.5
96948.8
97029.2
97110.7
97174.5
97235.3
97308.1
97413.4
97516.9
97596.1
97659.9
97721.4
97786.5
97872.9
97960.2
98028
98108.2
98188.2
98262.9
98347.5
98443.9
98545.1
98642.2
98740.4
98849.2
98965.8
99073.3
99159.3
99246.1
99357.5
99440
99509.6
99607.6
99727.2
99822.3
99905.4
99991.7
100082
100188
100293
100383
100482
100586
100684
100802
100943
101086
101245
86782.6
86782.5
86782.3
86781.9
86781.4
86780.8
86779.8
86778.9
86777.9
86776.7
86775.5
86774
86772.5
86771.2
86769.9
86768.4
86766.7
86765.1
86763.5
86761.8
86759.8
86757.8
86755.5
86752.4
86750.2
86747.7
86744.9
86743
86741.1
86738.8
86735.9
86732.9
86730.3
86728.2
86726.1
86723.6
86721.2
86718.7
86716.1
86714.3
86712.6
86710.7
86708.3
86705.9
86703.9
86702
86699.9
86697.7
86695.9
86694.4
86693
86691.7
86689.9
86688.3
86687.1
86685.8
86684.6
86683.6
86682.7
86681.9
86681.2
86680.7
86680.3
86679.9
86679.7
86679.7
86679.8
86680
86680.3
86680.8
86681.4
86682.3
86683.3
86684.5
86685.7
86687
86688.8
86690.7
86692.7
86695.1
86697.1
86699.3
86702
86705.4
86708.2
86710.7
86713.7
86716.9
86720.8
86724.9
86729.1
86733.6
86737.9
86742.9
86749.1
86755
86761
86769.1
86776.5
86782.5
86788.8
86795.7
86802.3
86808.6
86814.7
86821.3
86828.9
86838.4
86847.6
86856
86866.3
86876.3
86885.6
86896.5
86907.7
86919.3
86930.5
86939
86947
86957.5
86969.3
86981.5
86993.4
87006.2
87017
87027.6
87040.3
87054.5
87070.4
87086.6
87103.6
87117.5
87129.9
87142.6
87154.8
87169
87183.2
87197.9
87215.7
87235.8
87254.3
87270.9
87286.6
87301.8
87316
87329.8
87347
87369.9
87393.7
87412.7
87430.8
87451.7
87474.3
87495.6
87514.7
87535.9
87554.9
87573.2
87596.2
87616.5
87635.8
87657.4
87679.8
87706.6
87740.1
87768.5
87789.4
87808.5
87826
87842.8
87864.3
87894
87921.2
87947.1
87975.1
88002.4
88026.1
88051.1
88078
88101.2
88125.3
88159.2
88197.3
88224.4
88248.4
88272.5
88300.3
88333.3
88369.6
88412.9
88460.4
88500.6
88533.7
88569
88604
88630.6
88652.9
88675.3
88702.5
88738.1
88779.3
88812.5
88838.5
88862.9
88891.9
88926.8
88969.7
89005.5
89039.5
89087.4
89120.8
89149.8
89185.7
89230.7
89273.8
89312.3
89349.2
89389.9
89433.9
89471.4
89505.5
89540.8
89575.5
89611.1
89650.3
89686.7
89723.4
89763.2
89800.6
89844.2
89891
89939.2
89995.5
90036.6
90071.8
90110
90152.3
90198.5
90250.5
90297
90342.1
90391.6
90422.1
90449.4
90479.6
90509.6
90539.7
90578.4
90658.5
90734.3
90798.3
90849
90899.9
90944.8
90988.6
91043.2
91091.2
91133.5
91180.4
91236.5
91292
91336.7
91378.8
91423.2
91470.1
91511.4
91546.8
91579.1
91618.4
91663.3
91708.6
91772.3
91849.3
91911.2
91962.6
92007.4
92046.7
92089.2
92145.2
92211
92279.3
92335.6
92390
92443.8
92498.9
92557.3
92615.7
92679.9
92728.3
92773.6
92819.4
92852.7
92887.3
92925.9
92967.1
93013.7
93065.2
93123
93176
93234.6
93301.1
93369.5
93428.7
93488.8
93559.9
93632.7
93706.1
93781.8
93846.8
93902.1
93961.4
94010.7
94056.7
94116
94190.1
94269.5
94346.9
94424.2
94474.8
94519.9
94571.4
94624.4
94684.1
94753.9
94832.7
94895.7
94955.6
95012
95071.8
95164.7
95241.7
95305.7
95375.7
95445.8
95505.1
95567.8
95625.3
95673.8
95739.4
95823.7
95906.2
95990.9
96065.9
96122.4
96184.1
96269.6
96359.9
96450.4
96552.2
96659.3
96740.2
96820.1
96892.2
96956.9
97039
97115.5
97182.8
97245.4
97311.1
97395.3
97493.2
97584.3
97657.3
97721.1
97780.1
97858.6
97955.7
98035.1
98117.1
98187.6
98254.3
98333.8
98426.3
98532.9
98647.3
98750.8
98857.8
98990.2
99090.3
99163.1
99242.6
99356.3
99435.6
99500.8
99591.2
99717.7
99820.7
99899.3
99982.9
100072
100165
100275
100378
100479
100584
100685
100798
100931
101083
101247
86782.9
86782.8
86782.6
86782.4
86781.9
86781.3
86780.4
86779.5
86778.5
86777.2
86775.9
86774.2
86772.9
86771.8
86770.5
86768.9
86767
86765.3
86763.7
86762.3
86760.7
86758.6
86756.2
86753.1
86750.7
86748.1
86745.4
86743.5
86741.5
86739.3
86736.9
86733.8
86730.8
86728.6
86726.6
86724.1
86721.3
86718.9
86716.8
86715
86713.1
86711.2
86709.1
86706.5
86704.2
86702.3
86700.1
86698
86696.5
86695.2
86693.7
86692.2
86690.6
86689
86687.6
86686.4
86685.2
86684.2
86683.3
86682.4
86681.7
86681.2
86680.9
86680.6
86680.3
86680.3
86680.4
86680.6
86680.9
86681.3
86682
86682.9
86683.8
86684.9
86686.1
86687.4
86689
86691.1
86693.3
86695.4
86697.4
86699.9
86702.8
86706
86708.8
86711.4
86714.3
86717.6
86721.1
86725.1
86729.7
86734.6
86738.8
86743.6
86749.9
86755.7
86761.6
86769.3
86777
86783.4
86789.4
86796
86802.8
86808.7
86815
86821.9
86829.4
86839
86847.8
86856.1
86866.8
86878.3
86887.7
86896.3
86905.9
86919.3
86932.4
86940.6
86948.3
86958.9
86970.5
86982
86994.1
87005.9
87015.8
87026.6
87040.5
87055
87070.4
87086.1
87103.2
87116.7
87129.4
87143.8
87156.7
87169.3
87183.9
87200
87215.8
87233.5
87252.4
87271.1
87287.2
87302.3
87317.7
87332.5
87350.2
87371.7
87392.9
87413
87433.5
87453.5
87473.1
87493.3
87513.9
87535.1
87555.5
87576.1
87599.1
87617.4
87634.6
87655.3
87678.2
87704.8
87739.3
87769.2
87789.7
87808.4
87827.1
87844.7
87867.1
87895.9
87921.2
87947.7
87974.9
88003
88030.2
88056.2
88082.2
88104.5
88127.1
88154.5
88185.7
88215
88241.2
88266.6
88295.6
88334.7
88382.6
88429
88468.2
88503.5
88532.2
88564.7
88606.3
88634.5
88655.8
88678.7
88706.5
88740.9
88780.9
88812.7
88838.5
88862.5
88890.8
88928.5
88971.9
89009.8
89047.4
89087.3
89116.8
89146.2
89187.8
89231.5
89278.2
89315.8
89347.6
89385.5
89426.8
89466
89505.5
89542.8
89575.9
89610.6
89651.8
89690.8
89728
89765.9
89804.8
89852.2
89895.8
89940
89995.2
90036.1
90072.7
90113
90155.4
90200.5
90249.7
90290.8
90331.5
90378.3
90416.2
90448
90478.5
90509.7
90545.1
90592.6
90676.4
90744
90800.4
90851
90897.9
90943.9
90988.5
91037.8
91090.1
91134.1
91179.9
91231.4
91283.2
91334.8
91378.6
91423.1
91473.6
91516.5
91548.7
91578.5
91616.8
91662.9
91712.5
91789.1
91858.8
91904.9
91951.5
91999.4
92041.6
92092
92150
92217.4
92282.9
92336.7
92391.8
92450.3
92506.7
92558.9
92609.6
92665
92721.7
92772.2
92814.8
92848.3
92881
92918.8
92963.3
93012.4
93067.3
93137.4
93206.8
93266.4
93320.2
93374.1
93426.5
93485.4
93554
93629.8
93718.1
93783.7
93841.6
93901.9
93962.5
94007.1
94050.6
94115.7
94194.6
94271.9
94342.2
94412.9
94467.7
94512.3
94563.2
94623.1
94691.3
94772.2
94845.9
94899
94954.7
95009.8
95064.9
95153.7
95248.2
95316.1
95373.4
95435.2
95503.9
95564.5
95619.5
95675.4
95750.8
95832.7
95905.6
95983.3
96059.7
96122.3
96192.6
96290
96381.3
96466.2
96555.9
96651.6
96728.4
96799.3
96878.8
96957.2
97043.1
97116.2
97184.4
97250.8
97318.5
97394.5
97480.7
97572.6
97654.1
97721
97778.4
97849.8
97945.7
98037.7
98114.8
98183
98249.5
98323.5
98410.2
98515.4
98658.9
98775.2
98869.1
98984.5
99092.6
99167.7
99243.4
99339.7
99427.1
99497.8
99592.5
99723.5
99821.1
99891.7
99968.2
100061
100154
100257
100358
100467
100592
100686
100776
100896
101064
101246
86783.5
86783.4
86783.2
86783
86782.6
86782.2
86781.5
86780.5
86779.3
86777.9
86776.6
86775
86773.6
86772.4
86771.1
86769.6
86767.9
86765.9
86764
86762.5
86761.1
86759.4
86757.2
86754.1
86751.5
86749.2
86746.6
86744.2
86741.7
86739.8
86737.7
86734.7
86731.7
86729.1
86726.9
86724.7
86722
86719.6
86717.5
86715.7
86713.8
86711.9
86709.7
86707.1
86705
86703
86700.8
86698.6
86697
86695.7
86694.5
86692.8
86691.2
86689.8
86688.3
86687
86685.9
86684.9
86684
86683.2
86682.5
86681.9
86681.6
86681.3
86681
86680.9
86681.1
86681.2
86681.5
86681.9
86682.6
86683.4
86684.2
86685.3
86686.7
86687.9
86689.4
86691.5
86693.7
86696
86698.2
86700.7
86703.7
86706.7
86709.4
86712.1
86715.3
86718.3
86721.5
86725.6
86730.9
86735.8
86739.7
86744.2
86750.5
86756.8
86763.1
86769.6
86776.4
86783.8
86790.6
86797
86802.9
86808.5
86815
86822.6
86831.5
86841.1
86848.6
86856
86866.5
86878.8
86888.9
86897.3
86906.6
86919.9
86933.4
86942.6
86950.6
86959.8
86971.6
86982.6
86994.7
87005.4
87014.7
87027.9
87041.5
87054.6
87069.7
87085.8
87102.3
87116.2
87129.8
87146.1
87158.8
87169.5
87182.2
87198
87215.2
87233.9
87253.1
87272.6
87288.1
87302.6
87319.2
87336.4
87353.6
87372.4
87393
87414.9
87434.7
87453.7
87472
87490.2
87511.7
87535.6
87560.3
87580.7
87600.5
87617.1
87632.7
87653.3
87680.1
87706.5
87734.3
87765.2
87789.4
87809.3
87828.6
87847.7
87870.9
87900
87923.3
87945.9
87974.1
88006.7
88034.7
88061.1
88086.1
88106.3
88127.3
88154.6
88181.2
88204.4
88228
88257.6
88297.4
88344.5
88402.9
88438.6
88470.8
88505.5
88532.8
88561.1
88601.8
88633.8
88656.5
88680.4
88708.9
88742.6
88782.2
88814.8
88840.5
88865
88894.8
88928.7
88967.6
89009
89046.2
89082.8
89115.9
89151.2
89192.7
89233.4
89280.6
89318
89346.9
89378.5
89418.7
89465.2
89507.4
89546.2
89580.2
89613.1
89650.4
89689.8
89730.4
89768.2
89806.1
89852.2
89905.5
89954.9
89994.6
90033.1
90074.5
90116.1
90156.2
90196.9
90239.8
90282.2
90326.8
90372.7
90410.8
90445.2
90478.9
90517.7
90556.3
90603.3
90686.3
90749.6
90800.2
90848.2
90894.1
90941.4
90987.7
91035.5
91087.3
91135.8
91187.3
91229.5
91272.6
91329.6
91379.3
91425.7
91472.5
91511.4
91546
91580.9
91621.3
91666.9
91723.9
91797.2
91861.6
91902.3
91943
91995.3
92042.9
92099.2
92155.6
92220.5
92283.2
92336.8
92391.1
92446.1
92504.5
92561.1
92615.9
92666.2
92715.6
92765.6
92804.6
92835.7
92868.6
92910.2
92965
93023.9
93087.9
93158.4
93229.9
93276.8
93325
93379.3
93430.1
93488.6
93558.3
93633.4
93722.9
93777.1
93828.4
93894.3
93956.4
94004.7
94052.2
94119.6
94199.7
94274
94342.1
94405.4
94460.8
94510.9
94564.3
94628.7
94708.6
94786.1
94847.1
94896.2
94948.8
95006.7
95065.1
95145.5
95246.9
95315
95371.5
95435.2
95501.4
95556
95611.7
95682.1
95764.4
95833.2
95899.2
95985.6
96066.5
96128.7
96198.7
96300
96400.7
96483.5
96555.8
96632.7
96719.7
96795.1
96867
96950.9
97037.4
97109.9
97183.4
97254.5
97325.4
97399.7
97479.3
97561.3
97647.8
97717.7
97774.5
97844.3
97940.6
98037.5
98112.2
98178.6
98246.3
98325.2
98409.6
98505.2
98647.5
98780.1
98874
98971.1
99083.2
99167.5
99245.6
99332
99425.6
99504.2
99592.9
99719.2
99812.5
99883.5
99962.5
100053
100143
100243
100348
100468
100599
100678
100754
100861
101030
101237
86784.5
86784.3
86783.9
86783.7
86783.3
86782.9
86782.3
86781.5
86780.4
86779
86777.4
86775.9
86774.6
86773.3
86771.9
86770.3
86768.7
86766.8
86764.6
86762.9
86761.6
86760
86757.6
86754.6
86752.1
86750
86747.9
86745.4
86742.8
86740.5
86738.4
86735.6
86732.6
86729.9
86727.3
86725.1
86722.8
86720.5
86718.4
86716.3
86714.4
86712.6
86710.5
86708
86706
86704
86701.8
86699.7
86697.9
86696.4
86695.1
86693.5
86691.9
86690.5
86689.1
86687.7
86686.7
86685.7
86684.8
86684.1
86683.3
86682.7
86682.4
86682.2
86681.9
86681.7
86681.8
86681.9
86682.1
86682.5
86683.2
86683.9
86684.7
86685.9
86687.2
86688.6
86690.2
86692.2
86694.4
86696.8
86699.1
86701.7
86704.8
86707.3
86709.8
86712.8
86716.1
86719.1
86722.4
86726.7
86731.9
86736.8
86740.8
86745.5
86751.8
86758.7
86764.6
86770
86776.1
86784.2
86791.2
86797.4
86802.9
86808.6
86816
86823.5
86832.6
86842.9
86849.7
86856.8
86868.5
86880.2
86889.9
86898.5
86908.5
86921.6
86934.2
86942.9
86951.4
86960.6
86970.6
86982.9
86996
87005.6
87014.9
87029.7
87043.5
87055.6
87068.8
87084.2
87102.2
87118.2
87132.7
87147.6
87158.7
87169.5
87181.4
87195.1
87215.3
87235.3
87254.2
87272.7
87289.6
87304.5
87319.9
87337.4
87355.8
87376
87396.8
87419
87434.9
87451.7
87471
87487.1
87508.9
87536.3
87563.5
87583.3
87601.8
87617.5
87632.1
87652.7
87683.5
87708.6
87733.9
87764.6
87792
87811.5
87829.2
87849.6
87871.9
87897.7
87923.4
87946.6
87974.7
88008.5
88037.1
88064
88089.4
88109.8
88130.6
88155.6
88178.5
88197.6
88218
88252.9
88306.5
88354.8
88404
88440.6
88476.3
88510.5
88534.9
88559.5
88594.8
88629.3
88655.7
88681.4
88709.1
88744.5
88786.1
88818.9
88845
88870.1
88898.2
88925.6
88958.8
89006.5
89042.8
89076.6
89116.9
89159.2
89196.6
89234.9
89281.1
89319.7
89349.1
89379
89417.1
89466.2
89506.8
89544.8
89582.4
89616.7
89650
89686.4
89728.5
89769.2
89811
89856.2
89912.2
89957.6
89995.2
90037
90078.8
90118
90155
90192
90231.8
90275
90321.8
90368.6
90408.8
90443.6
90478.4
90518.7
90567.8
90626.6
90693.3
90749.5
90798.9
90848
90896.4
90945.2
90988.2
91034.2
91083.4
91129.8
91178.2
91223.3
91271.3
91332.5
91381.2
91421.7
91465.9
91507.5
91547.4
91587.4
91625.3
91670.1
91728
91797.6
91859.9
91901.6
91943.6
91998.1
92047.9
92099.4
92153.9
92217.5
92284.3
92340.9
92393.5
92445.2
92503.3
92557.4
92613.6
92666.9
92715
92764.2
92799.4
92825.3
92854.8
92904.4
92975.6
93047.2
93110.3
93172.3
93232.2
93275.3
93322.8
93385.7
93439.6
93497.5
93563.5
93633.1
93710.3
93763.7
93811.9
93881.5
93955.3
94013.3
94068.2
94130.4
94199.6
94267.9
94337.4
94403.1
94458.8
94515.1
94568.9
94627.8
94710.5
94787.7
94847.3
94897.8
94947.6
95002.3
95069.7
95151.3
95232.1
95304.6
95369.5
95436.3
95498.3
95548.8
95603.3
95686.6
95772.4
95833.7
95894.9
95981.8
96069.2
96137.3
96211
96307.7
96411.2
96491.7
96556.2
96621.7
96699.8
96788.3
96870.1
96954.4
97033.6
97101.3
97174.9
97257.2
97334.4
97405
97476
97550.6
97637
97713.6
97776.5
97849.8
97938.6
98019.3
98094
98172.4
98247.9
98327.4
98410.1
98501.8
98628.9
98781.5
98889.4
98978.1
99068.3
99159.6
99253.2
99345.1
99433.6
99511.6
99596.3
99704.5
99794.4
99866.5
99945.8
100039
100134
100232
100338
100464
100577
100662
100747
100865
101040
101239
86785.5
86785.3
86784.9
86784.5
86784.1
86783.6
86783
86782.2
86781.3
86780.1
86778.8
86777.1
86775.7
86774.4
86772.9
86771.1
86769.6
86768
86766
86763.8
86762.1
86760.5
86758.2
86755.7
86752.9
86750.5
86748.7
86746.6
86743.9
86741.4
86739.1
86736.2
86733.2
86730.9
86728.6
86726.1
86723.6
86721.1
86719.2
86717.3
86715.2
86713.1
86711
86708.8
86706.8
86704.9
86702.8
86700.8
86699.1
86697.5
86695.8
86694.2
86692.8
86691.4
86689.9
86688.6
86687.4
86686.4
86685.6
86684.9
86684.3
86683.7
86683.3
86683
86682.8
86682.5
86682.5
86682.7
86683
86683.4
86684
86684.7
86685.5
86686.8
86688.2
86689.5
86691.1
86693.2
86695.6
86697.9
86700.1
86702.8
86705.5
86707.9
86710.7
86714
86717.2
86720.1
86723.4
86727.8
86733.1
86737.9
86742.3
86747.4
86753.3
86759.1
86765.4
86771.3
86777.1
86783.7
86790.9
86797.5
86803.2
86809.6
86817.4
86825
86834.3
86843.7
86851.1
86859.9
86870.9
86880.4
86890.8
86900.4
86911
86923
86933.3
86942.3
86952.1
86961.6
86971.5
86984.1
86996.7
87005.5
87014.5
87029.9
87045.9
87058.5
87070.1
87084.1
87103.5
87120.8
87134
87145.9
87157.4
87169.5
87181.5
87195.6
87218.2
87237.1
87253.1
87270.9
87290.9
87306
87320.7
87340
87361.5
87379.4
87397.8
87418.1
87435.6
87455.9
87472
87486.3
87507.3
87534.1
87560.7
87582.8
87603.1
87618.9
87634.4
87657.6
87686.5
87708.8
87732.6
87765.6
87796.5
87813.6
87828.1
87847.9
87874.4
87897.2
87918.8
87945.4
87978.9
88011.4
88039
88065.7
88093.4
88115.4
88135.2
88155.2
88174.3
88193.7
88216.4
88256.4
88318.8
88361.7
88400.5
88437.3
88474.7
88511.8
88536.5
88560.5
88592
88625.3
88655.9
88683.4
88710.5
88747
88787.9
88820.8
88848
88874
88900.7
88925
88953.2
88996.8
89037.5
89076.8
89122.2
89160.9
89198.6
89238.9
89282.3
89319.3
89350
89382.4
89419.9
89465.3
89509.6
89547.4
89581.8
89614.4
89649.5
89692.9
89731.4
89768.8
89812.5
89857.1
89907.9
89954.4
89994.2
90037.6
90079.1
90115.7
90151.7
90188.1
90229.6
90276.3
90320.3
90366
90411.9
90449.2
90486.1
90527.8
90580.2
90633.9
90688
90748.4
90802.4
90848.2
90897.1
90944.9
90986
91036
91083.7
91122.3
91167.1
91215.4
91268.4
91331.9
91382.4
91420.9
91461.9
91507.5
91551.1
91590.4
91626.9
91673.8
91730.6
91792.8
91850.2
91897.1
91946.8
92002.3
92053.9
92106.8
92156
92214.5
92285
92345
92397.4
92450.3
92508.9
92554.7
92602.2
92657.1
92709
92761.5
92796.3
92822
92850.2
92902.4
92990.9
93067.7
93121.7
93178.1
93229.2
93272.6
93325.2
93387.2
93447.6
93509
93569
93629.9
93692.3
93749
93804.1
93873.5
93957.3
94021.2
94075.6
94128.2
94188.5
94266.5
94337.5
94402.2
94458.9
94515.4
94572.4
94630.9
94707.1
94785.3
94842.8
94895.3
94945.9
95000.6
95080
95169.2
95233.1
95294.1
95367.9
95432.1
95491
95543.2
95599.7
95688.3
95773.1
95838.9
95907.5
95988.3
96076.7
96145.4
96218.3
96314.8
96414.1
96486
96549.1
96619.6
96692.5
96774.5
96872.9
96959.2
97027.9
97092.8
97166.5
97248.2
97331.5
97413.9
97480.6
97543
97616.6
97698.6
97778.2
97861
97945
98013.7
98079.9
98160.1
98242.3
98325.2
98409.3
98505.2
98629.1
98768.9
98889.8
98978.1
99062.1
99162.3
99266.2
99352.1
99430.3
99518.2
99607.3
99685.2
99766.7
99849.6
99936.5
100033
100128
100226
100336
100466
100556
100631
100729
100872
101052
101238
86786.6
86786.3
86785.8
86785.3
86784.9
86784.4
86783.8
86783
86782
86780.9
86779.7
86778.4
86777.1
86775.7
86774.2
86772.2
86770.7
86769.1
86767.1
86765
86763.3
86761.6
86759.3
86756.8
86754.2
86751.7
86749.5
86747.4
86744.9
86742.5
86740
86737.2
86734.3
86731.8
86729.7
86727.2
86724.6
86721.8
86719.9
86718.5
86716.6
86714.2
86711.9
86709.8
86707.8
86705.9
86704
86701.9
86700.3
86698.8
86696.9
86694.9
86693.7
86692.5
86690.9
86689.5
86688.3
86687.2
86686.4
86685.8
86685.2
86684.6
86684.2
86683.9
86683.8
86683.5
86683.4
86683.5
86683.8
86684.3
86685
86685.7
86686.8
86688.1
86689.4
86690.6
86692.3
86694.6
86696.9
86699
86701.1
86703.7
86706.4
86709
86711.9
86715.3
86718.5
86721.3
86724.7
86729
86734.2
86739
86743.7
86749.1
86754.8
86760.4
86766.7
86772.7
86778.2
86784.6
86791.9
86798
86803.7
86811
86818.2
86825.8
86835.2
86844.3
86853.4
86865.1
86873.5
86881.7
86891.5
86900.6
86911.5
86923.3
86933.2
86942.7
86953.3
86962.5
86972.3
86984.7
86996.2
87006.1
87016.7
87029.5
87045
87059.5
87073.4
87089.6
87105.1
87119.6
87133.2
87145.9
87158.1
87169.6
87182.1
87199.5
87220.1
87237.5
87252.3
87268.8
87290.4
87308.1
87325.6
87344.9
87362.8
87380.9
87401.3
87419.2
87436
87457.1
87473.6
87489.6
87508.8
87530.4
87556.7
87580.5
87603.1
87620.7
87638.5
87661
87683.4
87706.3
87733.8
87767.1
87797.6
87816.7
87832.5
87849.1
87870.6
87895.5
87919
87948
87982.5
88011.2
88038.3
88068.1
88100.2
88117.2
88133.8
88153
88171.8
88194.1
88224
88272.1
88325.1
88363.2
88402.1
88438.7
88472.1
88506.8
88534.2
88561.1
88591.8
88622.7
88655.2
88684.7
88712.5
88746.9
88788.7
88822.1
88849.1
88876.4
88903.5
88928.3
88955.4
88992.7
89035.1
89077.7
89120
89156.3
89194.9
89239.9
89284.9
89318.5
89350.5
89384.6
89422.5
89469.2
89512
89545.6
89578.7
89617.5
89655.4
89695.8
89733.3
89770.3
89812.8
89857.6
89902.9
89947.1
89994.7
90042.8
90080.9
90114.2
90148.9
90183.3
90222.5
90274.9
90322.6
90371.5
90418.7
90456.2
90493.4
90533.2
90580.8
90637.2
90692
90747.1
90800.3
90843.8
90890.4
90944.3
90986.8
91038.8
91086.4
91121.5
91158.8
91204
91258
91321.1
91375
91422.8
91476.2
91511.7
91546.7
91590.2
91633.7
91690.5
91736.4
91782.4
91836.2
91887
91947
92004.5
92058.9
92109.6
92157.4
92218.4
92287.4
92349.5
92398.6
92446.5
92498.7
92550.2
92601.4
92655.1
92705.8
92749.5
92790.3
92826.5
92864
92922.2
93000.5
93065.5
93117.5
93172.5
93231.6
93282.3
93334.1
93386.4
93441
93505.4
93572.4
93634.4
93686.7
93738
93799
93868.9
93952.4
94020.6
94079.8
94130.1
94184.8
94258.5
94325.5
94393.5
94459.3
94516.1
94573.6
94634.4
94701.8
94776.8
94839.1
94896
94952.5
95009.7
95079.2
95167.1
95233.9
95292
95362
95424.4
95478.1
95535.9
95608.3
95699.7
95785.3
95863.8
95931.7
95999
96082.5
96148.4
96216.5
96309.2
96405.7
96480.9
96548.1
96616.8
96683.4
96754.6
96848.8
96956.2
97030
97095.5
97170.1
97242.5
97324
97417.8
97485.3
97545.4
97608.6
97679.4
97769.4
97857.2
97940.7
98015.3
98084.6
98152.9
98225.1
98308.9
98407.4
98527.9
98655.1
98763.2
98870.8
98973.4
99065.2
99161.6
99251.3
99338.6
99423.9
99518.7
99614.8
99681.1
99747
99834.5
99924.9
100023
100124
100223
100328
100446
100540
100620
100718
100852
101012
101213
86787.8
86787.6
86786.8
86786.2
86785.8
86785.3
86784.7
86783.9
86783
86781.9
86780.7
86779.4
86778.2
86776.8
86775.3
86773.6
86772
86770.4
86768.3
86766.1
86764.3
86762.9
86760.9
86758.1
86755.6
86753.3
86750.8
86748.6
86746.3
86743.9
86741.2
86738.6
86735.9
86732.9
86730.4
86728.1
86726
86723.3
86720.7
86719.2
86717.6
86715.3
86713.1
86711.1
86709.3
86707.4
86705.5
86703.6
86701.8
86700.2
86698.2
86696
86694.7
86693.5
86692
86690.6
86689.3
86688.2
86687.3
86686.6
86686.1
86685.6
86685.2
86684.9
86684.8
86684.6
86684.5
86684.5
86684.9
86685.5
86686.2
86687
86688.2
86689.5
86690.7
86692.1
86693.9
86696
86697.9
86699.9
86702.3
86705.1
86707.5
86710
86713.1
86716.6
86719.7
86722.7
86726.1
86730.5
86735.3
86739.9
86745.1
86750.8
86757
86762.6
86768.3
86773.8
86779.1
86785.4
86792.8
86798.7
86804.5
86812.5
86819.5
86826.8
86835.8
86844.9
86855.1
86866.2
86875.1
86884.6
86892.6
86900.3
86911.4
86923.8
86934.2
86943.3
86953.4
86963.7
86974.7
86986.2
86996.6
87006.8
87018
87030.3
87045.1
87060.7
87075.9
87091.1
87105.1
87119.6
87133.8
87147.2
87159.6
87170.8
87184.4
87203.2
87218.6
87233.3
87251.8
87273.2
87295.2
87311.6
87328
87345.7
87363.1
87383.2
87405.2
87420.4
87435.7
87458.1
87475.8
87493.8
87510.2
87527.5
87555.3
87580.2
87602.4
87620.2
87638.5
87662.7
87685.1
87707.4