/*--------------------------------*- C++ -*----------------------------------*\
  =========                 |
  \\      /  F ield         | OpenFOAM: The Open Source CFD Toolbox
   \\    /   O peration     | Website:  https://openfoam.org
    \\  /    A nd           | Version:  7
     \\/     M anipulation  |
\*---------------------------------------------------------------------------*/
FoamFile
{
    version     2.0;
    format      ascii;
    class       surfaceScalarField;
    location    "5500";
    object      phi;
}
// * * * * * * * * * * * * * * * * * * * * * * * * * * * * * * * * * * * * * //

dimensions      [0 3 -1 0 0 0 0];

internalField   nonuniform List<scalar> 
319200
(
1.66932e-17
-1.70795e-17
3.09397e-17
-1.5481e-17
4.9928e-17
-2.10613e-17
7.01877e-17
-2.34228e-17
8.93191e-17
-2.36787e-17
9.79568e-17
-1.33782e-17
1.07391e-16
-1.49709e-17
1.23463e-16
-2.1177e-17
1.49824e-16
-3.31459e-17
1.73067e-16
-3.22537e-17
1.89583e-16
-2.6228e-17
2.06212e-16
-2.66279e-17
2.02106e-16
-8.13947e-18
1.68822e-16
2.0244e-17
1.51461e-16
6.14744e-18
1.52256e-16
-1.32446e-17
1.48285e-16
-7.91186e-18
1.79609e-16
-4.39689e-17
2.28075e-16
-6.40748e-17
2.66862e-16
-5.49507e-17
2.92584e-16
-4.23694e-17
3.23324e-16
-4.93213e-17
3.72204e-16
-6.90446e-17
4.16962e-16
-6.62177e-17
4.33439e-16
-3.73725e-17
4.02124e-16
5.88108e-18
3.54514e-16
2.07131e-17
3.29477e-16
-4.46239e-19
3.18473e-16
-1.64612e-17
3.18415e-16
-2.52169e-17
3.45327e-16
-5.07339e-17
3.87404e-16
-6.73185e-17
3.98484e-16
-4.10308e-17
3.84245e-16
-1.30465e-17
3.72037e-16
-1.49549e-17
3.70357e-16
-3.11274e-17
3.90668e-16
-5.47751e-17
3.59811e-16
-6.85761e-18
2.87954e-16
4.16418e-17
2.69736e-16
-1.35941e-17
2.85694e-16
-4.80004e-17
2.99496e-16
-4.64835e-17
2.98617e-16
-3.86715e-17
2.81168e-16
-1.91052e-17
2.73686e-16
-3.48685e-17
2.67355e-16
-3.67758e-17
2.50788e-16
-1.92151e-17
2.26989e-16
-8.36062e-18
2.02383e-16
-1.25997e-17
2.23118e-16
-5.49276e-17
2.70452e-16
-9.12252e-17
2.87101e-16
-7.05443e-17
2.48083e-16
-1.16144e-17
2.27021e-16
-2.75794e-17
2.0096e-16
-2.92105e-17
1.61794e-16
-6.74207e-18
1.21014e-16
-8.88512e-18
9.16346e-17
-1.01015e-17
8.6415e-17
-3.54422e-17
9.10979e-17
-5.02727e-17
7.40013e-17
-4.16477e-17
4.83685e-17
-2.0657e-17
2.88617e-17
-2.67237e-17
8.80849e-18
-2.43452e-17
-7.17264e-18
-2.70951e-17
-2.63064e-17
-3.70815e-17
-4.69777e-17
-3.20439e-17
-5.90771e-17
-4.33118e-17
-6.33148e-17
-3.80709e-17
-8.90505e-17
-1.60093e-17
-1.36026e-16
-2.02751e-17
-1.67269e-16
-2.31853e-17
-2.07537e-16
-2.64877e-17
-2.33066e-16
-3.31882e-17
-2.54917e-16
-3.83282e-17
-2.80076e-16
-2.97083e-17
-3.12736e-16
-2.53131e-17
-3.43643e-16
-2.32935e-17
-3.82854e-16
-2.25165e-17
-4.28823e-16
-1.04469e-17
-4.86689e-16
-5.76492e-18
-5.03549e-16
-5.01729e-17
-4.77113e-16
-8.62398e-17
-4.32017e-16
-1.0445e-16
-3.84853e-16
-1.08042e-16
-3.94726e-16
-4.98059e-17
-4.3426e-16
-2.03222e-17
-4.92564e-16
3.32403e-18
-5.70661e-16
1.7293e-17
-6.21759e-16
-1.59994e-17
-7.20562e-16
4.2829e-17
-8.58e-16
6.55078e-17
-9.21167e-16
-1.16831e-17
-9.33726e-16
-5.99795e-17
-8.97258e-16
-1.04042e-16
-8.45016e-16
-1.11707e-16
-8.17597e-16
-9.48716e-17
-7.65286e-16
-1.11965e-16
-7.41249e-16
-8.43554e-17
-7.45709e-16
-5.096e-17
-7.59525e-16
-4.90591e-17
-8.32708e-16
1.92793e-17
-8.22566e-16
-8.1581e-17
-7.72293e-16
-1.13765e-16
-8.91602e-16
5.90379e-17
-1.00282e-15
3.90602e-17
-1.09294e-15
3.03554e-17
-1.26385e-15
9.8531e-17
-1.36706e-15
2.76777e-17
-1.43525e-15
-4.26588e-18
-1.47509e-15
-3.20625e-17
-1.54793e-15
1.4004e-17
-1.58698e-15
-3.40779e-17
-1.47148e-15
-1.7942e-16
-1.41873e-15
-1.1753e-16
-1.39807e-15
-8.99088e-17
-1.42025e-15
-4.26051e-17
-1.55922e-15
6.66305e-17
-1.5825e-15
-5.69807e-17
-1.48145e-15
-1.69147e-16
-1.52843e-15
-1.7722e-17
-1.74675e-15
1.55812e-16
-2.05229e-15
2.34802e-16
-2.35297e-15
2.27104e-16
-2.61782e-15
1.87814e-16
-2.65831e-15
-4.26393e-17
-2.43469e-15
-2.99878e-16
-2.29414e-15
-2.05325e-16
-2.32065e-15
-4.19931e-17
-2.32683e-15
-6.28097e-17
-2.2556e-15
-1.35422e-16
-2.21528e-15
-1.05351e-16
-2.40633e-15
1.14751e-16
-2.51339e-15
2.03458e-17
-2.37731e-15
-2.14254e-16
-2.0232e-15
-4.29028e-16
-1.85785e-15
-2.32445e-16
-2.1101e-15
1.80879e-16
-2.16763e-15
-7.48308e-18
-2.26355e-15
3.55914e-17
-2.27029e-15
-6.8552e-17
-2.11117e-15
-2.37847e-16
-2.15934e-15
-8.71124e-18
-2.52745e-15
2.9269e-16
-2.80244e-15
1.89638e-16
-2.87372e-15
-3.83269e-18
-2.87757e-15
-7.23281e-17
-2.76378e-15
-1.88835e-16
-2.45999e-15
-3.72219e-16
-2.07194e-15
-4.49612e-16
-2.10941e-15
-2.52711e-17
-2.42502e-15
2.45539e-16
-2.46486e-15
-2.37701e-17
-2.4488e-15
-9.21011e-17
-2.58974e-15
7.98185e-17
-3.00267e-15
3.39367e-16
-3.44694e-15
3.70298e-16
-3.80215e-15
2.76103e-16
-3.77594e-15
-9.88913e-17
-3.52758e-15
-3.22368e-16
-3.27666e-15
-3.19112e-16
-3.30868e-15
-3.87174e-17
-3.67007e-15
2.95904e-16
-3.80526e-15
6.12521e-17
-3.70627e-15
-1.57687e-16
-3.47359e-15
-3.08356e-16
-3.1067e-15
-4.4165e-16
-2.98791e-15
-1.88043e-16
-3.13549e-15
7.37569e-17
-3.71932e-15
5.15513e-16
-4.39523e-15
5.94669e-16
-4.58202e-15
1.16007e-16
-4.5685e-15
-7.25719e-17
-4.50918e-15
-1.29839e-16
-4.13703e-15
-4.34725e-16
-3.80817e-15
-3.90387e-16
-4.11684e-15
2.42906e-16
-4.71271e-15
5.30883e-16
-4.96227e-15
1.76293e-16
-4.68473e-15
-3.48111e-16
-4.6273e-15
-1.10087e-16
-4.23644e-15
-4.58136e-16
-3.528e-15
-7.64257e-16
-3.02017e-15
-5.63096e-16
-2.87792e-15
-1.99773e-16
-3.14269e-15
2.06098e-16
-3.4888e-15
2.85204e-16
-3.74191e-15
1.93117e-16
-4.14557e-15
3.40159e-16
-5.01794e-15
7.98226e-16
-5.73914e-15
6.51049e-16
-5.95884e-15
1.58482e-16
-5.68618e-15
-3.33303e-16
-5.12913e-15
-6.20666e-16
-4.25777e-15
-9.37439e-16
-4.01356e-15
-3.00488e-16
-4.55205e-15
4.64004e-16
-4.75752e-15
1.24062e-16
-4.82832e-15
1.87348e-17
-4.79877e-15
-7.78881e-17
-4.50902e-15
-3.33126e-16
-4.48381e-15
-6.36857e-17
-4.57798e-15
5.18106e-17
-4.50668e-15
-1.24685e-16
-4.65723e-15
8.95722e-17
-5.0608e-15
3.34883e-16
-5.28834e-15
1.6303e-16
-5.52362e-15
1.84051e-16
-5.73189e-15
1.60189e-16
-5.90083e-15
1.21636e-16
-5.98626e-15
3.75909e-17
-5.68971e-15
-3.43771e-16
-5.76588e-15
2.98847e-17
-6.29975e-15
4.86529e-16
-6.25993e-15
-8.94858e-17
-6.13464e-15
-1.74479e-16
-6.93495e-15
7.51094e-16
-7.76219e-15
7.71703e-16
-7.79693e-15
-2.25058e-17
-7.78369e-15
-7.19904e-17
-7.2677e-15
-5.7155e-16
-6.20766e-15
-1.10748e-15
-5.45528e-15
-7.88987e-16
-5.15821e-15
-3.37083e-16
-4.89934e-15
-3.01786e-16
-4.79373e-15
-1.52257e-16
-4.60888e-15
-2.37156e-16
-4.5571e-15
-9.47962e-17
-4.52732e-15
-8.18614e-17
-4.3277e-15
-2.44763e-16
-4.46702e-15
1.04138e-16
-4.35853e-15
-1.52322e-16
-4.26761e-15
-1.32806e-16
-4.65716e-15
3.42388e-16
-5.049e-15
3.4549e-16
-5.2396e-15
1.42924e-16
-5.18189e-15
-9.88639e-17
-5.13525e-15
-8.81047e-17
-5.10477e-15
-6.58091e-17
-5.0688e-15
-7.5265e-17
-4.85724e-15
-2.47793e-16
-4.34432e-15
-5.49822e-16
-4.23146e-15
-1.54098e-16
-4.85315e-15
5.79865e-16
-5.52782e-15
6.25624e-16
-6.37453e-15
7.93478e-16
-7.74222e-15
1.30846e-15
-8.96229e-15
1.16461e-15
-8.48299e-15
-5.27154e-16
-7.22055e-15
-1.29374e-15
-5.92176e-15
-1.3277e-15
-4.30984e-15
-1.6374e-15
-3.75559e-15
-5.76789e-16
-4.36047e-15
5.80196e-16
-5.16793e-15
7.77685e-16
-5.78069e-15
5.78045e-16
-5.84169e-15
2.69631e-17
-6.817e-15
9.42376e-16
-8.76577e-15
1.9097e-15
-9.85562e-15
1.04489e-15
-8.97685e-15
-9.25004e-16
-7.53839e-15
-1.47589e-15
-6.46567e-15
-1.10249e-15
-5.88834e-15
-6.04955e-16
-5.99578e-15
7.64901e-17
-6.47768e-15
4.45692e-16
-6.6659e-15
1.52925e-16
-6.83183e-15
1.37062e-16
-7.43501e-15
5.68219e-16
-7.25651e-15
-2.2266e-16
-6.28197e-15
-1.00322e-15
-6.14325e-15
-1.63188e-16
-6.50016e-15
3.30703e-16
-6.53482e-15
9.92409e-18
-6.55357e-15
-4.05677e-18
-6.55527e-15
-2.40045e-17
-7.09299e-15
5.07368e-16
-7.64565e-15
5.15337e-16
-7.5539e-15
-1.21592e-16
-7.55717e-15
-2.40045e-17
-7.49615e-15
-8.57933e-17
-7.58907e-15
6.55614e-17
-7.5617e-15
-5.58775e-17
-7.26758e-15
-3.24063e-16
-7.20712e-15
-8.95416e-17
-7.95511e-15
7.25139e-16
-8.85685e-15
8.78012e-16
-9.36572e-15
4.8796e-16
-9.09225e-15
-2.9661e-16
-7.41094e-15
-1.70559e-15
-5.66577e-15
-1.76829e-15
-5.0945e-15
-5.90018e-16
-5.63684e-15
5.20401e-16
-6.62513e-15
9.65802e-16
-7.44406e-15
7.97634e-16
-7.80704e-15
3.41507e-16
-7.61477e-15
-2.14337e-16
-7.71417e-15
7.83234e-17
-7.8576e-15
1.13691e-16
-8.27218e-15
3.85662e-16
-9.13823e-15
8.30633e-16
-9.20933e-15
3.22466e-17
-8.55348e-15
-6.72364e-16
-7.3908e-15
-1.17778e-15
-6.45693e-15
-9.47243e-16
-6.17107e-15
-2.97666e-16
-6.37745e-15
1.95655e-16
-6.86182e-15
4.72234e-16
-7.84941e-15
9.73508e-16
-8.92069e-15
1.05471e-15
-8.921e-15
-1.72579e-17
-8.81955e-15
-1.18232e-16
-9.05979e-15
2.23433e-16
-9.09568e-15
1.69258e-17
-9.54066e-15
4.26021e-16
-1.03405e-14
7.82072e-16
-1.00431e-14
-3.14124e-16
-9.44037e-15
-6.16255e-16
-9.24783e-15
-2.04271e-16
-9.21355e-15
-4.79963e-17
-9.74269e-15
5.15279e-16
-1.07614e-14
1.00402e-15
-1.18861e-14
1.10937e-15
-1.32957e-14
1.38973e-15
-1.41565e-14
8.38257e-16
-1.34478e-14
-7.30714e-16
-1.12258e-14
-2.23965e-15
-9.39448e-15
-1.84481e-15
-8.86187e-15
-5.44266e-16
-7.49645e-15
-1.37627e-15
-6.9222e-15
-5.8435e-16
-7.58983e-15
6.57604e-16
-7.76438e-15
1.6469e-16
-8.47347e-15
6.99618e-16
-9.6204e-15
1.13735e-15
-1.04293e-14
7.99043e-16
-1.16959e-14
1.25623e-15
-1.31763e-14
1.46936e-15
-1.23469e-14
-8.41957e-16
-9.84845e-15
-2.50885e-15
-8.83445e-15
-1.022e-15
-8.6284e-15
-2.13868e-16
-8.9921e-15
3.55452e-16
-1.02799e-14
1.27872e-15
-1.05556e-14
2.65105e-16
-1.01029e-14
-4.62377e-16
-1.15213e-14
1.4085e-15
-1.28699e-14
1.33841e-15
-1.31252e-14
2.47059e-16
-1.27219e-14
-4.10963e-16
-1.21042e-14
-6.24603e-16
-1.15548e-14
-5.55505e-16
-1.07159e-14
-8.45837e-16
-1.0438e-14
-2.84781e-16
-1.06483e-14
2.03008e-16
-1.01305e-14
-5.24885e-16
-9.56428e-15
-5.72538e-16
-9.55778e-15
-1.26635e-17
-9.87011e-15
3.06405e-16
-9.90933e-15
3.39828e-17
-9.96567e-15
5.14264e-17
-1.02964e-14
3.25394e-16
-1.08423e-14
5.40253e-16
-1.18097e-14
9.62073e-16
-1.35515e-14
1.73572e-15
-1.42273e-14
6.69588e-16
-1.5593e-14
1.36003e-15
-1.56024e-14
2.89475e-18
-1.33295e-14
-2.27921e-15
-1.15202e-14
-1.81407e-15
-1.21317e-14
6.07251e-16
-1.43841e-14
2.24811e-15
-1.72842e-14
2.89582e-15
-1.82869e-14
9.97884e-16
-1.77229e-14
-5.67976e-16
-1.66009e-14
-1.12644e-15
-1.39445e-14
-2.66012e-15
-1.19095e-14
-2.03899e-15
-1.08458e-14
-1.06728e-15
-1.0414e-14
-4.35492e-16
-1.05368e-14
1.18965e-16
-1.03096e-14
-2.30545e-16
-1.19408e-14
1.62776e-15
-1.50368e-14
3.09221e-15
-1.66001e-14
1.55951e-15
-1.70258e-14
4.21968e-16
-1.69004e-14
-1.29234e-16
-1.59242e-14
-9.79805e-16
-1.49704e-14
-9.57181e-16
-1.55354e-14
5.61467e-16
-1.6029e-14
4.89871e-16
-1.61372e-14
1.04585e-16
-1.68537e-14
7.12485e-16
-1.74214e-14
5.64088e-16
-1.88213e-14
1.39626e-15
-2.06273e-14
1.80159e-15
-2.06305e-14
-1.14748e-19
-2.23933e-14
1.76034e-15
-2.45448e-14
2.14838e-15
-1.69315e-16
1.75245e-17
-3.51359e-17
2.43587e-17
-2.34659e-17
3.79637e-17
-3.66164e-17
4.75961e-17
-3.58705e-17
6.94472e-17
-4.91849e-17
9.61762e-17
-4.49198e-17
1.18668e-16
-4.37487e-17
1.39042e-16
-4.81283e-17
1.48372e-16
-4.98036e-17
1.60092e-16
-5.22497e-17
1.74925e-16
-5.05099e-17
1.79901e-16
-4.11117e-17
1.89466e-16
-2.87453e-17
2.0678e-16
-9.42377e-18
2.13672e-16
-1.50849e-17
2.13018e-16
-2.4707e-17
2.7512e-16
-8.26232e-17
3.3051e-16
-1.17584e-16
3.18388e-16
-7.08557e-17
2.9716e-16
-5.2117e-17
2.94178e-16
-5.64365e-17
3.29699e-16
-1.03914e-16
3.40919e-16
-9.99264e-17
3.10967e-16
-5.65255e-17
3.20702e-16
-6.47762e-17
3.91017e-16
-8.75386e-17
4.33561e-16
-5.09292e-17
4.13237e-16
-9.31752e-18
4.10249e-16
-4.01649e-17
4.11448e-16
-5.3579e-17
3.58051e-16
-2.38434e-17
2.95012e-16
-2.94561e-17
2.58141e-16
-3.04697e-17
2.61659e-16
-4.15792e-17
3.01372e-16
-7.87918e-17
3.29918e-16
-9.32105e-17
3.04334e-16
-6.55344e-17
2.98421e-16
-2.48428e-17
3.25635e-16
-2.04627e-17
3.04873e-16
-2.89091e-17
2.67449e-16
-4.28754e-17
2.66296e-16
-7.58766e-17
2.6718e-16
-7.62628e-17
2.68643e-16
-5.52438e-17
2.99638e-16
-1.08369e-16
2.93504e-16
-7.74072e-17
2.4678e-16
-1.40335e-17
2.20324e-16
-1.6661e-17
2.19479e-16
-4.8668e-17
2.17358e-16
-9.38912e-17
1.97215e-16
-1.10375e-16
1.88832e-16
-1.08268e-16
2.02321e-16
-6.58966e-17
1.78627e-16
-5.4276e-17
1.43037e-16
-3.03401e-17
1.24483e-16
-3.55616e-17
1.01443e-16
-3.24957e-17
8.28973e-17
-3.3831e-17
7.34872e-17
-7.22212e-17
5.35648e-17
-7.75867e-17
2.6957e-17
-6.3839e-17
1.35171e-17
-5.59855e-17
3.83321e-19
-5.78447e-17
-1.5697e-17
-5.31033e-17
-3.64869e-17
-5.6836e-17
-5.35472e-17
-6.91143e-17
-7.59174e-17
-5.69687e-17
-1.12072e-16
-6.65464e-17
-1.48462e-16
-6.14299e-17
-1.67683e-16
-6.0229e-17
-1.84663e-16
-6.56497e-17
-1.8612e-16
-7.91842e-17
-1.97174e-16
-6.71236e-17
-2.22654e-16
-6.39199e-17
-2.52571e-16
-6.05091e-17
-2.83805e-16
-5.50557e-17
-3.03704e-16
-5.78403e-17
-3.33714e-16
-4.77816e-17
-3.96273e-16
-1.81011e-17
-4.33347e-16
-4.00849e-17
-4.26735e-16
-7.20769e-17
-4.63777e-16
-7.26774e-17
-5.41165e-16
-7.00016e-17
-6.42675e-16
-6.52979e-17
-6.76744e-16
-1.47106e-16
-6.19797e-16
-1.78618e-16
-5.61271e-16
-1.36212e-16
-6.06048e-16
-1.22998e-17
-6.91308e-16
3.96402e-17
-7.9417e-16
1.86332e-17
-8.56678e-16
3.40529e-17
-8.99292e-16
4.00309e-17
-9.36068e-16
-5.08248e-17
-9.13271e-16
-1.53478e-16
-9.52293e-16
-1.27285e-16
-9.94743e-16
-1.38386e-16
-1.01166e-15
-1.40594e-16
-9.90063e-16
-1.98911e-16
-9.35216e-16
-2.02843e-16
-9.54854e-16
-8.9595e-17
-9.86755e-16
-8.39468e-17
-9.76274e-16
-5.39426e-17
-1.15356e-15
3.18837e-17
-1.25748e-15
-9.30726e-17
-1.17634e-15
-9.12682e-17
-1.28256e-15
7.99461e-17
-1.4525e-15
1.28927e-16
-1.43468e-15
8.60099e-18
-1.36489e-15
-1.09562e-16
-1.31565e-15
-1.22407e-16
-1.23859e-15
-1.74998e-16
-1.16952e-15
-1.15957e-16
-1.25272e-15
-1.74987e-17
-1.40334e-15
-9.57101e-17
-1.50729e-15
-8.42143e-17
-1.57937e-15
-9.02061e-17
-1.6088e-15
-8.63229e-17
-1.66537e-15
4.69467e-17
-1.90971e-15
1.12445e-16
-2.11119e-15
-4.41784e-17
-1.98274e-15
-2.20749e-16
-1.74469e-15
-1.48176e-16
-1.61757e-15
4.22541e-17
-1.52716e-15
7.11795e-17
-1.49115e-15
8.62666e-17
-1.60908e-15
7.70002e-18
-1.81587e-15
-1.59518e-16
-1.988e-15
-9.66332e-17
-2.01322e-15
-8.45256e-17
-1.94799e-15
-1.92223e-16
-2.00113e-15
-1.43198e-16
-2.56189e-15
3.94397e-16
-2.93242e-15
4.00819e-16
-2.78597e-15
-2.1383e-16
-2.74581e-15
-3.3072e-16
-3.14667e-15
-9.63273e-17
-3.00865e-15
-4.55317e-16
-2.47754e-15
-4.19224e-16
-2.52523e-15
-2.31966e-17
-2.67509e-15
1.16723e-16
-2.80701e-15
-1.25217e-17
-2.94092e-15
-1.83726e-16
-2.97366e-15
-5.2795e-17
-2.67383e-15
-8.67199e-17
-2.3986e-15
-1.61018e-16
-2.47226e-15
4.96356e-18
-2.6037e-15
-1.09301e-17
-2.60869e-15
-2.50282e-16
-2.71091e-15
-3.33681e-16
-3.16197e-15
-6.24392e-17
-3.17084e-15
-9.70865e-17
-2.74108e-15
-2.46886e-16
-2.67341e-15
-1.57433e-16
-2.85101e-15
1.30659e-17
-3.17599e-15
3.31535e-16
-3.1813e-15
2.66182e-16
-3.10202e-15
2.19965e-16
-3.16465e-15
2.62007e-16
-3.38327e-15
5.18605e-17
-3.71293e-15
-6.85202e-17
-3.9331e-15
-1.73106e-16
-3.87861e-15
-1.70288e-16
-3.65869e-15
7.77795e-18
-3.76104e-15
9.82841e-17
-4.05258e-15
6.56991e-17
-4.26169e-15
-1.74885e-16
-4.04834e-15
-7.34618e-16
-3.58985e-15
-7.19628e-16
-3.20284e-15
-3.90283e-16
-2.93376e-15
1.76765e-16
-2.82893e-15
4.26319e-16
-3.16759e-15
3.9673e-16
-4.10935e-15
8.10807e-16
-4.67747e-15
3.63206e-16
-4.51523e-15
-6.62808e-16
-4.24517e-15
-7.25599e-16
-3.85831e-15
-2.09169e-16
-3.62628e-15
2.37528e-16
-3.53956e-15
2.56358e-17
-3.764e-15
-1.8393e-16
-4.03599e-15
1.03622e-16
-4.12116e-15
-4.34694e-16
-4.01219e-15
-9.28536e-16
-4.40717e-15
-2.26178e-16
-4.81615e-15
1.35913e-16
-4.90322e-15
2.24071e-16
-5.12151e-15
4.29801e-16
-5.91084e-15
9.08133e-16
-7.22171e-15
1.56195e-15
-7.48786e-15
9.60845e-16
-6.58257e-15
-3.25529e-16
-5.81583e-15
-6.54877e-16
-6.19885e-15
9.26069e-19
-6.56184e-15
-3.21725e-16
-6.57808e-15
-9.99437e-16
-6.23588e-15
-7.29705e-16
-5.69913e-15
-1.70581e-16
-5.22974e-15
-4.37723e-16
-4.87901e-15
-3.81848e-16
-4.80464e-15
-1.9868e-16
-4.66415e-15
-5.15739e-16
-4.75532e-15
-1.8329e-17
-5.75371e-15
9.95561e-16
-7.33681e-15
1.39388e-15
-7.57088e-15
2.53984e-16
-6.28659e-15
-1.01355e-15
-5.37018e-15
-8.09904e-16
-5.02244e-15
-2.16248e-16
-5.30433e-15
3.92866e-16
-4.93139e-15
-2.99333e-16
-4.56545e-15
-3.75041e-16
-5.25594e-15
2.99544e-16
-5.71724e-15
4.42198e-16
-5.33377e-15
5.38918e-17
-5.55281e-15
8.12252e-17
-5.91754e-15
1.41403e-16
-5.60926e-15
3.9315e-16
-5.17728e-15
2.91552e-16
-4.75227e-15
-4.95231e-16
-4.25283e-15
-6.17125e-16
-4.52932e-15
-3.37746e-16
-5.70511e-15
2.77741e-17
-6.70279e-15
1.66982e-16
-7.32897e-15
2.44914e-16
-7.58225e-15
-9.66784e-17
-7.39615e-15
-3.89241e-16
-6.87907e-15
-8.06853e-16
-6.27054e-15
-7.51133e-16
-6.31326e-15
-9.11869e-17
-6.65961e-15
5.13123e-17
-6.87731e-15
2.75003e-16
-7.51259e-15
4.39576e-16
-7.17706e-15
-5.18109e-16
-5.66726e-15
-1.21518e-15
-4.88515e-15
-4.74405e-16
-5.18149e-15
3.97591e-16
-5.59386e-15
2.72779e-16
-5.56787e-15
-1.5486e-16
-5.22603e-15
-4.43658e-16
-5.22702e-15
-1.11433e-16
-5.73248e-15
2.21527e-16
-6.49631e-15
1.72523e-16
-6.99292e-15
2.92058e-16
-7.01318e-15
5.48322e-16
-7.82923e-15
1.39078e-15
-8.45395e-15
1.35325e-15
-8.27161e-15
1.05698e-15
-7.90358e-15
7.47281e-16
-7.94085e-15
-5.25048e-16
-7.85304e-15
-1.41358e-15
-7.85752e-15
-1.35214e-15
-8.18831e-15
-1.33408e-15
-7.51154e-15
-1.28529e-15
-6.60244e-15
-3.60985e-16
-6.87655e-15
1.0192e-15
-7.112e-15
7.78163e-16
-7.71921e-15
5.97384e-16
-8.21183e-15
1.39632e-15
-7.49394e-15
1.15145e-15
-6.62035e-15
1.30324e-16
-6.84617e-15
-7.35909e-16
-7.65859e-15
-6.94498e-16
-8.32835e-15
-4.63964e-16
-8.72758e-15
-2.3895e-16
-7.95175e-15
-7.35928e-16
-6.68275e-15
-8.59848e-16
-6.97383e-15
4.13874e-16
-8.20236e-15
1.33202e-15
-8.14154e-15
4.65324e-16
-7.44619e-15
-9.50474e-16
-7.9859e-15
-4.90477e-16
-7.88483e-15
-2.90262e-16
-6.96688e-15
-6.13692e-16
-6.8684e-15
-1.1196e-16
-7.54876e-15
6.51407e-16
-8.14645e-15
5.44731e-16
-8.18945e-15
5.1646e-16
-7.83917e-15
1.29534e-16
-8.01237e-15
2.04392e-17
-8.5551e-15
4.90395e-16
-8.7156e-15
4.60774e-17
-8.74568e-15
6.59512e-17
-9.05018e-15
2.19769e-16
-8.79927e-15
-6.01169e-16
-7.89287e-15
-1.02106e-15
-6.89315e-15
-2.97084e-16
-6.47591e-15
4.40677e-16
-6.46081e-15
4.5386e-16
-7.02631e-15
2.48733e-16
-7.51496e-15
-1.23841e-15
-7.42554e-15
-1.87922e-15
-7.64988e-15
-3.87885e-16
-7.44779e-15
2.96362e-16
-7.23559e-15
7.31843e-16
-8.01158e-15
1.55259e-15
-9.95182e-15
2.25432e-15
-1.1095e-14
8.99427e-16
-1.10956e-14
4.98324e-17
-1.18998e-14
8.85217e-16
-1.19118e-14
3.55286e-16
-1.01081e-14
-1.01927e-15
-7.97329e-15
-2.13055e-15
-6.2967e-15
-2.3638e-15
-5.71594e-15
-1.77143e-15
-5.84007e-15
-8.34603e-16
-6.7577e-15
6.06835e-16
-7.85697e-15
1.28021e-15
-7.98947e-15
5.89057e-16
-7.94062e-15
9.0847e-16
-8.18666e-15
1.28366e-15
-8.54709e-15
3.25628e-16
-9.30092e-15
6.1807e-16
-1.0097e-14
1.00116e-15
-1.02815e-14
1.83658e-16
-9.0757e-15
-7.9602e-16
-7.46589e-15
-8.42861e-16
-7.77121e-15
-2.18023e-17
-8.94142e-15
5.41828e-16
-9.98609e-15
8.26251e-16
-1.05837e-14
5.34012e-16
-1.12428e-14
1.15857e-15
-1.2994e-14
2.73869e-15
-1.48061e-14
2.90136e-15
-1.39324e-14
4.95566e-16
-1.18448e-14
-1.26424e-15
-1.19587e-14
-6.29966e-16
-1.30748e-14
-1.13541e-15
-1.25446e-14
-2.38668e-15
-1.16614e-14
-1.43863e-15
-1.15085e-14
-1.5399e-15
-1.01939e-14
-1.91051e-15
-9.27232e-15
-2.75484e-16
-9.74258e-15
6.24002e-16
-9.79976e-15
7.4636e-16
-9.4176e-15
7.44968e-16
-9.62896e-15
1.00052e-15
-1.01632e-14
1.78015e-15
-1.00962e-14
1.39164e-15
-1.07165e-14
-2.3167e-16
-1.21189e-14
-1.11536e-15
-1.2685e-14
-4.64685e-16
-1.15673e-14
-1.34087e-15
-1.02584e-14
-9.62251e-16
-1.02133e-14
1.22355e-15
-1.08761e-14
9.17715e-16
-1.10903e-14
-2.58592e-16
-1.01923e-14
5.00634e-16
-9.96214e-15
1.1006e-15
-1.00091e-14
2.86815e-16
-9.65716e-15
-7.6964e-16
-9.89684e-15
-3.90963e-16
-1.04268e-14
-3.1655e-17
-1.13707e-14
9.13385e-17
-1.156e-14
-1.02604e-16
-1.03019e-14
-1.06207e-15
-9.44319e-15
-1.38999e-15
-8.99476e-15
-1.02713e-15
-8.91826e-15
-9.53091e-17
-9.4882e-15
8.7088e-16
-1.0271e-14
8.11627e-16
-1.07442e-14
5.195e-16
-1.07928e-14
3.68451e-16
-1.11425e-14
8.84224e-16
-1.23394e-14
2.15314e-15
-1.34673e-14
2.85807e-15
-1.3691e-14
8.87847e-16
-1.24171e-14
8.08873e-17
-1.08384e-14
-1.58091e-15
-1.02039e-14
-2.91814e-15
-9.70043e-15
-2.32146e-15
-9.6687e-15
5.71504e-16
-1.01633e-14
2.73888e-15
-1.07219e-14
3.45049e-15
-1.17881e-14
2.06e-15
-1.28608e-14
5.00509e-16
-1.41725e-14
1.81404e-16
-1.61214e-14
-7.15199e-16
-1.5315e-14
-2.84959e-15
-1.36507e-14
-2.73512e-15
-1.37048e-14
-3.85079e-16
-1.39662e-14
3.76434e-16
-1.41627e-14
-3.7032e-17
-1.34444e-14
9.05551e-16
-1.21181e-14
1.76246e-15
-1.2906e-14
2.34444e-15
-1.30957e-14
6.07944e-16
-1.24585e-14
-7.69721e-16
-1.37036e-14
2.61876e-16
-1.60326e-14
1.36822e-15
-1.69621e-14
1.48692e-15
-1.70826e-14
6.07004e-16
-1.81084e-14
1.12656e-15
-1.80598e-14
6.59938e-16
-1.75899e-14
9.05785e-17
-1.83331e-14
2.13573e-15
-1.8065e-14
1.52929e-15
-1.71854e-14
-8.82655e-16
-1.65516e-14
1.12355e-15
-1.66313e-14
2.22571e-15
8.0489e-16
5.96753e-18
-4.14681e-17
2.11692e-17
-3.96999e-17
4.10539e-17
-5.85759e-17
6.16789e-17
-5.89239e-17
8.28862e-17
-7.44197e-17
1.03655e-16
-6.98137e-17
1.25794e-16
-7.16067e-17
1.57011e-16
-8.62853e-17
1.82086e-16
-8.15781e-17
2.25804e-16
-1.04912e-16
2.44102e-16
-7.96104e-17
2.21892e-16
-2.961e-17
2.27411e-16
-4.50517e-17
2.84614e-16
-7.98284e-17
3.42412e-16
-8.83989e-17
3.6001e-16
-5.63236e-17
3.44816e-16
-8.34794e-17
2.86683e-16
-7.52232e-17
2.66991e-16
-6.69505e-17
2.81117e-16
-8.50409e-17
2.71408e-16
-6.48491e-17
2.64998e-16
-1.15677e-16
2.30648e-16
-8.27608e-17
2.11825e-16
-5.54085e-17
2.47307e-16
-1.19265e-16
2.59247e-16
-1.20595e-16
2.78715e-16
-9.30889e-17
3.53123e-16
-1.08494e-16
3.77472e-16
-9.26218e-17
3.47999e-16
-4.88652e-17
3.49828e-16
-5.20432e-17
3.31761e-16
-3.9423e-17
2.95641e-16
-2.15524e-17
2.61119e-16
-3.47305e-17
2.45385e-16
-8.84797e-17
2.35823e-16
-1.13374e-16
2.16654e-16
-7.6338e-17
2.05006e-16
-4.15716e-17
2.08797e-16
-5.37582e-17
2.36241e-16
-8.95892e-17
2.68777e-16
-1.11494e-16
2.85272e-16
-1.28878e-16
2.92318e-16
-1.19041e-16
3.08354e-16
-1.06934e-16
2.56417e-16
-9.91359e-17
1.85032e-16
-4.07451e-17
1.76293e-16
-4.04715e-17
1.98186e-16
-7.50955e-17
2.30312e-16
-1.24014e-16
1.99976e-16
-1.095e-16
1.50892e-16
-1.01746e-16
1.21665e-16
-1.18218e-16
1.14746e-16
-9.96508e-17
1.24173e-16
-1.08034e-16
1.43064e-16
-9.63809e-17
1.595e-16
-1.00881e-16
1.56358e-16
-8.17565e-17
1.41579e-16
-6.75892e-17
8.99013e-17
-7.22457e-17
3.67165e-17
-6.68472e-17
6.25449e-18
-8.14947e-17
-1.39245e-18
-9.94189e-17
-2.03681e-17
-9.04346e-17
-4.55554e-17
-7.1088e-17
-6.57709e-17
-8.26722e-17
-8.23298e-17
-1.05838e-16
-9.66721e-17
-8.78858e-17
-1.15888e-16
-9.16092e-17
-1.30115e-16
-9.1504e-17
-1.457e-16
-9.74474e-17
-1.8381e-16
-7.42722e-17
-2.1609e-16
-1.06366e-16
-2.2554e-16
-1.13699e-16
-2.33963e-16
-1.02243e-16
-2.65622e-16
-8.17509e-17
-3.28727e-16
-5.10504e-17
-3.99469e-16
-4.7189e-17
-4.62242e-16
-4.98654e-17
-4.73622e-16
-7.60758e-17
-4.67164e-16
-1.05539e-16
-4.99053e-16
-1.01178e-16
-5.40305e-16
-9.41748e-17
-5.49552e-16
-1.22488e-16
-5.36623e-16
-1.32867e-16
-5.63258e-16
-1.83148e-16
-6.40527e-16
-1.63146e-16
-6.95053e-16
-1.49632e-16
-6.56471e-16
-1.16502e-16
-6.11082e-16
-6.2628e-17
-6.469e-16
-2.75281e-18
-6.46535e-16
-3.28503e-17
-5.75401e-16
-9.08345e-17
-5.99896e-16
-8.24943e-17
-6.56657e-16
-1.5954e-16
-6.68483e-16
-1.69916e-16
-7.51473e-16
-1.11969e-16
-9.17022e-16
-4.05437e-17
-1.01985e-15
-1.64933e-16
-9.93442e-16
-2.97482e-16
-9.50289e-16
-1.96631e-16
-1.05779e-15
-4.15171e-17
-1.0974e-15
-8.24803e-17
-1.08955e-15
-4.10077e-17
-1.20682e-15
-4.94283e-17
-1.2407e-15
-1.304e-16
-1.16298e-15
-6.24444e-17
-1.1447e-15
4.81641e-17
-1.20129e-15
3.59157e-18
-1.3503e-15
-2.86872e-17
-1.43172e-15
-1.13862e-16
-1.41622e-15
-2.57647e-16
-1.29452e-15
-3.05774e-16
-1.2384e-15
-1.36987e-16
-1.38272e-15
-1.37636e-17
-1.53647e-15
-5.40263e-19
-1.56171e-15
-1.33482e-16
-1.48939e-15
-2.31426e-16
-1.3601e-15
-1.54916e-16
-1.29227e-15
-2.19394e-17
-1.29844e-15
-1.0165e-16
-1.39306e-15
-1.90053e-16
-1.46831e-15
-1.39283e-16
-1.39763e-15
-9.75889e-17
-1.2746e-15
-1.18549e-16
-1.27229e-15
2.10074e-17
-1.42843e-15
9.93251e-17
-1.71751e-15
6.35891e-17
-1.91627e-15
3.11598e-17
-1.97847e-15
-9.32873e-17
-2.18959e-15
-4.70018e-17
-2.44169e-15
3.95083e-17
-2.34002e-15
2.19143e-16
-2.09176e-15
7.86874e-17
-2.14461e-15
-2.29515e-16
-2.28765e-15
-2.59271e-16
-2.35551e-15
-9.97765e-17
-2.62587e-15
-2.59685e-16
-2.78026e-15
-3.39973e-16
-2.85452e-15
-1.84509e-17
-3.17041e-15
3.62083e-16
-3.75966e-15
4.99334e-16
-3.83363e-15
-1.92898e-16
-3.41114e-15
-5.48607e-16
-3.20178e-15
-3.73409e-16
-2.89106e-15
-5.52422e-16
-2.69698e-15
-2.62062e-16
-2.81648e-15
3.70047e-17
-2.90218e-15
-2.3275e-16
-2.9137e-15
-3.88384e-16
-3.0143e-15
-3.09601e-17
-3.19325e-15
6.65028e-18
-3.46493e-15
-4.4229e-17
-4.07329e-15
3.78115e-16
-4.25007e-15
1.07616e-16
-3.66126e-15
-3.36199e-16
-3.17368e-15
-2.86331e-16
-2.96545e-15
-5.99343e-17
-2.75312e-15
-1.80637e-17
-2.56397e-15
-2.01996e-16
-2.61517e-15
-8.05603e-17
-3.04702e-15
1.94747e-16
-3.48565e-15
1.95397e-16
-3.7057e-15
1.55769e-16
-3.88305e-15
2.08156e-16
-3.78283e-15
-1.0114e-16
-3.58627e-15
-4.38261e-16
-3.70692e-15
-6.8446e-16
-3.92653e-15
-5.76999e-16
-4.05336e-15
-3.47554e-16
-4.05426e-15
1.00215e-16
-3.96402e-15
2.71516e-16
-3.55381e-15
-7.71283e-17
-2.78813e-15
-1.47726e-17
-2.57925e-15
1.00827e-16
-3.47529e-15
1.78942e-16
-4.36682e-15
9.98376e-17
-4.36239e-15
-2.87327e-16
-3.7588e-15
-4.36965e-16
-3.2878e-15
-5.08753e-16
-3.13503e-15
-3.96693e-16
-3.1197e-15
3.24236e-17
-3.75373e-15
1.45242e-16
-4.65123e-15
-9.25437e-17
-5.21104e-15
2.62827e-16
-5.83542e-15
6.83149e-16
-6.86421e-15
1.16618e-15
-7.81701e-15
1.29193e-15
-8.23478e-15
1.22671e-15
-7.33281e-15
5.48191e-16
-5.54667e-15
-9.04175e-16
-4.5807e-15
-1.3338e-15
-4.48736e-15
-7.88976e-16
-4.95838e-15
4.23003e-16
-5.7716e-15
4.29558e-16
-6.51318e-15
-3.33408e-16
-6.19809e-15
-1.13047e-15
-5.44844e-15
-1.00826e-15
-5.29384e-15
-6.78158e-16
-5.20018e-15
-5.43208e-16
-5.24479e-15
-2.10079e-16
-5.51896e-15
-2.9621e-16
-5.40158e-15
-1.96346e-16
-4.83131e-15
3.6076e-16
-4.16939e-15
6.69043e-16
-4.15936e-15
1.87082e-16
-4.73724e-15
-4.87507e-16
-5.24945e-15
-3.47474e-16
-4.94116e-15
-5.74769e-16
-4.21448e-15
-3.83719e-16
-4.00935e-15
-5.5276e-16
-4.4807e-15
5.11343e-17
-4.89827e-15
6.69355e-16
-4.79756e-15
2.92864e-16
-4.98563e-15
1.93227e-16
-5.11599e-15
1.63651e-16
-4.97123e-15
-5.16377e-17
-4.58407e-15
-4.07757e-17
-4.2677e-15
-6.84539e-17
-4.65431e-15
-1.49431e-16
-5.44857e-15
1.33223e-16
-5.90904e-15
7.41652e-17
-6.06575e-15
1.3271e-16
-6.50461e-15
5.53599e-16
-6.72918e-15
4.18542e-16
-6.71571e-15
-1.56079e-16
-6.60712e-15
-5.43673e-16
-7.0009e-15
-4.5987e-16
-7.21519e-15
-5.85977e-16
-6.40255e-15
-9.53147e-16
-5.56028e-15
-8.34349e-16
-5.54904e-15
2.23211e-16
-5.85723e-15
7.04914e-16
-6.06957e-15
-3.49195e-16
-6.71241e-15
-6.13723e-16
-6.62852e-15
-6.04892e-16
-5.52932e-15
-7.46307e-16
-5.10021e-15
-1.94938e-16
-5.78723e-15
4.94343e-16
-7.08681e-15
8.16061e-16
-8.35464e-15
1.11179e-15
-8.90665e-15
7.2803e-16
-9.11843e-15
3.40077e-16
-9.34769e-15
4.67865e-16
-9.06507e-15
2.08422e-16
-8.46199e-15
7.24889e-16
-8.05681e-15
8.81161e-16
-7.2422e-15
1.6232e-16
-6.08505e-15
-4.61244e-16
-5.68495e-15
-9.57242e-16
-5.90278e-15
-1.22389e-15
-6.25693e-15
-1.02287e-15
-6.59079e-15
-1.03231e-15
-6.81287e-15
-1.09947e-15
-6.93518e-15
-2.75406e-16
-6.96564e-15
1.01353e-15
-6.61215e-15
3.8828e-16
-6.63031e-15
5.78654e-16
-6.46049e-15
1.18797e-15
-6.08835e-15
7.42555e-16
-6.25872e-15
2.67562e-16
-7.03417e-15
8.81976e-18
-7.6228e-15
-1.3949e-16
-8.31536e-15
1.93013e-16
-8.96851e-15
3.78069e-16
-9.20389e-15
-5.36185e-16
-8.52595e-15
-1.57355e-15
-7.10825e-15
-1.0403e-15
-5.65945e-15
-1.54892e-16
-4.82714e-15
-3.98746e-16
-5.62793e-15
-1.75909e-16
-7.62266e-15
1.47771e-15
-8.93243e-15
9.90953e-16
-9.27543e-15
-3.00169e-16
-9.64928e-15
2.33513e-16
-9.55198e-15
5.24905e-16
-9.88389e-15
8.44818e-16
-9.90682e-15
5.05248e-16
-9.3216e-15
-4.89586e-16
-9.82221e-15
4.90197e-16
-9.75695e-15
3.98461e-16
-9.40217e-15
-3.33558e-16
-8.42897e-15
-9.32473e-16
-6.96247e-15
-1.27105e-15
-6.7753e-15
-8.10576e-16
-7.89061e-15
7.32563e-17
-8.24181e-15
3.20121e-17
-7.81868e-15
-4.39241e-18
-7.5122e-15
1.26716e-16
-8.41451e-15
1.12974e-15
-1.05816e-14
9.05023e-16
-1.13657e-14
-1.12209e-15
-1.09278e-14
-8.55203e-16
-1.17821e-14
1.12008e-15
-1.37914e-14
2.70859e-15
-1.55408e-14
3.26466e-15
-1.57131e-14
2.38217e-15
-1.50613e-14
2.06898e-16
-1.49958e-14
-5.14129e-17
-1.23416e-14
-1.81075e-15
-8.66591e-15
-3.36219e-15
-6.34302e-15
-3.36398e-15
-5.89041e-15
-2.59714e-15
-7.12866e-15
-1.13755e-15
-9.51678e-15
6.02609e-16
-1.07846e-14
4.16061e-16
-1.02015e-14
5.68379e-18
-8.8943e-15
-4.47538e-17
-8.56206e-15
2.40447e-16
-8.73258e-15
1.06241e-15
-8.24283e-15
7.76146e-16
-7.7898e-15
-1.45565e-16
-7.70209e-15
5.12709e-16
-7.46437e-15
7.46613e-16
-7.33656e-15
4.0656e-17
-8.05765e-15
-8.86538e-17
-9.58047e-15
6.66997e-16
-1.03989e-14
7.82541e-16
-9.77377e-15
-9.9269e-17
-1.01123e-14
1.14767e-15
-1.18128e-14
2.21679e-15
-1.30815e-14
2.40893e-15
-1.19906e-14
1.62856e-15
-9.50341e-15
3.98756e-16
-7.94681e-15
-1.07509e-15
-7.73769e-15
-1.48607e-15
-7.27351e-15
-1.10512e-15
-7.5111e-15
-9.08252e-16
-8.93505e-15
-9.73883e-16
-1.08907e-14
5.06071e-16
-1.2446e-14
4.49949e-18
-1.18703e-14
-2.49764e-15
-9.85352e-15
-2.30374e-15
-8.90158e-15
-3.3823e-16
-8.17465e-15
9.74818e-18
-8.0791e-15
6.39974e-16
-8.87323e-15
1.78529e-15
-9.85208e-15
2.749e-15
-1.0422e-14
1.95115e-15
-1.10916e-14
4.2805e-16
-1.14538e-14
-7.62291e-16
-1.16399e-14
-2.87578e-16
-1.32957e-14
3.05745e-16
-1.32427e-14
-1.02532e-15
-1.14208e-14
-6.08791e-16
-1.1343e-14
8.30945e-16
-1.15434e-14
-6.60483e-17
-9.86572e-15
-1.1848e-15
-8.01846e-15
-7.54042e-16
-8.06538e-15
3.27249e-16
-9.5797e-15
7.38909e-16
-1.13101e-14
1.33306e-15
-1.26621e-14
1.31353e-15
-1.26991e-14
1.21267e-16
-1.14964e-14
-1.31222e-15
-1.15525e-14
-1.0123e-15
-1.21076e-14
-8.40817e-16
-1.16245e-14
-1.51663e-15
-9.54654e-15
-2.17955e-15
-8.33376e-15
-3.47408e-16
-9.53436e-15
2.00739e-15
-1.15812e-14
2.56115e-15