/*--------------------------------*- C++ -*----------------------------------*\
  =========                 |
  \\      /  F ield         | OpenFOAM: The Open Source CFD Toolbox
   \\    /   O peration     | Website:  https://openfoam.org
    \\  /    A nd           | Version:  7
     \\/     M anipulation  |
\*---------------------------------------------------------------------------*/
FoamFile
{
    version     2.0;
    format      ascii;
    class       volScalarField;
    location    "5500";
    object      rho;
}
// * * * * * * * * * * * * * * * * * * * * * * * * * * * * * * * * * * * * * //

dimensions      [1 -3 0 0 0 0 0];

internalField   nonuniform List<scalar> 
160000
(
22.4698
22.469
19.6201
19.519
17.5845
18.157
24.8399
28.4748
23.3983
21.8449
20.5116
19.7212
19.8732
19.9653
20.0535
22.2835
24.1023
24.5783
24.5773
24.5763
24.0624
19.3167
19.6928
21.957
23.185
18.6381
18.0896
18.046
17.8713
17.8705
21.645
25.1304
25.1294
24.7226
24.6754
19.4227
19.4301
19.4293
19.4285
22.9826
23.7552
23.812
18.5744
17.73
17.6819
17.5867
25.6256
26.1927
26.1917
25.9832
18.6502
16.8358
16.8009
16.8001
16.7994
16.7986
22.6725
22.6715
20.108
19.9723
21.2602
22.4309
22.4634
22.4626
21.7245
22.201
22.2323
22.2315
22.2185
16.2227
16.222
16.2213
16.2206
16.2199
19.908
22.6789
23.3588
23.1226
23.4377
23.4368
23.6507
23.6992
23.6984
21.8124
20.5757
20.5749
20.5741
20.5733
20.5767
20.5758
20.5711
20.57
20.5696
20.6387
20.6382
20.0379
20.0372
23.4206
23.4857
23.4591
23.473
21.8069
21.8058
21.8052
19.4715
19.4705
19.4701
19.4689
19.4688
21.5355
24.3574
24.2017
24.201
24.2003
21.8435
21.843
20.2387
19.0613
20.0869
25.1855
25.0979
23.2324
23.2321
23.2305
23.2308
23.5173
24.7502
24.7492
24.7487
24.7478
24.7474
21.7981
20.3768
20.3758
20.3755
20.3745
20.838
20.8374
20.8369
20.5091
20.7023
20.7009
20.2637
20.2623
20.2627
20.261
20.2618
20.2602
23.155
23.1541
19.516
19.5155
19.5144
19.5143
19.3267
19.3263
19.325
21.6395
21.6402
21.64
19.583
19.6239
20.4315
22.1009
20.8658
18.7038
18.7034
16.6278
16.6274
16.627
18.5709
28.0716
28.0701
28.0702
28.0691
21.3372
21.3367
22.9334
24.1578
24.1599
24.1569
24.1568
24.1557
20.5709
19.6073
19.708
19.7078
18.9301
13.0336
12.4578
15.9746
17.8512
20.1288
23.0685
23.0693
15.5358
11.0776
18.0426
53.6266
53.6409
53.6253
53.6279
36.4103
19.6389
16.1742
16.1735
19.1512
26.9266
26.9247
26.8364
26.836
26.7569
25.4411
24.3888
23.7102
22.5037
20.8223
20.8223
26.9033
26.8963
26.9018
26.8967
26.3909
18.8848
18.2347
18.2347
18.2325
18.2347
18.2327
21.5206
21.5197
21.3341
20.0898
20.0903
20.0885
20.0899
20.088
24.8895
25.7145
25.7124
25.7127
21.0469
19.7531
16.4236
13.2103
9.02839
7.352
9.09723
24.406
55.2147
55.2037
55.2127
52.4866
36.074
24.0954
21.3991
20.3493
16.0225
16.0223
23.35
23.867
23.8653
23.8667
19.3463
17.7423
18.7169
18.7171
17.1788
14.6283
14.6293
25.647
28.5335
28.5304
28.5334
26.1311
16.6967
16.6965
16.6942
20.6505
20.6473
20.1635
16.3768
16.3765
16.3767
17.377
28.3756
28.3694
28.3704
23.3866
22.5832
22.583
19.2208
19.2211
20.9112
24.3253
24.3249
23.3506
11.7097
7.40754
5.31529
5.31563
8.0315
65.3324
65.3641
65.3321
65.36
65.3316
45.1268
30.0527
20.2036
17.0831
16.2017
15.2935
15.2935
19.4317
25.7813
25.7741
25.7807
22.6861
15.6037
12.3164
10.0755
8.90906
8.91065
8.90774
8.91091
13.9432
24.1334
29.8072
29.8068
28.8556
28.3974
28.3965
28.3956
26.5354
22.9533
18.094
17.4282
17.4244
22.1043
22.1002
22.1037
22.0999
15.6364
15.6364
15.6363
15.6362
17.3791
28.1888
28.204
28.1886
27.4921
20.0441
18.9793
18.978
19.1024
25.2656
25.2598
25.2655
25.2597
24.1981
18.9354
18.935
18.9354
18.9323
18.9354
18.9291
18.9354
18.9428
25.6971
25.6901
25.6931
25.6901
25.6931
24.7692
24.7697
23.2242
19.9593
19.9134
19.9134
19.9603
23.4224
21.6113
21.6113
21.6104
22.4254
22.4252
22.4254
21.5854
17.6405
16.9844
14.9272
14.9273
14.7017
11.3104
11.9149
21.9554
21.9531
32.8133
35.9807
20.9277
20.8807
25.4372
20.3325
18.6408
18.176
18.3629
19.8604
21.143
21.923
21.922
21.1115
19.8142
19.9422
19.9413
22.2589
24.0038
20.2315
19.9676
19.9481
20.623
19.46
23.9445
23.9436
23.1975
18.2408
18.0034
17.8721
17.8713
22.0353
21.9534
22.0669
23.8049
24.8937
24.7205
19.4258
19.3365
19.3357
19.9498
23.8201
23.8191
23.6533
21.5826
17.7282
17.5971
17.5848
17.584
20.8357
26.1238
25.9636
21.6573
17.628
21.9521
21.9513
21.8105
19.3298
22.641
21.1769
19.973
19.9683
19.9629
22.3977
22.2039
21.4167
21.4159
21.5683
19.5193
19.5185
19.5177
20.433
20.46
20.4592
17.9783
19.2519
23.036
23.3596
23.3588
21.9154
19.148
19.4224
23.4577
21.4555
20.8677
20.8669
20.8661
20.964
20.9632
20.5733
20.5723
20.5718
20.5708
20.5702
20.8041
20.8036
20.0386
20.0378
23.3263
23.4865
23.4857
23.1401
23.4728
23.4722
18.5676
18.5668
21.6647
19.4708
22.7105
24.3599
24.3588
24.3583
24.3573
21.396
19.7544
19.3801
19.2168
19.2161
19.0618
19.0612
21.6728
25.2739
25.2728
25.2724
25.2713
25.2706
24.7514
24.7507
24.7499
24.7494
24.7485
24.7481
24.7472
20.3775
20.3765
20.3762
21.3867
20.2672
20.8378
20.8374
20.2658
20.2653
20.2645
20.2642
20.2634
20.3633
22.403
22.4023
23.3855
23.3852
23.3806
20.5578
20.5573
20.5568
19.3279
19.3268
19.3268
19.3254
19.3258
19.3248
19.3169
19.3163
19.3157
19.4603
22.1013
22.101
18.8115
18.7039
19.3053
17.1591
16.7689
20.0853
24.9392
28.0706
22.1336
22.1329
22.4644
23.9285
24.1592
24.1583
24.1585
24.1574
24.1573
24.1565
23.4595
15.5039
15.5032
16.1094
13.5185
8.29782
6.64703
7.48893
22.9296
44.1491
35.8716
21.6433
13.4626
11.0779
11.0776
15.1771
53.5565
53.6259
53.628
38.2492
23.5645
16.4224
16.1738
21.7549
26.927
26.925
26.9263
26.9243
26.8534
23.6573
20.8114
21.4571
22.0909
20.4919
20.8218
25.512
26.8956
26.8969
26.896
23.6071
19.2861
18.2354
18.2353
18.233
18.2349
18.232
18.2348
18.2319
21.4924
26.8222
26.8235
26.8217
26.8218
21.293
25.7129
25.7148
25.7126
25.7129
22.7119
15.6426
14.5501
13.02
7.50098
6.60956
6.61059
26.4125
55.2153
55.2043
55.2141
49.8069
33.0402
28.6006
25.0733
19.6079
16.0218
16.0216
21.065
23.8672
23.8655
23.8669
19.0659
17.7424
17.7422
17.7419
17.9103
14.3272
14.6281
28.5307
28.5351
28.5305
28.5338
28.5301
20.9707
16.6966
16.6943
16.696
16.6936
16.6954
16.3776
16.3766
20.3385
28.3715
28.3765
28.3704
28.3722
27.1978
23.8022
20.7826
17.4211
18.8612
23.9492
23.9495
14.8657
11.0602
11.0466
8.12869
5.31532
5.31567
5.31526
21.8716
65.3643
65.3323
64.3805
40.9988
28.2558
22.6005
19.8207
16.8506
15.2927
15.2926
15.2926
19.9844
25.7816
25.774
25.7789
21.7774
14.0607
11.2412
9.61018
8.91122
8.91067
15.8317
32.8618
32.8609
32.8611
29.809
29.8084
27.1043
20.4956
19.5586
20.4946
22.0471
22.7956
22.2647
18.5451
17.8244
20.1645
20.8912
20.0436
20.0413
22.0987
15.6364
15.6364
15.6364
16.8882
28.1888
28.2042
28.1888
28.191
23.4046
18.9793
18.978
18.979
18.9777
18.9788
19.0168
23.9354
25.2601
23.7375
20.4481
18.9354
18.9324
26.5225
26.5171
26.5251
26.5168
26.5201
24.6638
22.9498
22.9743
23.0506
20.2951
19.9779
19.8976
19.897
19.8976
21.5512
23.2857
24.3989
24.3986
24.3987
24.3989
21.5706
21.5692
22.4254
17.7048
16.9441
16.9435
16.9437
15.7875
15.786
14.7427
11.3101
13.5446
16.5618
23.0242
28.5714
35.9975
20.9458
20.8808
25.4372
24.3786
24.3523
19.8348
19.8663
22.1443
21.0245
21.2447
21.0744
20.7557
19.8142
20.09
20.0892
21.8336
24.0864
24.0853
19.9899
19.9481
19.8287
23.2678
23.6813
21.4078
21.1755
21.1746
21.2477
20.0362
22.5469
22.5458
19.3173
21.0621
23.8318
24.8936
21.4846
19.6113
22.8073
22.7712
22.0785
19.6462
19.0862
19.172
20.9406
21.4584
22.0376
21.779
19.4011
19.4198
19.5258
22.587
22.2442
19.6766
19.3363
19.3194
19.3186
19.3324
21.2855
24.0727
24.0719
23.8609
18.3656
18.3648
22.1998
22.1724
21.9839
22.2018
22.201
22.0971
19.5177
19.5169
19.3945
19.3937
20.1942
20.1934
19.1509
19.1502
19.1493
19.1487
19.1477
21.5611
23.1431
23.291
23.2901
22.5498
21.033
19.2726
20.2256
21.7628
21.7621
20.5716
20.571
20.5701
20.1739
20.1731
20.1696
17.8231
17.8224
17.8217
18.89
19.3396
18.895
22.218
20.2532
18.2759
21.6647
24.3292
24.5122
21.679
21.6783
21.6774
21.6768
21.676
22.3124
20.5608
20.5602
20.3098
19.0617
20.8223
24.1262
24.4264
21.209
20.2945
20.2941
20.6561
22.5285
21.4948
19.9163
19.9157
19.915
20.2525
21.3754
24.3529
24.3521
24.2603
21.4303
20.2671
20.2666
20.2661
20.2657
20.2652
21.7287
22.6538
22.6533
20.0049
20.004
20.0038
20.4163
23.3844
23.3839
19.7958
19.7953
19.7948
19.7942
21.1478
21.1472
21.1467
20.8634
22.2788
22.2783
22.2425
19.3155
19.3152
19.315
22.1846
22.1844
22.1821
19.3911
14.613
14.306
20.2118
28.0707
28.0714
28.0697
28.0694
21.3576
20.3972
20.3967
20.3962
20.3956
23.4534
24.1569
21.768
18.2246
15.5167
10.8104
7.67753
6.64621
6.64603
6.6458
22.5035
62.6299
57.0739
37.8149
23.3811
15.1655
11.1841
11.0776
12.7368
22.3039
29.5283
26.5589
18.7666
16.1056
18.0694
22.9128
26.9267
26.9257
24.4418
23.7391
23.7395
24.4781
20.5229
20.4918
20.4922
20.4911
20.4917
23.3713
26.2253
26.2258
20.6568
18.8286
18.8283
18.8281
19.3747
23.5074
22.3049
18.9951
18.235
21.3605
24.364
25.4859
26.8239
26.822
22.1587
17.5914
21.2462
23.2924
21.5991
21.4073
21.4068
21.4067
19.5159
12.1667
7.32003
6.61034
6.61069
6.6094
26.4106
55.2044
55.2147
53.4707
29.3876
21.5361
19.0359
17.8533
16.4971
16.0217
16.0217
19.9619
23.8656
23.8657
18.2422
17.2895
18.2152
18.5151
15.8887
13.767
14.3264
23.5311
28.5306
24.2622
23.3957
23.3952
23.3953
20.5679
16.8913
16.6965
16.6941
17.6002
23.4946
28.3743
28.3749
28.3732
28.3738
25.7629
21.6115
22.2464
24.9287
23.5011
18.6021
12.9208
8.81264
6.25513
5.31659
5.31495
5.31614
5.31553
5.31609
5.31514
6.83672
34.7205
65.3352
65.3324
39.981
24.6908
20.8642
20.8644
22.5149
19.5529
15.9881
15.5559
17.0034
19.0009
23.4076
25.7736
23.3104
16.9877
14.1054
12.7918
10.7344
9.61021
11.5807
27.0254
32.8619
32.8618
32.8618
30.2715
24.0279
23.1078
21.7851
19.5586
19.5585
22.5202
22.5201
21.6363
20.544
18.0663
17.8247
19.8173
22.4874
21.9456
19.1857
15.9653
15.9641
21.6608
28.1938
28.1887
28.2034
28.1888
28.1893
22.4714
22.628
23.3196
23.3202
23.3194
21.0295
18.978
21.5939
23.9365
23.8458
19.9992
18.9354
18.9342
19.0337
26.5171
26.5208
26.357
26.0381
23.5606
18.9445
18.945
20.1784
29.9697
29.966
29.97
29.9659
29.9675
26.2481
20.0595
20.0589
20.0596
20.0588
20.0596
20.6968
23.8922
20.5052
20.5051
20.5044
20.5739
20.0758
15.2722
15.2713
15.272
15.2713
15.2721
15.2712
14.2177
20.568
33.5402
36.0143
21.0647
23.3189
22.9878
23.0982
23.9041
23.5948
21.9659
22.1444
21.0245
21.7906
21.7897
21.7889
20.9568
20.0367
20.0359
19.8146
19.8768
19.9743
19.9703
20.616
19.8287
19.6028
19.5698
20.8776
23.2329
23.232
22.2526
22.3126
22.3115
17.8892
17.8885
17.8887
17.9279
17.927
18.2475
23.4883
23.4874
21.1169
19.2412
19.112
19.0862
19.0854
19.0947
19.7351
22.0376
21.9503
21.9495
21.8684
21.2151
19.6205
19.6197
19.4178
19.3363
19.6418
19.8863
19.8856
19.0601
19.0372
18.3671
18.3664
18.3656
18.3649
23.0962
20.2971
20.2963
20.3221
17.8817
15.463
22.2625
22.2616
21.9438
17.2475
16.5049
20.873
22.6412
22.6403
22.6369
22.6361
22.6353
19.277
19.2763
19.2754
19.2748
19.2739
19.2733
19.2723
19.2718
19.2709
21.6032
21.6023
20.5842
20.7124
20.7117
19.9612
18.567
21.5565
20.728
17.8217
17.8211
17.8204
17.7726
14.5214
14.5209
16.4359
20.6876
24.9089
25.0472
25.0464
25.0457
25.0449
22.2907
22.3135
22.3128
19.5965
19.063
19.0622
19.0617
19.0608
22.8284
22.5707
20.7549
20.7543
20.7537
19.3672
19.3667
19.366
20.0328
20.0319
19.9149
20.758
20.978
21.2102
19.4437
17.8062
16.6382
19.7919
21.3444
22.9385
23.3652
25.6255
26.4476
22.6539
20.0055
20.004
20.0043
20.0028
20.003
23.2609
21.7043
21.704
21.7032
21.7029
21.2407
18.8921
18.3642
18.3635
18.3631
18.3624
18.362
18.1594
19.3153
20.7807
23.6112
25.5423
21.2521
16.2173
14.2091
13.8854
14.1879
25.4889
28.0715
25.7488
23.5074
24.0782
24.0778
24.0771
24.0766
21.117
17.9446
19.8761
24.1031
19.5694
12.7065
10.2837
8.5808
7.30083
6.64621
11.1799
42.2733
79.341
74.242
48.8326
34.065
30.9685
25.8328
16.7837
11.8251
11.8249
14.4171
19.4895
20.047
13.193
13.1933
13.3834
21.1453
26.9261
26.9264
25.3655
24.9746
24.9736
22.3524
20.4925
20.4924
23.4384
25.6573
25.6567
25.1955
23.4715
20.7495
18.8288
18.8286
18.8283
22.6125
27.2566
27.2563
27.2561
23.4162
20.4427
19.5503
19.5505
19.5499
23.7248
21.6548
15.5302
14.4773
20.1808
25.213
26.9143
26.9142
25.1143
20.133
13.1527
8.28197
6.61059
6.61082
6.60956
9.60694
55.2031
55.2151
55.2039
31.119
22.1779
19.5885
17.0308
16.4429
16.4426
16.4416
20.8976
23.8652
23.8663
20.6797
17.2896
17.2895
17.8588
21.9679
18.7739
13.767
13.7522
16.2188
26.2866
28.2893
28.2892
28.2891
25.9685
16.9072
16.6971
16.6956
16.6967
24.1661
30.3884
30.3875
26.6976
22.0834
21.0644
21.065
21.6113
21.523
21.8165
21.0363
17.6362
10.9635
6.11035
5.31679
5.31542
5.31654
6.68937
23.0628
37.3088
43.4583
43.4595
43.4558
25.2866
23.6727
21.6341
25.766
27.2728
27.2707
27.2707
23.4938
20.8327
19.9021
17.9617
17.9138
18.5813
24.4382
23.9663
19.7957
14.6274
10.5395
10.3304
10.329
20.5054
32.8617
32.8617
32.8616
24.7256
18.398
16.7801
18.9903
22.4211
20.5208
16.751
14.832
14.832
14.8314
16.2796
25.2573
31.0099
33.2679
33.268
31.3576
22.6685
17.3014
15.9653
16.4476
28.1882
28.1924
27.9119
26.1727
24.5159
21.9116
21.5322
21.532
21.9658
22.8825
21.2738
18.4287
17.0788
17.0775
19.1266
23.0307
23.4125
21.5379
18.4712
18.4713
18.471
16.4409
15.657
19.6522
18.9437
19.2723
19.9719
25.0698
29.9694
29.966
29.9685
29.9367
23.1314
20.0592
20.1496
20.1471
20.0596
20.0588
20.0596
23.8906
24.2932
24.293
24.2932
20.5734
20.5731
21.6058
17.6229
13.3924
13.3915
13.3923
13.3913
14.1007
19.4771
31.6039
36.0311
23.1165
24.1625
22.7496
22.5661
22.2477
21.8943
20.4573
20.7394
20.9683
20.4491
21.0168
20.3116
20.7201
20.6317
20.5851
19.8146
20.2084
19.8212
19.9704
20.6159
20.3018
20.5161
19.5698
19.7359
19.3376
18.92
18.9193
18.7729
18.8646
23.4324
23.4315
23.2773
23.7909
23.694
17.2339
17.0905
17.0001
16.995
20.5144
24.0611
20.5979
23.8503
23.6368
20.5321
19.9189
19.918
19.9172
19.9982
20.7861
20.576
20.1734
20.1581
20.0824
19.0624
19.0617
19.0608
19.0601
20.9742
20.893
18.6174
18.5713
23.6377
26.1434
26.1716
26.2128
26.2179
26.0846
15.4289
15.4278
15.4271
15.4264
15.4258
15.4277
18.394
20.2267
22.607
21.8937
21.8929
22.5096
22.5089
22.3336
19.2756
19.2747
20.1093
20.9892
20.9885
20.8228
19.1507
18.7859
18.7852
18.7845
18.0946
18.0938
18.0932
18.5667
23.7642
23.7629
23.7626
23.7614
23.7609
23.7598
14.5214
14.5207
14.5203
14.5194
14.9714
24.8156
24.213
22.6979
23.1137
22.2931
22.2928
22.3128
22.3121
22.3114
21.7094
19.0615
19.061
20.1387
19.0349
20.5965
19.7738
18.7184
19.7311
20.1483
20.1479
19.2043
19.2038
19.465
26.069
26.0692
26.0693
26.0678
26.0665
14.4692
14.4683
14.4684
14.4672
14.7269
24.9389
26.4475
26.4469
26.4461
22.1905
20.1754
20.175
19.4211
18.5795
18.5791
18.5784
18.5781
18.5773
21.3785
23.0071
23.0056
23.006
23.0045
20.0956
16.4794
16.478
16.4786
16.4772
19.2164
27.8511
27.8495
19.5569
25.3545
13.8853
13.8851
14.9478
22.6839
24.7619
23.5074
20.8735
21.1582
23.1514
22.5928
20.3113
17.8651
16.4039
16.4032
19.1277
16.3936
11.7369
12.8088
25.6465
57.3498
92.1082
92.0945
81.7496
49.1926
29.5356
25.1504
27.1117
25.7047
17.9994
15.9397
23.0249
23.4458
23.447
23.4444
13.193
13.1922
13.193
13.1917
26.8763
26.9255
23.0122
21.2816
21.1876
21.1872
24.6621
25.6591
25.6586
25.6581
21.7892
19.3674
19.3669
19.3665
19.3658
21.9913
21.7988
22.4932
26.2842
27.2564
22.7612
19.5588
19.5586
23.0228
24.1895
24.1905
24.1891
23.1956
19.6315
11.9395
17.9574
21.2941
16.7657
13.6283
12.9036
12.9032
11.6982
8.36092
6.83351
10.0639
22.4932
45.8161
55.2097
55.2042
33.938
21.0859
17.6426
16.9034
16.9032
18.2626
21.8436
23.8659
23.865
23.8652
22.2845
18.8879
17.2895
18.301
22.02
22.0193
19.445
18.4732
13.7522
13.7521
13.752
23.7246
28.2892
22.3389
16.9078
16.9074
17.7689
30.3899
30.3887
30.391
30.3884
25.9802
22.6609
22.6217
21.9056
19.8626
19.8626
19.8625
21.6035
21.6032
15.9836
8.47246
5.31727
5.31596
7.40458
23.1789
51.4151
51.4302
51.4148
51.4235
33.8227
19.7348
12.9959
12.9958
13.1619
27.2724
27.2708
27.2727
22.1612
17.9137
17.9139
17.9119
17.9138
17.911
17.9138
22.834
22.5552
16.2994
13.2259
12.2966
14.8699
24.6037
32.8616
32.8617
32.8617
27.4012
17.689
15.6831
15.6832
21.5135
23.951
23.9442
23.9456
18.4926
18.4909
14.8314
14.8312
14.8309
18.7372
32.1271
29.752
23.5912
23.6655
28.1866
28.1886
28.1869
28.1889
23.7701
20.1972
19.616
19.4602
19.2414
19.837
24.2422
24.2423
23.9881
19.8569
17.8589
17.2321
17.0783
17.0774
17.3455
23.4396
23.9898
23.9933
23.9918
22.9297
23.9868
15.3917
15.3913
15.3916
16.7502
24.7238
29.9682
29.966
27.0161
20.0584
20.0595
20.0581
20.0595
20.0574
20.0594
22.0144
23.1659
23.1661
21.3238
18.2897
18.2886
22.561
22.5613
21.2838
21.6057
21.6058
21.6058
20.4668
13.3918
13.3927
17.1093
25.7834
25.7803
36.0479
21.0022
22.6861
21.6661
21.0665
20.3043
20.3035
20.3026
20.3018
20.301
20.3911
20.3124
20.3116
20.4891
20.4882
21.4067
22.0983
21.6215
19.8211
19.8536
19.8466
19.8458
21.8996
21.8986
19.6522
19.7946
20.2998
18.6922
18.7701
18.3701
20.3605
23.3706
23.4411
23.7908
23.5967
17.1256
16.8772
16.8765
16.9389
17.231
24.1543
24.853
24.6193
21.632
19.9722
19.9467
21.1256
20.9671
19.8491
19.4848
20.6662
20.6652
19.064
19.0632
19.0624
19.0616
19.0617
21.893
21.8922
20.3662
20.3521
20.8885
21.6458
26.1125
26.1629
26.2128
26.2094
26.2077
16.6345
15.4278
15.4271
19.9065
24.2374
24.2366
22.0371
20.2267
21.8481
21.995
21.9942
20.7003
19.3014
19.3006
19.2998
19.2991
19.2635
19.2627
19.2619
19.2611
22.0503
22.0496
21.9523
18.0953
18.0945
19.6094
21.0063
21.137
22.2477
19.1896
20.1652
23.7617
23.7606
22.5393
14.5214
14.5209
14.5201
18.0226
22.8686
21.4924
21.4917
21.491
23.1268
23.1261
22.8601
19.6838
19.774
21.7408
21.7401
21.2185
18.671
18.6704
18.6695
18.6691
18.6681
18.6678
18.667
19.629
19.3678
21.4333
26.0638
26.071
26.0699
26.0704
26.0685
26.0685
25.4454
14.4691
14.4688
14.4678
14.4677
20.8425
24.259
24.017
22.6494
23.3734
23.3728
22.418
19.7625
19.7618
21.4668
21.4661
21.213
18.7422
18.5773
18.5771
18.9129
22.7531
21.2818
17.7516
16.4798
16.4789
16.479
16.4778
25.2073
27.8547
27.85
27.8531
27.8492
27.8487
13.8851
13.8849
16.9827
20.8735
20.8734
20.8733
20.8731
22.091
22.7586
21.6472
19.3889
17.1534
16.9765
15.6409
10.3653
5.85554
5.8462
16.1338
60.7238
92.1126
92.0957
89.958
41.2639
22.5402
19.4571
19.4569
22.629
25.6988
22.7782
22.5919
23.4465
23.4478
23.4454
23.4458
13.1924
13.1928
13.1913
13.5007
25.0639
26.8038
23.9933
21.9811
21.1875
21.627
25.6599
25.6594
25.6588
25.5598
22.1278
19.3676
19.8147
22.5552
22.5549
22.5547
19.6235
19.0407
19.0401
19.0403
19.0395
19.7187
22.2675
24.1898
24.1907
24.1893
21.6757
14.8767
17.1665
10.4233
13.2778
13.7653
11.8212
12.176
12.9041
12.3904
9.96387
9.63538
13.6919
24.2581
38.0827
41.6294
38.6062
33.941
24.0359
17.742
16.8945
16.894
21.1142
23.8654
23.8664
23.8651
23.8654
20.7888
17.1757
17.1756
17.1755
18.4693
22.0207
22.0199
18.0363
18.0374
13.7522
13.7521
21.5505
23.7278
23.434
19.1578
16.9082
16.9077
18.0074
30.3885
30.39
27.074
24.0023
23.6624
23.6606
23.6624
23.6606
23.6618
23.66
22.0524
18.1164
15.0136
10.7769
6.67998
5.31686
6.60198
20.5672
51.4146
51.422
49.1338
44.4817
37.7855
17.8107
16.7435
12.9959
12.9958
12.9958
23.1169
27.2726
27.2445
19.7366
17.914
17.9129
18.7749
28.3847
28.5819
28.5773
28.5818
23.0624
14.9072
12.6847
12.6838
16.8011
22.2752
28.6391
29.189
22.9108
17.2393
15.6831
15.6833
15.6831
19.0393
23.9443
23.9513
23.9456
18.1925
18.1937
14.8313
14.8313
14.8309
21.7877
30.6894
24.8375
23.5917
23.6737
26.234
25.1825
25.1824
25.847
28.0103
21.6808
19.24
19.2414
19.2353
19.2413
24.2401
24.2422
24.2423
23.8419
21.3392
20.1423
18.645
17.0963
18.2673
23.9898
23.9988
23.9918
23.9983
23.9918
23.9918
15.3913
15.3917
15.3909
15.3904
23.4078
25.6243
29.4617
32.4195
32.4189
32.4181
30.5118
26.1614
24.5522
25.1775
25.1772
22.1205
20.6336
21.3232
19.3046
18.2876
18.2874
18.2873
18.2873
18.2865
18.2867
18.2871
15.3144
13.3923
14.4816
27.3753
38.8968
53.2906
81.6418
23.6826
20.2488
20.8604
20.3314
20.3306
22.2908
22.2899
21.2161
20.3273
21.9593
20.3824
20.6166
21.6951
21.6942
21.6244
22.0983
19.9033
19.9024
19.8791
21.0701
22.3026
21.81
19.653
19.6522
20.3804
20.2997
18.6922
18.9285
18.37
20.2098
23.6062
23.435
22.8403
23.5174
17.2015
17.3143
16.9381
19.57
20.486
20.9737
24.8531
24.8459
22.9171
21.2168
22.6771
22.616
19.2291
19.2283
19.2274
19.2921
19.0903
19.0639
19.092
20.0837
20.2851
20.4153
21.8931
21.8321
20.8164
20.0069
19.0784
19.7843
26.042
26.1629
26.042
20.831
25.5009
15.4284
15.4277
15.4271
15.4273
15.4508
17.4832
24.4981
24.4973
23.6977
21.4003
22.008
22.0072
21.9601
21.9593
21.23
19.2642
19.2634
19.2627
19.2619
19.2611
18.5504
18.5049
18.5042
18.2761
18.7803
21.0071
21.0064
20.5653
19.1902
19.1897
22.5925
23.7614
22.3392
22.3387
14.5215
14.5208
14.5204
19.6263
25.3939
25.3931
21.4916
21.4909
21.4902
20.0701
19.6746
19.6738
21.7414
21.7407
20.6622
18.9747
18.9741
24.0485
24.048
24.0471
23.6643
19.5312
18.0271
18.0262
18.026
18.025
19.5597
21.7762
25.1486
26.0684
26.069
23.1969
23.4381
14.4693
14.4686
14.4685
15.9957
25.1434
25.1428
21.9551
21.4449
21.4441
21.4438
21.7995
23.4332
23.4326
21.2531
18.5789
18.5786
18.5778
18.5776
18.5768
18.7962
22.745
21.2913
17.2662
16.4796
16.4794
17.8345
27.8509
27.8539
27.8505
27.8532
27.8496
27.8495
27.7921
13.885
13.8848
13.8846
22.7455
23.3329
20.8735
20.8943
26.049
26.0484
25.6598
22.968
19.0273
14.561
9.34935
4.78395
2.32743
2.71594
10.8823
54.2509
92.0968
80.219
46.7568
28.7747
22.4383
19.6352
17.8774
17.876
23.4487
23.4499
23.4475
23.4487
23.4461
23.4468
23.4448
13.1925
13.1916
13.1925
13.1905
14.6305
26.6047
26.6179
22.8821
21.3388
25.7343
25.7337
24.4936
24.1286
25.5591
23.7645
19.8542
19.7413
19.7409
19.7408
20.5576
20.2296
19.6588
19.0405
19.0398
21.6825
22.571
22.5711
22.5711
23.5731
24.1891
22.147
14.7322
15.581
9.56757
9.56687
9.56787
9.56599
9.56791
12.495
17.228
17.5328
17.5618
20.2182
26.363
33.3793
35.0105
30.6055
24.0054
19.0525
16.8975
16.8942
16.8943
16.8935
16.8941
17.5081
22.0317
23.8645
23.8644
22.5546
23.0824
23.0816
22.067
22.0213
22.0206
22.0198
22.0188
13.7522
13.7521
15.4245
22.5358
22.8303
19.628
16.9084
17.6805
25.5383
29.8396
28.7217
27.8127
27.8122
26.9074
22.9569
20.3911
20.3909
22.694
23.1611
20.3564
15.8118
11.4803
8.08183
5.59457
5.31751
6.42983
25.351
51.422
47.5857
29.2853
24.8775
24.67
17.4546
17.4534
12.9959
14.3338
21.4386
22.5806
23.5404
22.7571
19.7376
20.5068
27.181
28.3824
28.3846
25.55
22.4276
20.5925
19.8254
19.8253
20.4419
19.3429
18.8572
19.5229
23.3712
28.5555
26.0061
19.2428
15.6834
15.6831
17.1536
23.9442
23.9532
23.9456
23.9516
23.9456
23.9143
14.8314
14.8312
14.8311
19.3745
29.8956
23.5919
23.5912
23.6481
31.0157
28.5204
28.082
28.0816
28.0812
22.5978
19.2414
19.2352
19.2413
19.2381
23.2114
22.7835
21.0588
20.4941
20.4939
20.4943
18.5177
17.3776
20.1722
23.9978
23.9898
23.9984
23.9918
23.9934
23.9893
15.3917
15.3913
15.3918
24.8749
25.9078
25.6266
26.0936
32.4203
30.8275
23.3514
23.0911
25.1799
25.1796
25.1793
21.1678
19.1
19.0998
19.1298
19.0978
19.1206
22.3657
22.3675
22.3657
21.9192
21.9194
21.9196
19.6484
14.3239
14.3255
18.1546
37.7782
61.0498
81.6822
20.5061
20.2488
20.248
21.2244
21.2009
20.8954
20.8946
20.8692
22.162
22.1611
21.17
20.6108
20.6645
20.1997
20.1945
19.9821
19.9813
22.0944
22.0934
21.0612
22.3027
21.1653
20.8873
21.6291
21.5989
21.0915
20.6551
20.1419
18.6163
22.7613
23.6061
20.7737
19.1404
18.8897
18.6644
22.0963
22.0954
20.2955
19.2802
20.5957
20.9432
20.9939
20.9215
20.9207
22.9372
23.431
23.4479
23.447
23.1978
23.1388
21.615
21.4929
21.3348
19.3115
19.3074
19.0822
19.0814
19.0807
19.0798
19.0791
19.0783
19.1176
22.632
21.7157
17.3211
15.4609
15.4307
15.4284
19.7862
23.301
26.9715
27.4359
27.4349
22.6071
19.9131
19.9123
19.9115
19.9104
19.9075
19.9068
19.906
20.4675
21.4351
21.4343
20.5087
19.2619
19.2612
21.3586
22.6664
19.2886
18.2762
18.2756
18.2749
18.2743
19.4513
22.698
22.1748
22.1741
22.806
22.8054
22.0289
14.6725
19.6507
19.686
19.6873
20.1479
21.7099
23.3253
23.3246
23.3239
23.3224
20.8984
19.0969
19.0963
19.0958
19.0952
19.2684
23.8633
23.8627
20.7191
20.7185
20.7178
20.7171
21.3869
21.3864
20.9047
18.0255
18.0246
19.413
26.2003
21.045
14.9939
14.6072
14.6066
14.6057
22.9324
25.2971
25.2965
24.3546
22.056
22.1986
22.8051
23.4355
23.4348
23.4342
23.4335
19.8813
18.5796
18.5791
19.2894
19.2891
18.5774
18.5772
18.5764
21.7051
21.2884
19.2331
18.6144
18.8075
21.2458
24.1728
22.0667
17.8062
17.8056
17.8054
19.777
17.0037
13.8842
21.3299
24.6114
24.6107
23.3328
24.0285
27.435
27.4346
22.0556
20.5932
19.8171
13.9311
6.94706
3.43336
2.32758
2.32747
2.32744
10.0816
47.7664
64.7093
36.0225
24.0008
23.4998
23.4991
22.258
18.0874
17.8765
17.8757
17.8759
18.0437
17.8978
17.5982
17.5973
17.5976
13.5446
13.5452
13.1925
13.1928
14.0735
25.0378
26.6214
26.6176
26.6186
26.617
22.9259
20.0631
20.0629
20.0622
20.0624
20.0615
22.0426
23.0157
23.0152
22.4032
19.4535
19.041
19.0402
21.2526
21.6822
20.6604
17.6888
17.6885
17.6883
17.0642
14.9824
13.5624
12.7557
9.79413
11.8741
12.7494
15.001
17.55
19.705
20.3097
21.3754
22.0564
20.0177
18.4435
18.4598
21.9286
23.5452
22.3457
22.1533
20.0136
17.1929
16.894
16.8942
16.8929
16.894
17.0028
19.4904
20.6275
23.0196
23.0823
21.2438
16.8221
15.213
15.2121
15.2126
15.2126
13.7522
14.3691
22.5063
24.6537
24.6537
23.26
20.5257
21.8796
24.8026
24.9398
22.0975
20.0715
20.0713
23.5136
23.5137
21.5318
19.6474
17.162
14.851
14.8504
14.8499
14.85
10.7769
6.60017
5.62492
10.5686
35.6039
51.4143
39.1151
18.2795
13.4713
13.471
13.4709
17.3642
21.6748
22.3829
22.3832
19.5459
19.5457
19.5455
19.5452
22.2119
28.2713
28.3825
26.2522
20.0829
19.1118
23.1716
23.7704
23.7712
20.4421
18.8567
18.8575
18.8547
18.8579
18.856
22.8532
18.3556
15.6832
16.6592
21.0691
23.9449
22.1723
15.5825
15.1165
15.1163
15.1164
14.8313
14.8314
17.0205
33.8983
33.8984
32.9311
32.93
32.9292
32.6159
25.9983
24.2517
24.6039
22.3474
19.3403
19.2406
19.2414
19.2382
19.2413
21.7843
21.0593
21.0588
21.6719
23.0362
23.0361
23.0362
21.1596
17.7723
17.7719
18.5185
23.4632
21.7761
17.4909
15.3928
15.3917
18.0273
28.3747
28.8055
25.9087
27.2141
35.4464
35.4465
35.4464
27.3461
23.0909
23.2951
24.3172
20.2394
19.1001
19.0998
19.0995
19.0978
19.0974
21.7367
22.3678
20.6415
19.0087
19.0084
19.0081
18.9566
16.4552
16.4529
21.6207
23.1568
28.2326
59.6869
81.7227
21.2407
20.4843
20.3839
21.2244
20.9828
21.453
20.8701
20.8692
20.4745
20.0785
20.8307
20.6091
20.9269
20.926
20.0669
20.0662
20.4676
20.8239
20.9464
21.0602
21.765
21.1653
21.8585
21.6785
21.5989
21.9284
21.9275
20.1819
21.5038
23.8429
23.8419
23.0288
23.5866
23.5856
18.3222
18.1156
17.9888
18.0023
18.3155
24.2104
24.4117
22.4645
20.9829
21.2399
22.4166
23.0898
22.8698
20.0115
20.0333
19.9757
20.2241
19.3633
19.3491
19.2535
19.083
19.0821
19.0815
19.0806
19.0799
20.7855
24.1584
24.2954
24.4418
24.4812
24.6114
24.6541
24.5299
15.4284
15.4277
15.4347
15.6997
21.6869
24.2034
23.7998
23.9774
23.9766
23.4558
20.3395
19.9076
20.0434
22.5086
22.5078
21.0473
19.3795
19.3787
19.262
19.5328
21.1084
22.7218
22.7211
20.7247
18.2756
19.7984
22.5623
22.6988
22.698
22.6485
22.6888
22.8061
22.6966
22.6958
14.6726
14.6721
14.6716
20.4247
22.624
22.0361
22.8287
22.3731
19.4366
18.8245
18.8241
18.823
19.1669
22.511
22.5646
22.5639
21.5499
20.8338
20.8332
21.663
21.6624
21.37
20.2845
20.3144
22.0699
23.7669
25.7198
26.3309
26.329
26.3299
26.3276
26.328
26.3261
14.6061
14.6057
14.6053
20.0438
20.8765
20.8763
22.0974
24.4867
24.4862
23.3127
19.5895
18.8692
18.8686
18.868
19.4637
18.5787
18.5779
18.5777
18.5977
18.8192
20.7506
22.7817
22.7812
22.7807
20.8002
20.0398
25.7115
29.1428
29.1456
29.1434
29.1452
29.1417
25.8817
13.3161
13.316
13.7349
21.3792
26.0236
27.4355
27.4351
24.3271
21.6042
19.5519
14.0506
6.85905
3.14283
2.32789
2.32762
2.81007
9.30691
29.9521
47.7178
37.4985
23.8765
19.2692
19.0714
19.071
19.4396
18.6949
20.2909
22.2711
22.2743
22.2705
22.2727
22.2698
22.2707
22.2689
13.1939
13.193
13.1931
13.1915
13.193
13.1921
22.1714
26.6211
26.6173
26.6195
26.6166
26.6175
26.6158
24.0873
20.0907
20.04
20.0381
20.0395
20.0375
21.1429
20.7646
21.0347
21.272
21.2717
19.6958
19.2561
21.8064
21.8041
21.8062
21.8036
21.8056
21.8029
21.8014
9.79474
9.79491
9.79511
18.092
30.0988
30.0984
30.0984
28.2974
22.496
18.5064
18.4422
18.4433
18.4418
19.662
22.3451
21.7768
19.2115
17.1928
17.5556
21.155
21.938
21.9212
20.3216
18.082
18.0819
19.2642
23.0862
23.0824
23.085
23.0819
23.0824
17.3365
17.3362
13.7523
13.7522
19.422
22.1397
18.8947
20.9589
27.4623
29.3269
29.3268
26.5095
21.4135
20.0714
21.3919
23.5138
21.3587
17.3143
16.3876
16.3859
16.3869
16.3857
15.9748
13.1746
11.971
13.9179
20.3136
28.3888
36.9949
37.0043
28.3291
23.7883
23.7873
23.7862
23.1595
23.0819
16.2326
16.233
20.1111
25.6042
22.6693
19.5455
19.5455
19.5454
22.7329
28.3804
28.3801
22.181
18.7713
18.7713
19.0039
23.7711
23.7712
23.7711
21.7181
20.8023
21.7371
23.0227
23.0228
21.2481
18.0757
18.472
21.5144
23.9427
23.9439
23.9412
23.9422
22.3354
22.3343
14.8315
14.8314
22.7841
33.8985
33.516
28.069
24.5227
22.8631
22.2159
20.9424
20.9373
20.9424
22.2495
22.1922
19.2414
19.2394
19.2414
23.2375
25.5329
25.5292
25.53
21.7717
21.7623
22.6294
23.0355
23.0358
21.0849
19.3271
21.6596
23.4628
23.462
23.4618
23.4603
15.3928
15.3928
16.1611
32.9766
35.4444
35.4444
35.4465
28.2881
23.0912
23.0909
23.0909
22.8322
22.1753
22.1738
24.2211
24.2206
24.2205
21.0499
19.0963
19.0967
19.0953
19.0958
19.0947
22.0282
22.0284
22.0287
17.9399
16.4552
18.9286
17.6419
18.421
33.0764
81.7632
26.4586
20.6754
20.4275
20.3525
20.9828
22.1701
21.0978
21.3407
21.3398
19.8188
20.6191
20.3774
20.0619
20.4289
20.515
20.5122
20.1677
20.1281
20.1272
20.3123
20.3114
22.0154
22.0464
22.0456
21.774
21.4398
19.9554
19.9546
23.1224
22.4737
20.5621
20.5613
20.3631
20.1953
18.1539
17.9896
17.9888
18.0961
20.7753
24.5226
24.5216
22.4171
21.8598
21.859
21.4315
20.0137
20.0129
20.0114
20.0874
19.9572
19.8183
19.3344
19.3336
19.316
19.083
19.7918
19.8654
19.4851
19.0799
19.1151
19.6026
20.2528
20.252
20.3788
23.4123
24.6541
20.6318
15.4284
17.9976
18.1606
19.3199
23.4709
24.5236
24.5227
22.3318
21.2507
19.909
19.9083
19.9075
19.9068
21.7969
20.4056
20.4048
21.2156
21.2149
20.9688
19.5329
19.5322
22.3225
22.4774
22.7973
22.7966
22.7256
20.0708
18.0024
17.3145
17.2665
17.2659
17.2651
17.2645
17.2065
17.0208
24.7242
25.206
25.2928
25.4463
25.4455
22.1571
19.3477
18.8253
18.8247