/*--------------------------------*- C++ -*----------------------------------*\
  =========                 |
  \\      /  F ield         | OpenFOAM: The Open Source CFD Toolbox
   \\    /   O peration     | Website:  https://openfoam.org
    \\  /    A nd           | Version:  7
     \\/     M anipulation  |
\*---------------------------------------------------------------------------*/
FoamFile
{
    version     2.0;
    format      ascii;
    class       volScalarField;
    location    "5500";
    object      T;
}
// * * * * * * * * * * * * * * * * * * * * * * * * * * * * * * * * * * * * * //

dimensions      [0 0 0 1 0 0 0];

internalField   nonuniform List<scalar> 
160000
(
300.046
300.139
300.231
300.323
300.418
300.513
300.606
300.699
300.789
300.884
300.98
301.073
301.167
301.265
301.359
301.452
301.543
301.635
301.73
301.826
301.919
302.01
302.101
302.193
302.284
302.375
302.47
302.565
302.658
302.751
302.839
302.928
303.02
303.111
303.199
303.289
303.382
303.475
303.564
303.653
303.743
303.831
303.921
304.01
304.1
304.193
304.283
304.368
304.453
304.54
304.626
304.716
304.807
304.895
304.983
305.071
305.158
305.244
305.325
305.408
305.496
305.583
305.666
305.747
305.827
305.91
305.995
306.08
306.163
306.24
306.323
306.408
306.49
306.572
306.652
306.732
306.811
306.889
306.968
307.048
307.126
307.207
307.287
307.363
307.441
307.52
307.597
307.671
307.745
307.821
307.895
307.969
308.047
308.123
308.197
308.268
308.338
308.41
308.481
308.55
308.62
308.69
308.76
308.833
308.902
308.972
309.04
309.108
309.177
309.245
309.313
309.378
309.443
309.508
309.572
309.636
309.7
309.764
309.83
309.896
309.959
310.02
310.081
310.142
310.204
310.266
310.329
310.388
310.445
310.504
310.561
310.616
310.673
310.734
310.795
310.852
310.908
310.964
311.018
311.07
311.124
311.18
311.233
311.285
311.341
311.395
311.446
311.498
311.548
311.597
311.646
311.695
311.743
311.792
311.84
311.887
311.936
311.984
312.031
312.078
312.124
312.169
312.213
312.258
312.3
312.343
312.388
312.432
312.475
312.517
312.56
312.602
312.642
312.682
312.722
312.761
312.8
312.838
312.877
312.917
312.954
312.991
313.028
313.063
313.099
313.135
313.171
313.207
313.242
313.278
313.313
313.345
313.375
313.407
313.439
313.471
313.503
313.539
313.573
313.603
313.633
313.661
313.689
313.717
313.746
313.776
313.805
313.833
313.859
313.885
313.91
313.935
313.96
313.984
314.009
314.033
314.056
314.079
314.103
314.127
314.151
314.174
314.195
314.215
314.236
314.257
314.279
314.299
314.32
314.34
314.36
314.378
314.398
314.417
314.436
314.454
314.473
314.49
314.508
314.524
314.541
314.558
314.575
314.592
314.609
314.626
314.645
314.663
314.679
314.694
314.708
314.722
314.735
314.748
314.76
314.773
314.786
314.799
314.811
314.825
314.838
314.851
314.862
314.874
314.885
314.896
314.908
314.919
314.929
314.941
314.952
314.961
314.971
314.98
314.989
314.998
315.007
315.017
315.026
315.035
315.043
315.051
315.059
315.067
315.075
315.083
315.09
315.097
315.104
315.111
315.118
315.125
315.131
315.138
315.145
315.151
315.158
315.164
315.17
315.176
315.183
315.19
315.196
315.201
315.206
315.21
315.215
315.219
315.223
315.228
315.232
315.236
315.24
315.245
315.249
315.253
315.257
315.26
315.264
315.267
315.27
315.274
315.277
315.28
315.284
315.287
315.29
315.293
315.296
315.298
315.301
315.303
315.306
315.308
315.311
315.313
315.315
315.317
315.319
315.322
315.323
315.325
315.327
315.329
315.331
315.332
315.334
315.336
315.337
315.339
315.34
315.341
315.343
315.344
315.345
315.347
315.348
315.349
315.35
315.351
315.352
315.353
315.354
315.355
315.356
315.357
315.357
315.358
315.359
315.36
315.36
315.361
315.362
315.362
315.363
315.363
315.364
315.364
315.365
315.365
315.366
315.366
315.366
315.367
315.367
315.367
315.368
315.368
315.368
315.368
315.369
315.369
315.369
315.369
315.369
315.369
315.37
315.37
315.37
315.37
300.048
300.14
300.231
300.324
300.418
300.511
300.605
300.699
300.791
300.884
300.98
301.074
301.167
301.261
301.358
301.452
301.542
301.635
301.732
301.827
301.92
302.011
302.103
302.195
302.284
302.373
302.468
302.564
302.658
302.75
302.84
302.929
303.02
303.111
303.199
303.289
303.384
303.473
303.561
303.653
303.744
303.832
303.921
304.01
304.099
304.192
304.282
304.367
304.453
304.541
304.629
304.718
304.806
304.895
304.983
305.068
305.156
305.242
305.326
305.41
305.496
305.582
305.666
305.747
305.828
305.912
305.994
306.077
306.16
306.242
306.326
306.409
306.491
306.571
306.651
306.731
306.811
306.889
306.968
307.048
307.128
307.207
307.285
307.362
307.44
307.52
307.597
307.672
307.746
307.821
307.897
307.971
308.047
308.123
308.196
308.267
308.338
308.409
308.48
308.55
308.62
308.69
308.76
308.832
308.904
308.973
309.041
309.109
309.177
309.245
309.313
309.378
309.443
309.507
309.571
309.636
309.7
309.765
309.83
309.895
309.959
310.021
310.082
310.143
310.205
310.266
310.327
310.387
310.445
310.504
310.56
310.616
310.674
310.735
310.795
310.851
310.908
310.965
311.018
311.07
311.124
311.179
311.233
311.287
311.341
311.394
311.446
311.498
311.548
311.596
311.646
311.695
311.743
311.791
311.84
311.889
311.936
311.984
312.031
312.077
312.123
312.169
312.214
312.258
312.3
312.343
312.387
312.431
312.475
312.519
312.561
312.602
312.642
312.682
312.722
312.761
312.8
312.839
312.878
312.916
312.954
312.991
313.027
313.063
313.099
313.136
313.172
313.207
313.242
313.279
313.314
313.345
313.375
313.406
313.438
313.47
313.504
313.54
313.573
313.603
313.632
313.661
313.689
313.718
313.747
313.777
313.805
313.833
313.859
313.885
313.91
313.935
313.96
313.985
314.009
314.033
314.056
314.08
314.103
314.127
314.15
314.173
314.194
314.215
314.237
314.258
314.279
314.299
314.32
314.34
314.36
314.378
314.398
314.417
314.436
314.454
314.472
314.49
314.507
314.524
314.541
314.558
314.574
314.592
314.609
314.626
314.645
314.663
314.679
314.694
314.708
314.721
314.734
314.748
314.761
314.774
314.786
314.799
314.812
314.825
314.838
314.85
314.862
314.873
314.885
314.896
314.908
314.919
314.93
314.941
314.952
314.961
314.971
314.98
314.989
314.998
315.008
315.017
315.026
315.035
315.043
315.051
315.059
315.067
315.075
315.083
315.09
315.097
315.104
315.111
315.118
315.124
315.131
315.138
315.145
315.151
315.158
315.164
315.17
315.177
315.184
315.19
315.196
315.201
315.205
315.21
315.215
315.219
315.223
315.228
315.232
315.236
315.24
315.245
315.249
315.253
315.256
315.26
315.263
315.267
315.27
315.274
315.277
315.28
315.284
315.287
315.29
315.293
315.296
315.298
315.301
315.303
315.306
315.308
315.311
315.313
315.315
315.317
315.319
315.321
315.323
315.325
315.327
315.329
315.331
315.332
315.334
315.336
315.337
315.339
315.34
315.341
315.343
315.344
315.345
315.347
315.348
315.349
315.35
315.351
315.352
315.353
315.354
315.355
315.356
315.357
315.357
315.358
315.359
315.36
315.36
315.361
315.362
315.362
315.363
315.363
315.364
315.364
315.365
315.365
315.366
315.366
315.366
315.367
315.367
315.367
315.368
315.368
315.368
315.368
315.369
315.369
315.369
315.369
315.369
315.369
315.37
315.37
315.37
315.37
300.047
300.138
300.231
300.324
300.418
300.512
300.604
300.7
300.792
300.884
300.98
301.074
301.166
301.259
301.356
301.451
301.544
301.639
301.732
301.827
301.921
302.013
302.105
302.195
302.285
302.376
302.468
302.562
302.657
302.749
302.838
302.928
303.019
303.111
303.201
303.29
303.383
303.472
303.56
303.651
303.743
303.834
303.923
304.011
304.101
304.193
304.28
304.365
304.452
304.542
304.632
304.72
304.806
304.893
304.981
305.067
305.155
305.241
305.327
305.412
305.495
305.581
305.666
305.747
305.828
305.912
305.996
306.078
306.16
306.244
306.326
306.408
306.491
306.571
306.651
306.731
306.811
306.89
306.97
307.049
307.127
307.206
307.285
307.362
307.439
307.518
307.596
307.673
307.748
307.822
307.898
307.973
308.047
308.122
308.195
308.265
308.336
308.407
308.479
308.549
308.619
308.69
308.761
308.832
308.904
308.974
309.043
309.11
309.177
309.245
309.312
309.378
309.443
309.507
309.571
309.636
309.7
309.766
309.831
309.895
309.958
310.02
310.082
310.144
310.205
310.266
310.327
310.386
310.445
310.503
310.56
310.617
310.676
310.735
310.793
310.851
310.907
310.964
311.018
311.071
311.125
311.18
311.233
311.287
311.341
311.394
311.446
311.497
311.547
311.596
311.646
311.695
311.743
311.792
311.841
311.889
311.937
311.985
312.031
312.077
312.123
312.169
312.214
312.258
312.3
312.343
312.386
312.43
312.475
312.519
312.562
312.602
312.642
312.682
312.721
312.76
312.799
312.839
312.878
312.916
312.953
312.99
313.026
313.063
313.099
313.136
313.172
313.208
313.245
313.282
313.314
313.345
313.375
313.406
313.438
313.47
313.504
313.539
313.571
313.602
313.631
313.66
313.689
313.719
313.748
313.777
313.805
313.832
313.858
313.885
313.91
313.935
313.96
313.985
314.009
314.033
314.057
314.08
314.103
314.126
314.149
314.172
314.194
314.216
314.237
314.258
314.279
314.299
314.32
314.34
314.359
314.379
314.398
314.417
314.436
314.454
314.472
314.49
314.507
314.524
314.541
314.558
314.575
314.592
314.609
314.627
314.646
314.664
314.68
314.694
314.707
314.721
314.734
314.747
314.761
314.774
314.787
314.8
314.812
314.825
314.838
314.85
314.862
314.873
314.885
314.896
314.908
314.919
314.93
314.941
314.951
314.961
314.971
314.98
314.989
314.998
315.008
315.017
315.027
315.035
315.043
315.051
315.059
315.067
315.075
315.083
315.09
315.097
315.104
315.111
315.118
315.124
315.131
315.138
315.145
315.152
315.159
315.165
315.171
315.178
315.184
315.19
315.195
315.2
315.205
315.21
315.215
315.219
315.223
315.228
315.232
315.236
315.241
315.245
315.249
315.253
315.256
315.26
315.263
315.267
315.27
315.274
315.277
315.281
315.284
315.287
315.29
315.293
315.296
315.298
315.301
315.303
315.306
315.308
315.311
315.313
315.315
315.317
315.319
315.321
315.323
315.325
315.327
315.329
315.331
315.332
315.334
315.336
315.337
315.339
315.34
315.341
315.343
315.344
315.345
315.347
315.348
315.349
315.35
315.351
315.352
315.353
315.354
315.355
315.356
315.357
315.357
315.358
315.359
315.36
315.36
315.361
315.362
315.362
315.363
315.363
315.364
315.364
315.365
315.365
315.366
315.366
315.366
315.367
315.367
315.367
315.368
315.368
315.368
315.368
315.369
315.369
315.369
315.369
315.369
315.369
315.37
315.37
315.37
315.37
300.046
300.138
300.231
300.325
300.419
300.514
300.606
300.7
300.794
300.888
300.981
301.072
301.165
301.259
301.355
301.45
301.543
301.638
301.732
301.827
301.92
302.013
302.105
302.194
302.287
302.378
302.468
302.563
302.657
302.748
302.837
302.927
303.017
303.109
303.201
303.292
303.383
303.471
303.559
303.651
303.744
303.835
303.924
304.012
304.101
304.191
304.279
304.365
304.453
304.542
304.632
304.722
304.807
304.893
304.982
305.068
305.154
305.24
305.325
305.411
305.495
305.581
305.665
305.746
305.827
305.91
305.994
306.078
306.162
306.246
306.327
306.407
306.489
306.57
306.652
306.734
306.813
306.891
306.971
307.048
307.126
307.206
307.284
307.36
307.438
307.517
307.595
307.673
307.749
307.824
307.898
307.973
308.048
308.121
308.194
308.266
308.337
308.406
308.476
308.548
308.619
308.689
308.761
308.833
308.904
308.975
309.044
309.111
309.178
309.245
309.311
309.377
309.442
309.507
309.571
309.635
309.7
309.766
309.832
309.895
309.958
310.02
310.082
310.143
310.204
310.267
310.328
310.387
310.445
310.503
310.56
310.618
310.676
310.734
310.793
310.85
310.907
310.964
311.019
311.073
311.126
311.18
311.232
311.286
311.34
311.394
311.446
311.497
311.546
311.596
311.646
311.695
311.744
311.792
311.841
311.889
311.937
311.985
312.031
312.077
312.123
312.169
312.215
312.258
312.3
312.342
312.385
312.43
312.475
312.52
312.562
312.602
312.642
312.682
312.721
312.76
312.799
312.838
312.876
312.915
312.953
312.99
313.026
313.063
313.101
313.138
313.175
313.212
313.248
313.281
313.313
313.344
313.375
313.407
313.439
313.471
313.503
313.537
313.569
313.601
313.63
313.659
313.689
313.719
313.749
313.777
313.805
313.832
313.858
313.884
313.91
313.935
313.96
313.985
314.009
314.033
314.057
314.08
314.103
314.126
314.149
314.172
314.194
314.216
314.238
314.259
314.279
314.3
314.32
314.34
314.359
314.379
314.397
314.416
314.435
314.454
314.472
314.49
314.507
314.524
314.541
314.558
314.575
314.592
314.61
314.629
314.648
314.664
314.679
314.693
314.707
314.72
314.734
314.747
314.761
314.774
314.787
314.8
314.813
314.825
314.837
314.849
314.861
314.873
314.885
314.896
314.907
314.919
314.93
314.941
314.951
314.961
314.971
314.98
314.989
314.999
315.008
315.018
315.027
315.035
315.043
315.051
315.059
315.067
315.075
315.082
315.09
315.097
315.104
315.111
315.117
315.124
315.131
315.138
315.146
315.153
315.16
315.165
315.171
315.177
315.183
315.189
315.195
315.2
315.205
315.21
315.214
315.219
315.223
315.228
315.232
315.236
315.241
315.245
315.249
315.253
315.256
315.26
315.263
315.267
315.271
315.274
315.277
315.281
315.284
315.287
315.29
315.293
315.296
315.298
315.301
315.303
315.306
315.308
315.311
315.313
315.315
315.317
315.319
315.321
315.323
315.325
315.327
315.329
315.331
315.332
315.334
315.336
315.337
315.339
315.34
315.341
315.343
315.344
315.345
315.347
315.348
315.349
315.35
315.351
315.352
315.353
315.354
315.355
315.356
315.357
315.357
315.358
315.359
315.36
315.36
315.361
315.362
315.362
315.363
315.363
315.364
315.364
315.365
315.365
315.366
315.366
315.366
315.367
315.367
315.367
315.368
315.368
315.368
315.368
315.369
315.369
315.369
315.369
315.369
315.369
315.37
315.37
315.37
315.37
300.046
300.137
300.231
300.327
300.42
300.515
300.607
300.701
300.795
300.888
300.981
301.07
301.162
301.261
301.358
301.449
301.542
301.636
301.731
301.828
301.922
302.015
302.105
302.195
302.287
302.377
302.467
302.562
302.656
302.747
302.839
302.928
303.016
303.108
303.201
303.291
303.38
303.47
303.562
303.654
303.745
303.835
303.925
304.012
304.1
304.189
304.277
304.364
304.454
304.544
304.633
304.721
304.808
304.894
304.981
305.068
305.154
305.24
305.326
305.411
305.495
305.58
305.664
305.746
305.826
305.909
305.993
306.077
306.162
306.246
306.328
306.408
306.49
306.572
306.653
306.735
306.814
306.892
306.97
307.049
307.127
307.205
307.283
307.36
307.438
307.517
307.595
307.672
307.749
307.824
307.898
307.972
308.047
308.121
308.194
308.265
308.337
308.407
308.476
308.547
308.618
308.689
308.761
308.833
308.905
308.976
309.044
309.111
309.178
309.245
309.311
309.375
309.441
309.508
309.573
309.636
309.699
309.764
309.831
309.894
309.957
310.02
310.082
310.143
310.206
310.268
310.328
310.387
310.446
310.504
310.561
310.618
310.676
310.733
310.791
310.85
310.907
310.963
311.019
311.074
311.127
311.18
311.233
311.286
311.34
311.393
311.445
311.496
311.546
311.596
311.646
311.695
311.744
311.793
311.842
311.89
311.937
311.984
312.03
312.076
312.124
312.17
312.216
312.259
312.3
312.342
312.385
312.43
312.475
312.52
312.562
312.602
312.641
312.681
312.721
312.76
312.798
312.837
312.875
312.913
312.952
312.99
313.027
313.066
313.104
313.142
313.178
313.213
313.247
313.28
313.312
313.344
313.376
313.408
313.44
313.471
313.503
313.536
313.568
313.599
313.629
313.658
313.688
313.719
313.749
313.777
313.805
313.831
313.858
313.884
313.91
313.935
313.961
313.985
314.009
314.033
314.057
314.08
314.103
314.126
314.149
314.171
314.194
314.216
314.238
314.259
314.279
314.3
314.32
314.34
314.359
314.378
314.397
314.416
314.435
314.454
314.472
314.49
314.507
314.525
314.542
314.559
314.576
314.594
314.612
314.63
314.648
314.663
314.678
314.692
314.706
314.72
314.734
314.747
314.761
314.774
314.787
314.8
314.813
314.825
314.837
314.849
314.861
314.873
314.885
314.896
314.907
314.919
314.93
314.941
314.952
314.961
314.971
314.98
314.989
314.999
315.009
315.018
315.026
315.035
315.043
315.051
315.059
315.067
315.075
315.082
315.09
315.097
315.104
315.111
315.117
315.124
315.132
315.14
315.147
315.154
315.16
315.166
315.171
315.177
315.183
315.189
315.194
315.2
315.205
315.21
315.214
315.219
315.223
315.228
315.232
315.236
315.241
315.245
315.249
315.253
315.256
315.26
315.263
315.267
315.271
315.274
315.278
315.281
315.284
315.287
315.29
315.293
315.296
315.298
315.301
315.303
315.306
315.308
315.311
315.313
315.315
315.317
315.32
315.321
315.323
315.325
315.327
315.329
315.331
315.332
315.334
315.336
315.337
315.339
315.34
315.341
315.343
315.344
315.345
315.347
315.348
315.349
315.35
315.351
315.352
315.353
315.354
315.355
315.356
315.357
315.357
315.358
315.359
315.36
315.36
315.361
315.362
315.362
315.363
315.363
315.364
315.364
315.365
315.365
315.366
315.366
315.366
315.367
315.367
315.367
315.368
315.368
315.368
315.369
315.369
315.369
315.369
315.369
315.369
315.369
315.37
315.37
315.37
315.37
300.045
300.135
300.229
300.326
300.42
300.515
300.61
300.703
300.795
300.886
300.98
301.071
301.164
301.261
301.357
301.451
301.544
301.636
301.729
301.824
301.921
302.015
302.107
302.196
302.286
302.379
302.47
302.561
302.653
302.747
302.839
302.928
303.017
303.107
303.199
303.291
303.38
303.471
303.563
303.655
303.746
303.835
303.924
304.011
304.1
304.189
304.277
304.364
304.452
304.543
304.634
304.721
304.807
304.895
304.981
305.067
305.154
305.24
305.325
305.41
305.495
305.579
305.663
305.745
305.826
305.91
305.994
306.077
306.161
306.246
306.329
306.411
306.493
306.574
306.653
306.734
306.815
306.893
306.971
307.048
307.127
307.205
307.283
307.36
307.438
307.516
307.594
307.672
307.749
307.824
307.897
307.971
308.047
308.122
308.194
308.265
308.336
308.407
308.477
308.547
308.616
308.688
308.761
308.835
308.907
308.976
309.043
309.109
309.177
309.246
309.311
309.376
309.44
309.507
309.573
309.636
309.699
309.763
309.829
309.894
309.957
310.02
310.082
310.144
310.207
310.268
310.328
310.388
310.446
310.504
310.561
310.619
310.676
310.732
310.79
310.85
310.908
310.965
311.02
311.074
311.127
311.18
311.233
311.287
311.34
311.392
311.444
311.495
311.546
311.596
311.645
311.695
311.745
311.794
311.843
311.89
311.936
311.983
312.03
312.077
312.125
312.172
312.216
312.259
312.301
312.343
312.386
312.43
312.475
312.519
312.561
312.601
312.641
312.681
312.721
312.759
312.798
312.836
312.874
312.912
312.951
312.989
313.028
313.068
313.108
313.146
313.18
313.214
313.246
313.278
313.311
313.343
313.376
313.409
313.44
313.472
313.504
313.535
313.567
313.598
313.628
313.658
313.688
313.718
313.748
313.777
313.805
313.831
313.858
313.884
313.91
313.935
313.96
313.985
314.009
314.033
314.057
314.08
314.104
314.127
314.149
314.171
314.193
314.216
314.238
314.259
314.28
314.3
314.32
314.34
314.359
314.378
314.397
314.416
314.435
314.454
314.472
314.49
314.508
314.526
314.543
314.56
314.577
314.595
314.613
314.63
314.647
314.663
314.677
314.691
314.705
314.719
314.733
314.747
314.761
314.774
314.787
314.8
314.813
314.825
314.837
314.85
314.861
314.873
314.884
314.896
314.907
314.919
314.931
314.942
314.952
314.961
314.971
314.98
314.99
314.999
315.009
315.018
315.026
315.035
315.043
315.051
315.059
315.067
315.075
315.082
315.09
315.097
315.104
315.111
315.118
315.125
315.133
315.141
315.147
315.154
315.16
315.165
315.171
315.177
315.183
315.189
315.194
315.2
315.205
315.21
315.214
315.219
315.223
315.228
315.232
315.237
315.241
315.245
315.249
315.253
315.256
315.26
315.264
315.267
315.271
315.274
315.277
315.281
315.284
315.287
315.29
315.293
315.296
315.298
315.301
315.303
315.306
315.308
315.311
315.313
315.315
315.317
315.32
315.321
315.323
315.325
315.327
315.329
315.331
315.332
315.334
315.336
315.337
315.339
315.34
315.341
315.343
315.344
315.345
315.347
315.348
315.349
315.35
315.351
315.352
315.353
315.354
315.355
315.356
315.357
315.357
315.358
315.359
315.36
315.36
315.361
315.362
315.362
315.363
315.363
315.364
315.364
315.365
315.365
315.366
315.366
315.366
315.367
315.367
315.367
315.368
315.368
315.368
315.369
315.369
315.369
315.369
315.369
315.369
315.369
315.37
315.37
315.37
315.37
300.045
300.136
300.229
300.323
300.418
300.514
300.61
300.704
300.796
300.888
300.98
301.072
301.167
301.263
301.357
301.451
301.543
301.637
301.729
301.822
301.92
302.014
302.105
302.194
302.286
302.379
302.471
302.563
302.654
302.747
302.839
302.929
303.018
303.107
303.198
303.289
303.382
303.473
303.564
303.654
303.744
303.835
303.924
304.012
304.101
304.19
304.277
304.364
304.453
304.543
304.633
304.721
304.807
304.895
304.981
305.067
305.153
305.239
305.324
305.409
305.493
305.577
305.662
305.746
305.828
305.909
305.993
306.079
306.164
306.246
306.328
306.412
306.495
306.575
306.654
306.734
306.814
306.893
306.971
307.049
307.127
307.205
307.282
307.36
307.439
307.516
307.594
307.672
307.748
307.824
307.897
307.971
308.046
308.121
308.193
308.263
308.335
308.408
308.478
308.547
308.617
308.689
308.763
308.836
308.907
308.976
309.043
309.109
309.177
309.245
309.311
309.375
309.44
309.507
309.572
309.636
309.699
309.764
309.829
309.894
309.958
310.02
310.081
310.144
310.207
310.268
310.327
310.388
310.447
310.505
310.561
310.618
310.675
310.732
310.79
310.851
310.909
310.967
311.021
311.074
311.127
311.18
311.233
311.287
311.34
311.392
311.444
311.495
311.545
311.595
311.645
311.696
311.745
311.795
311.844
311.89
311.936
311.983
312.03
312.078
312.126
312.172
312.215
312.258
312.301
312.344
312.386
312.43
312.474
312.518
312.56
312.601
312.641
312.681
312.721
312.759
312.797
312.835
312.873
312.911
312.95
312.988
313.027
313.07
313.113
313.149
313.182
313.214
313.246
313.278
313.311
313.343
313.376
313.408
313.441
313.472
313.504
313.536
313.567
313.598
313.627
313.657
313.687
313.717
313.747
313.776
313.805
313.832
313.858
313.884
313.91
313.935
313.96
313.985
314.009
314.033
314.057
314.08
314.104
314.127
314.149
314.171
314.193
314.215
314.238
314.259
314.28
314.3
314.32
314.34
314.359
314.378
314.397
314.416
314.435
314.454
314.473
314.491
314.509
314.527
314.544
314.561
314.578
314.596
314.613
314.63
314.646
314.662
314.677
314.691
314.705
314.719
314.733
314.747
314.761
314.774
314.787
314.8
314.813
314.825
314.838
314.85
314.861
314.873
314.884
314.896
314.908
314.919
314.931
314.941
314.952
314.961
314.971
314.98
314.99
314.999
315.009
315.018
315.026
315.035
315.043
315.051
315.059
315.067
315.075
315.082
315.09
315.097
315.104
315.111
315.118
315.126
315.134
315.141
315.148
315.154
315.159
315.165
315.171
315.177
315.183
315.189
315.194
315.199
315.205
315.209
315.214
315.219
315.223
315.228
315.232
315.237
315.241
315.245
315.249
315.253
315.256
315.26
315.264
315.267
315.271
315.274
315.277
315.281
315.284
315.287
315.29
315.293
315.296
315.298
315.301
315.303
315.306
315.308
315.311
315.313
315.315
315.318
315.32
315.321
315.323
315.325
315.327
315.329
315.331
315.332
315.334
315.336
315.337
315.339
315.34
315.341
315.343
315.344
315.345
315.347
315.348
315.349
315.35
315.351
315.352
315.353
315.354
315.355
315.356
315.357
315.357
315.358
315.359
315.36
315.36
315.361
315.362
315.362
315.363
315.363
315.364
315.364
315.365
315.365
315.366
315.366
315.366
315.367
315.367
315.367
315.368
315.368
315.368
315.369
315.369
315.369
315.369
315.369
315.369
315.369
315.37
315.37
315.37
315.37
300.045
300.137
300.229
300.322
300.418
300.514
300.608
300.703
300.797
300.89
300.982
301.073
301.167
301.263
301.357
301.449
301.543
301.639
301.731
301.823
301.917
302.011
302.103
302.195
302.286
302.377
302.472
302.565
302.655
302.748
302.839
302.928
303.016
303.108
303.2
303.291
303.382
303.471
303.562
303.654
303.744
303.834
303.923
304.012
304.101
304.19
304.277
304.365
304.455
304.544
304.632
304.72
304.807
304.894
304.98
305.066
305.152
305.237
305.323
305.409
305.494
305.578
305.662
305.746
305.828
305.91
305.994
306.081
306.166
306.248
306.33
306.414
306.496
306.575
306.654
306.734
306.814
306.892
306.97
307.048
307.127
307.205
307.283
307.361
307.439
307.516
307.593
307.672
307.749
307.823
307.896
307.97
308.045
308.119
308.192
308.264
308.335
308.406
308.478
308.549
308.619
308.691
308.764
308.835
308.905
308.974
309.042
309.109
309.177
309.244
309.31
309.375
309.441
309.506
309.571
309.635
309.7
309.765
309.83
309.893
309.957
310.019
310.081
310.144
310.208
310.268
310.326
310.386
310.447
310.505
310.561
310.617
310.674
310.733
310.793
310.852
310.91
310.966
311.02
311.073
311.127
311.181
311.233
311.286
311.34
311.392
311.443
311.493
311.544
311.595
311.645
311.695
311.745
311.796
311.845
311.891
311.937
311.984
312.031
312.078
312.126
312.171
312.214
312.258
312.301
312.344
312.386
312.429
312.475
312.518
312.56
312.601
312.641
312.682
312.721
312.758
312.796
312.834
312.872
312.91
312.949
312.988
313.03
313.074
313.115
313.15
313.182
313.213
313.246
313.278
313.311
313.343
313.376
313.408
313.441
313.473
313.504
313.536
313.567
313.597
313.627
313.657
313.687
313.716
313.746
313.775
313.804
313.832
313.858
313.884
313.91
313.935
313.96
313.984
314.009
314.033
314.057
314.08
314.104
314.127
314.149
314.171
314.193
314.215
314.238
314.259
314.28
314.3
314.32
314.34
314.359
314.378
314.397
314.416
314.436
314.455
314.474
314.492
314.51
314.528
314.545
314.562
314.579
314.596
314.613
314.63
314.646
314.661
314.676
314.691
314.705
314.719
314.733
314.747
314.76
314.774
314.787
314.8
314.813
314.826
314.838
314.85
314.861
314.873
314.885
314.896
314.908
314.919
314.93
314.941
314.951
314.961
314.971
314.98
314.99
314.999
315.009
315.017
315.026
315.035
315.043
315.051
315.059
315.067
315.075
315.082
315.09
315.097
315.104
315.111
315.119
315.126
315.134
315.141
315.147
315.153
315.159
315.165
315.171
315.177
315.183
315.189
315.194
315.199
315.204
315.209
315.214
315.219
315.223
315.228
315.232
315.237
315.241
315.245
315.249
315.253
315.256
315.26
315.264
315.267
315.271
315.274
315.277
315.281
315.284
315.287
315.29
315.293
315.295
315.298
315.301
315.303
315.306
315.308
315.311
315.313
315.315
315.318
315.32
315.322
315.323
315.325
315.327
315.329
315.331
315.332
315.334
315.336
315.337
315.339
315.34
315.341
315.343
315.344
315.345
315.347
315.348
315.349
315.35
315.351
315.352
315.353
315.354
315.355
315.356
315.357
315.357
315.358
315.359
315.36
315.36
315.361
315.362
315.362
315.363
315.363
315.364
315.364
315.365
315.365
315.366
315.366
315.366
315.367
315.367
315.367
315.368
315.368
315.368
315.369
315.369
315.369
315.369
315.369
315.369
315.369
315.37
315.37
315.37
315.37
300.046
300.137
300.229
300.323
300.417
300.513
300.609
300.702
300.796
300.888
300.982
301.075
301.17
301.265
301.358
301.449
301.544
301.639
301.73
301.822
301.916
302.01
302.103
302.196
302.287
302.379
302.472
302.565
302.656
302.747
302.838
302.927
303.017
303.108
303.2
303.291
303.381
303.47
303.562
303.655
303.746
303.834
303.922
304.011
304.101
304.19
304.278
304.366
304.455
304.545
304.632
304.718
304.806
304.894
304.98
305.065
305.151
305.236
305.322
305.409
305.494
305.578
305.662
305.746
305.829
305.912
305.995
306.08
306.166
306.249
306.331
306.414
306.495
306.575
306.655
306.735
306.814
306.891
306.968
307.048
307.128
307.206
307.283
307.361
307.439
307.516
307.593
307.672
307.749
307.824
307.897
307.97
308.044
308.118
308.19
308.263
308.334
308.406
308.478
308.549
308.619
308.691
308.764
308.836
308.906
308.975
309.042
309.109
309.176
309.241
309.308
309.374
309.441
309.507
309.572
309.636
309.701
309.765
309.829
309.893
309.957
310.02
310.082
310.144
310.207
310.268
310.328
310.387
310.445
310.503
310.56
310.618
310.675
310.733
310.792
310.852
310.911
310.966
311.02
311.073
311.128
311.182
311.234
311.286
311.338
311.39
311.442
311.494
311.544
311.595
311.645
311.695
311.745
311.795
311.844
311.892
311.939
311.985
312.032
312.079
312.125
312.17
312.215
312.259
312.302
312.343
312.385
312.428
312.473
312.518
312.56
312.601
312.642
312.682
312.72
312.758
312.797
312.835
312.872
312.91
312.95
312.992
313.034
313.076
313.114
313.148
313.18
313.213
313.246
313.278
313.311
313.344
313.376
313.409
313.441
313.473
313.504
313.536
313.567
313.597
313.627
313.657
313.686
313.716
313.745
313.774
313.803
313.831
313.858
313.884
313.909
313.935
313.96
313.984
314.009
314.033
314.056
314.08
314.104
314.127
314.149
314.171
314.193
314.215
314.237
314.259
314.28
314.3
314.32
314.34
314.36
314.379
314.398
314.417
314.436
314.455
314.474
314.493
314.511
314.528
314.545
314.562
314.579
314.596
314.612
314.629
314.645
314.661
314.676
314.691
314.705
314.719
314.733
314.747
314.76
314.774
314.787
314.8
314.813
314.826
314.838
314.85
314.862
314.873
314.885
314.896
314.908
314.919
314.93
314.941
314.951
314.961
314.971
314.981
314.99
314.999
315.008
315.017
315.026
315.035
315.043
315.051
315.059
315.067
315.075
315.082
315.09
315.097
315.105
315.112
315.119
315.127
315.134
315.141
315.147
315.153
315.159
315.165
315.171
315.177
315.183
315.188
315.194
315.199
315.204
315.209
315.214
315.219
315.223
315.228
315.232
315.237
315.241
315.245
315.249
315.253
315.256
315.26
315.264
315.267
315.271
315.274
315.277
315.281
315.284
315.287
315.29
315.293
315.295
315.298
315.301
315.303
315.306
315.308
315.311
315.313
315.315
315.317
315.32
315.321
315.323
315.325
315.327
315.329
315.331
315.332
315.334
315.336
315.337
315.339
315.34
315.341
315.343
315.344
315.345
315.347
315.348
315.349
315.35
315.351
315.352
315.353
315.354
315.355
315.356
315.357
315.357
315.358
315.359
315.36
315.36
315.361
315.362
315.362
315.363
315.363
315.364
315.364
315.365
315.365
315.366
315.366
315.366
315.367
315.367
315.367
315.368
315.368
315.368
315.369
315.369
315.369
315.369
315.369
315.369
315.369
315.37
315.37
315.37
315.37
300.047
300.14
300.231
300.322
300.418
300.514
300.607
300.701
300.795
300.888
300.981
301.075
301.17
301.264
301.358
301.451
301.543
301.638
301.73
301.821
301.915
302.011
302.105
302.196
302.288
302.381
302.472
302.564
302.656
302.747
302.836
302.927
303.018
303.108
303.198
303.29
303.382
303.472
303.561
303.654
303.745
303.833
303.922
304.012
304.101
304.189
304.278
304.367
304.457
304.546
304.632
304.718
304.806
304.894
304.979
305.065
305.151
305.235
305.321
305.408
305.493
305.577
305.662
305.746
305.83
305.914
305.997
306.081
306.166
306.248
306.33
306.413
306.495
306.575
306.655
306.735
306.814
306.891
306.97
307.049
307.127
307.205
307.283
307.362
307.439
307.516
307.593
307.671
307.749
307.823
307.897
307.971
308.045
308.117
308.189
308.261
308.333
308.406
308.478
308.55
308.62
308.693
308.765
308.835
308.905
308.975
309.043
309.109
309.175
309.241
309.307
309.373
309.44
309.507
309.573
309.636
309.7
309.765
309.83
309.893
309.956
310.019
310.082