/*--------------------------------*- C++ -*----------------------------------*\
  =========                 |
  \\      /  F ield         | OpenFOAM: The Open Source CFD Toolbox
   \\    /   O peration     | Website:  https://openfoam.org
    \\  /    A nd           | Version:  7
     \\/     M anipulation  |
\*---------------------------------------------------------------------------*/
FoamFile
{
    version     2.0;
    format      ascii;
    class       volScalarField;
    location    "5";
    object      alpha.wetting;
}
// * * * * * * * * * * * * * * * * * * * * * * * * * * * * * * * * * * * * * //

dimensions      [0 0 0 0 0 0 0];

internalField   nonuniform List<scalar> 
49920
(
-2.08014e-150
-3.92295e-150
-6.53116e-150
1.08339e-157
-3.17183e-162
3.39103e-162
1.51497e-162
-2.03317e-162
-1.22098e-161
7.28247e-160
2.15253e-159
5.54968e-163
8.5243e-166
1.21769e-144
-4.96557e-144
-9.44276e-139
-3.50957e-140
-5.03151e-138
-9.15436e-140
-1.18599e-136
1.74211e-135
1.57975e-135
2.07256e-134
2.07749e-134
1.04239e-134
5.02835e-134
-6.12719e-136
-1.02204e-135
-1.12558e-135
-7.19799e-135
-1.74767e-134
-1.49413e-134
-1.79106e-134
-7.09204e-135
-6.91044e-135
-1.06883e-134
-1.15392e-134
-5.15956e-135
-4.72523e-135
-6.73866e-140
-1.03811e-139
-1.42593e-140
3.4965e-152
2.75849e-140
4.64077e-142
5.79751e-164
2.1976e-158
1.27243e-157
1.98089e-173
3.58231e-203
5.61814e-256
-2.11196e-316
-2.27493e-316
-2.27542e-316
-2.27586e-316
-2.27627e-316
-2.27664e-316
-2.27697e-316
-2.27728e-316
-2.27756e-316
-2.27781e-316
-2.27804e-316
-2.27826e-316
-2.27845e-316
-2.27863e-316
-2.2788e-316
-2.27896e-316
-2.2791e-316
-2.27925e-316
-2.27938e-316
-2.27951e-316
-2.27963e-316
-2.27976e-316
-2.44272e-316
-2.44286e-316
-2.44298e-316
-2.44312e-316
-2.44324e-316
-2.44338e-316
-2.44351e-316
-3.07129e-116
-4.25305e-151
7.68737e-143
-6.36168e-153
-3.40354e-152
-1.29595e-151
1.78887e-151
3.86895e-150
2.94349e-148
-5.75505e-148
9.03324e-152
1.05793e-144
4.99441e-143
-1.16925e-149
3.22823e-137
3.50748e-128
1.96159e-128
0
-5.48656e-137
-5.47544e-132
-2.16048e-131
-3.38352e-131
-2.98977e-130
-1.28417e-129
-6.67426e-131
-1.19656e-131
-8.4933e-131
-1.46193e-130
-2.89277e-130
-5.3254e-130
-8.22985e-130
-1.05289e-129
-1.14992e-129
-9.95779e-130
-5.91263e-130
-1.96313e-130
-2.60125e-131
-2.60118e-132
2.70779e-128
2.72091e-128
1.10203e-128
-1.10081e-133
3.65369e-136
3.97726e-136
-3.70703e-137
-6.94035e-150
-1.82995e-149
2.62839e-157
2.17153e-163
7.43161e-173
3.31301e-198
1.30972e-237
2.40242e-308
-1.85513e-316
-2.0108e-316
-2.01178e-316
-2.01269e-316
-2.01351e-316
-2.01425e-316
-2.01494e-316
-2.01556e-316
-2.17121e-316
-2.17178e-316
-2.1723e-316
-2.17278e-316
-2.17323e-316
-2.17365e-316
-2.17405e-316
-2.17442e-316
-2.17479e-316
-2.17514e-316
-2.17548e-316
-2.17582e-316
-2.17616e-316
-2.33195e-316
-2.33231e-316
-2.33267e-316
-2.33305e-316
-2.33343e-316
-2.33384e-316
-1.01161e-115
-8.74062e-137
9.02686e-137
-3.42269e-139
1.14165e-143
1.14165e-143
8.50897e-144
1.00377e-143
2.60855e-144
-4.07421e-144
-2.43777e-142
2.04599e-140
9.2266e-141
-6.26573e-132
-2.79031e-132
-1.89786e-130
1.23718e-125
3.85276e-125
-2.63892e-127
-5.59822e-129
4.43859e-126
7.13469e-127
-1.20513e-126
-4.13478e-126
-5.52553e-126
1.10207e-142
-6.33442e-128
8.55665e-123
2.20796e-121
2.21045e-121
2.21242e-121
2.21386e-121
2.21469e-121
2.21489e-121
2.21489e-121
2.21487e-121
1.81399e-121
1.68979e-122
-4.16433e-123
4.63609e-128
4.63609e-128
4.59864e-128
-1.08436e-129
-8.90165e-130
3.23132e-132
-3.83954e-147
-6.61446e-147
-9.43875e-149
9.75995e-156
1.28732e-155
1.3019e-170
3.44752e-187
1.88086e-220
2.30511e-289
-1.76689e-316
-1.76819e-316
-1.76939e-316
-1.77048e-316
-1.91909e-316
-1.92008e-316
-1.92098e-316
-1.92181e-316
-1.92257e-316
-1.92328e-316
-1.92393e-316
-2.07259e-316
-2.07321e-316
-2.07381e-316
-2.07437e-316
-2.07492e-316
-2.07545e-316
-2.07597e-316
-2.07649e-316
-2.077e-316
-2.22591e-316
-2.22648e-316
-2.22705e-316
-2.22764e-316
-2.22824e-316
-2.22888e-316
-1.37633e-115
-5.69597e-123
-2.51786e-127
-1.40779e-139
4.00281e-159
7.22917e-146
-4.72541e-135
-2.89351e-142
-1.14966e-136
-5.07565e-134
-1.08526e-134
-7.63869e-136
-5.83384e-130
1.96978e-126
0
-5.63637e-122
-9.39343e-121
-5.83634e-133
1.87031e-121
0
-6.42475e-122
-4.33645e-121
0
1.11334e-119
8.84725e-119
3.22919e-118
9.28964e-118
2.07209e-117
-1.88663e-118
-7.77155e-118
-1.22311e-117
-1.27691e-117
-1.11654e-117
-8.0903e-118
-4.54168e-118
-1.67219e-118
-5.93118e-119
1.20578e-121
-8.1782e-121
-1.49285e-121
-1.0291e-121
-3.38365e-122
-3.78269e-124
-8.02139e-125
1.16854e-131
5.10388e-132
1.23403e-137
-1.13868e-146
-1.61952e-149
6.83396e-151
1.55263e-157
8.36959e-166
2.35968e-179
1.85746e-215
9.98895e-281
-1.54394e-316
-1.68572e-316
-1.68702e-316
-1.6882e-316
-1.68929e-316
-1.83115e-316
-1.83214e-316
-1.83307e-316
-1.83392e-316
-1.83473e-316
-1.83548e-316
-1.97745e-316
-1.97818e-316
-1.97889e-316
-1.97958e-316
-1.98025e-316
-1.98091e-316
-1.98158e-316
-2.12382e-316
-2.12455e-316
-2.12527e-316
-2.12603e-316
-2.1268e-316
-2.1276e-316
-2.27034e-316
-6.78131e-116
-9.46818e-123
-1.19277e-126
-7.00814e-127
-1.79926e-127
-4.28595e-128
-1.18282e-128
-2.5156e-131
-1.76204e-130
-9.66514e-127
-2.91782e-134
-1.82426e-135
-1.16459e-129
9.58771e-110
5.57082e-110
6.4239e-110
-1.08901e-116
-1.57049e-116
4.46041e-116
2.25928e-115
6.94722e-115
1.59222e-114
2.84907e-114
4.12109e-114
4.89289e-114
4.6799e-114
3.05311e-114
-1.36948e-115
-4.28866e-114
-8.99285e-114
-1.38115e-113
-1.84968e-113
-2.30424e-113
-2.76172e-113
-3.23648e-113
-3.71855e-113
-4.17739e-113
-4.83552e-113
-3.35955e-114
-7.42551e-115
-7.73282e-115
-6.98539e-115
-1.14305e-118
-3.47146e-121
-9.78868e-125
-2.37497e-129
1.72825e-131
1.19663e-133
-2.25588e-142
2.95912e-150
2.85123e-151
2.78261e-155
5.7531e-160
2.98192e-179
7.49085e-212
9.85861e-302
1.47267e-316
1.60795e-316
1.60923e-316
1.61041e-316
1.6115e-316
1.74688e-316
1.7479e-316
1.74884e-316
1.74974e-316
1.75058e-316
1.88611e-316
1.88695e-316
1.88776e-316
1.88855e-316
1.88933e-316
1.8901e-316
2.02593e-316
2.02677e-316
2.02762e-316
2.02849e-316
2.02939e-316
2.16567e-316
2.1667e-316
2.16779e-316
-4.82611e-116
-4.55348e-122
-8.12094e-125
5.1197e-139
-7.51274e-139
1.05299e-138
-1.05296e-128
1.06714e-119
-2.06495e-118
-1.15624e-136
1.47234e-108
7.7204e-108
1.08413e-107
-2.69421e-108
-6.83431e-110
1.05808e-109
-5.63298e-111
-4.9159e-110
-2.0723e-109
-7.21713e-109
-2.00386e-108
-4.25307e-108
-7.05171e-108
-9.49178e-108
-1.07546e-107
-1.05643e-107
-9.19284e-108
-7.18131e-108
-5.0689e-108
-3.24774e-108
-1.92147e-108
-1.12267e-108
-7.66844e-109
-7.20503e-109
-8.82718e-109
-1.35806e-108
-1.1048e-108
1.25666e-106
1.2578e-106
1.25804e-106
1.26083e-106
1.25832e-106
2.16889e-110
-3.07434e-121
-1.47377e-124
-3.47023e-128
-5.87743e-129
9.86686e-134
-1.55786e-141
-4.13279e-142
1.79807e-150
6.34306e-151
1.90381e-151
4.80103e-158
3.50878e-180
4.18243e-237
1.40396e-316
-1.533e-316
-1.5343e-316
-1.53549e-316
-1.5366e-316
-1.66577e-316
-1.66682e-316
-1.66781e-316
-1.66874e-316
-1.66963e-316
-1.79899e-316
-1.79989e-316
-1.80076e-316
-1.80162e-316
-1.80247e-316
-1.93214e-316
-1.93305e-316
-1.93399e-316
-1.93493e-316
-2.06498e-316
-2.06606e-316
-2.06719e-316
-2.06837e-316
-2.19896e-316
-1.19841e-115
7.32748e-120
1.62919e-118
5.49778e-117
-5.20243e-117
3.9718e-118
4.01636e-118
4.39789e-118
-1.21468e-114
1.24154e-106
1.84425e-105
2.63373e-105
8.01055e-106
-1.60961e-105
-1.12873e-105
-1.4461e-105
1.36863e-106
2.99522e-105
1.1376e-104
3.5251e-104
9.15937e-104
2.10383e-103
4.54128e-103
9.42771e-103
1.87327e-102
3.53979e-102
6.36052e-102
1.08887e-101
1.77487e-101
2.74769e-101
4.0384e-101
5.65596e-101
7.6066e-101
9.93182e-101
1.27685e-100
1.66997e-100
1.13937e-100
-5.19853e-101
-1.25062e-100
-8.99441e-101
-1.8964e-101
-1.71405e-102
2.10752e-110
7.52553e-111
8.55494e-112
-1.39924e-131
-1.08015e-128
-2.26897e-130
4.69141e-151
-1.28283e-137
-9.08769e-143
-1.85803e-147
-7.95299e-148
1.90475e-155
8.6484e-171
1.21199e-202
1.1992e-253
1.05063e-309
4.67755e-309
2.14362e-308
1.00852e-307
4.85957e-307
2.39213e-306
1.20015e-305
6.12153e-305
3.16714e-304
1.65808e-303
8.76466e-303
4.66742e-302
2.499e-301
1.34248e-300
7.22285e-300
3.88471e-299
2.08514e-298
1.11517e-297
5.93416e-297
3.13805e-296
1.64763e-295
8.58389e-295
4.43759e-294
1.82119e-113
3.13577e-113
6.51474e-113
1.42219e-112
-2.07694e-112
6.24269e-120
1.06886e-114
-6.26561e-115
-5.63e-114
-7.1653e-98
-4.03996e-97
-1.69461e-96
-2.04757e-96
-1.70533e-97
-5.37286e-99
-1.38314e-100
2.94997e-101
1.57005e-100
3.95824e-100
9.63255e-100
2.18657e-99
4.56069e-99
8.81071e-99
1.59497e-98
2.72608e-98
4.40842e-98
6.72954e-98
9.65014e-98
1.29511e-97
1.63174e-97
1.95111e-97
2.24144e-97
2.48234e-97
2.59693e-97
2.38707e-97
1.63985e-97
-1.08758e-99
-3.85532e-97
-1.47381e-96
-3.7981e-96
-2.10619e-96
-4.65272e-97
-5.58309e-103
-6.17239e-104
-7.85822e-110
-3.31159e-110
6.25416e-124
6.25892e-124
3.0241e-125
-1.65555e-137
-2.62044e-143
-6.19782e-148
-2.5997e-148
-2.15507e-153
3.68836e-161
9.95204e-182
1.62505e-213
2.4793e-266
1.49156e-268
6.37246e-268
2.7884e-267
1.24694e-266
5.68712e-266
2.63938e-265
1.24382e-264
5.93838e-264
2.86642e-263
1.39587e-262
6.84485e-262
3.37331e-261
1.66796e-260
8.26042e-260
4.09109e-259
2.02325e-258
9.97831e-258
4.90202e-257
2.39687e-256
1.16589e-255
5.64186e-255
2.71794e-254
-2.66278e-103
-2.81414e-102
-2.1196e-101
-1.73877e-100
-1.36658e-99
-1.51921e-98
-2.16988e-97
-1.72855e-96
-1.3904e-95
-4.13461e-94
-1.30211e-93
-2.44889e-93
-1.17709e-93
-8.60791e-95
-2.86614e-95
-1.22042e-94
-4.58238e-94
-1.51818e-93
-4.5509e-93
-1.19234e-92
-2.64699e-92
-4.98254e-92
-8.07557e-92
-1.14929e-91
-1.47255e-91
-1.76728e-91
-2.1252e-91
-2.79946e-91
-4.28135e-91
-7.53423e-91
-1.47722e-90
-3.12343e-90
-6.67063e-90
-1.29084e-89
-1.99084e-89
-2.25949e-89
-2.48727e-89
-2.65568e-89
-2.7621e-89
-1.93331e-89
-9.70077e-90
-3.35171e-90
-8.11855e-91
-1.00151e-91
-1.77455e-97
8.08266e-106
9.47617e-133
-3.22661e-121
-5.70028e-122
6.21778e-124
1.48477e-124
-1.9288e-129
3.31094e-136
-3.31416e-150
-3.23171e-153
2.7406e-162
2.33427e-187
5.82719e-212
5.10639e-222
1.29945e-221
3.3842e-221
9.00757e-221
2.44623e-220
6.7682e-220
1.90452e-219
5.44213e-219
1.57647e-218
4.62275e-218
1.37005e-217
4.09832e-217
1.23559e-216
3.7494e-216
1.14348e-215
3.49983e-215
1.07334e-214
3.29325e-214
1.00929e-213
3.08493e-213
9.38983e-213
2.84184e-212
-9.66879e-101
-1.56242e-99
-1.34437e-98
-9.75975e-98
-6.44521e-97
-4.63699e-96
-3.34059e-95
-1.9162e-94
-1.0708e-93
-7.12143e-93
-1.64747e-92
-1.79995e-92
-5.69167e-93
-5.39627e-94
-2.11322e-94
-6.48958e-94
-2.30364e-93
-7.14368e-93
-1.89132e-92
-4.17272e-92
-7.64559e-92
-1.20264e-91
-1.76305e-91
-2.8393e-91
-5.9312e-91
-1.52265e-90
-4.04137e-90
-1.00912e-89
-2.31573e-89
-4.90432e-89
-9.6897e-89
-1.76797e-88
-2.82629e-88
-3.55733e-88
-4.96513e-88
-5.74129e-88
-5.93876e-88
-7.70309e-88
-4.9293e-88
-3.22976e-88
-1.76853e-88
-7.21767e-89
-2.31987e-89
-4.52223e-90
-1.41639e-95
3.29117e-104
-1.93309e-107
-3.03604e-108
-4.00064e-119
-1.7884e-120
-2.56824e-120
-2.9193e-130
1.60863e-135
5.36042e-142
-2.41736e-154
2.64999e-156
2.25853e-170
4.43028e-188
3.70478e-202
7.64261e-202
1.60819e-201
3.44139e-201
7.47647e-201
1.64606e-200
3.66597e-200
8.2433e-200
1.86799e-199
4.258e-199
9.74588e-199
2.2359e-198
5.13257e-198
1.17671e-197
2.68902e-197
6.11148e-197
1.37786e-196
3.07212e-196
6.74832e-196
1.4532e-195
3.04589e-195
6.14402e-195
-1.33159e-99
-3.70312e-98
-2.92631e-97
-1.55378e-96
-7.6322e-96
-4.27801e-95
-2.48324e-94
-1.18213e-93
-3.58783e-93
-7.8931e-95
-3.12613e-94
4.25681e-88
-2.67861e-93
6.90507e-87
2.56174e-86
5.96218e-86
1.32558e-85
2.95267e-85
5.95709e-85
5.85283e-85
5.94386e-85
5.79712e-85
7.46006e-85
1.13494e-84
1.75446e-84
2.66994e-84
4.11218e-84
4.26428e-84
4.3914e-84
4.48524e-84
4.55351e-84
4.87713e-84
1.49791e-84
-8.98158e-86
-1.90467e-86
-1.21269e-86
-1.07174e-86
-3.71785e-87
-2.34921e-87
-1.70417e-87
-1.09182e-87
-5.18664e-88
-2.04043e-88
-5.39807e-89
-1.53073e-94
-5.43697e-104
-4.04056e-106
-1.00325e-106
-3.97473e-121
-3.76069e-121
-5.42248e-122
-8.64713e-122
-4.62396e-131
2.19783e-139
8.96581e-146
3.73803e-157
1.571e-159
4.51896e-167
1.23963e-172
4.42771e-179
-2.79615e-184
-8.30905e-184
-2.46086e-183
-7.32836e-183
-2.06235e-182
-4.59402e-182
-5.71307e-182
-1.84803e-182
-1.79365e-182
-1.5247e-182
-8.72539e-183
-9.70312e-183
-2.41088e-182
-7.15783e-182
-2.21716e-181
-7.02353e-181
-2.28448e-180
-7.66159e-180
-2.66029e-179
-9.60161e-179
2.49218e-90
3.30672e-88
9.24271e-88
2.55998e-86
3.39965e-85
1.30277e-84
4.17315e-84
1.41813e-83
5.0464e-83
1.77957e-82
4.84824e-82
7.99682e-82
7.47179e-82
6.2694e-82
5.06011e-82
4.14848e-82
3.42901e-82
2.32457e-82
-5.85982e-83
-7.67048e-82
-2.1968e-81
-4.66439e-81
-8.69998e-81
-1.5278e-80
-2.57647e-80
-4.13719e-80
-6.83491e-80
-1.04928e-79
-1.55217e-79
-9.81774e-80
-1.19e-78
-1.3244e-77
-1.10271e-78
-7.04634e-79
-9.62264e-81
-6.39585e-82
-7.09092e-86
-5.9085e-86
-6.32481e-87
-5.21506e-87
-3.97363e-87
-2.24943e-87
-1.09758e-87
-3.99877e-88
-9.78621e-94
2.86368e-102
1.52867e-104
-1.2062e-105
9.66657e-109
1.31756e-112
-3.6878e-115
-2.72284e-117
-3.09373e-123
2.01824e-139
8.62516e-144
1.00078e-156
2.98786e-158
6.37951e-154
5.83675e-154
5.33195e-154
5.70015e-154
1.27528e-153
2.48561e-153
4.23407e-153
6.20179e-153
7.34122e-153
5.82671e-153
2.69523e-154
3.91024e-154
5.79961e-154
4.35858e-154
1.57522e-154
1.93585e-155
-1.24182e-155
1.40124e-160
2.22514e-160
8.66222e-160
2.61976e-159
5.20883e-159
2.08831e-159
-8.70864e-87
-2.60392e-84
-2.7126e-83
-6.52736e-83
-3.87547e-82
-3.70846e-81
-3.26854e-80
-2.43558e-79
-1.4736e-78
-6.62683e-78
-2.01984e-77
-5.20481e-77
-1.14958e-76
-2.39995e-76
-5.13969e-76
-1.1232e-75
-2.47592e-75
-5.30905e-75
-1.08682e-74
-2.12314e-74
-4.00478e-74
-7.36618e-74
-1.32381e-73
-2.32329e-73
-3.99258e-73
-6.76838e-73
-1.14599e-72
-1.96638e-72
-3.6118e-72
-1.01134e-71
-3.81162e-70
-1.04524e-70
-3.69065e-71
-7.52292e-72
-1.20759e-73
-2.90263e-75
-2.44256e-76
-2.55802e-85
-1.1391e-86
-1.09819e-86
-1.02622e-86
-7.19322e-87
-4.34848e-87
-2.25175e-87
-4.75918e-93
1.29788e-100
1.04875e-102
-7.34708e-105
3.00383e-107
1.60225e-107
-5.87448e-114
-1.15728e-116
-5.57459e-121
-1.6751e-125
3.73602e-142
3.87376e-142
1.79573e-142
-2.77185e-148
-9.63904e-148
-1.36703e-146
-8.82766e-146
-2.21605e-145
-5.37179e-145
-1.20271e-144
-2.34206e-144
-3.505e-144
-2.97088e-144
5.22253e-148
5.1153e-148
-1.48671e-147
-1.79477e-147
-1.20354e-147
-4.93185e-148
-2.52515e-148
-7.56393e-148
-2.11877e-147
-5.40204e-147
-1.20889e-146
-2.1491e-146
-4.36672e-147
-1.74943e-85
-7.23323e-82
-7.83211e-79
-1.14884e-77
-6.85486e-77
-2.86052e-76
-1.03807e-75
-3.74737e-75
-1.43063e-74
-5.50078e-74
-1.92289e-73
-5.96031e-73
-1.68988e-72
-4.56178e-72
-1.19552e-71
-3.04074e-71
-7.43651e-71
-1.73691e-70
-3.87488e-70
-8.31845e-70
-1.72712e-69
-3.48632e-69
-6.88874e-69
-1.34722e-68
-2.65467e-68
-5.43707e-68
-1.24746e-67
-4.32561e-67
-5.8041e-65
-2.22933e-65
-5.48534e-66
-4.39745e-67
-8.93432e-68
-7.8071e-69
-7.75092e-70
-1.20097e-70
-1.3863e-71
-1.13651e-74
-1.062e-81
-6.65739e-83
-2.15658e-86
-1.92283e-86
-1.41512e-86
-1.09249e-86
-2.06389e-92
6.84488e-100
1.21269e-101
-3.09711e-104
6.47138e-107
6.90312e-107
6.84093e-107
-1.77715e-118
-1.65072e-119
-4.66605e-124
-1.17213e-124
1.13117e-138
7.77118e-139
5.15358e-139
2.37013e-138
3.0025e-138
2.51816e-138
1.03492e-138
3.32441e-140
9.94263e-139
3.6819e-138
5.49579e-138
5.5164e-138
1.73855e-148
2.67417e-149
-7.74054e-140
-1.26149e-139
-1.43108e-139
-1.21675e-139
-7.3007e-140
-2.37648e-140
-3.01465e-142
-6.567e-142
-1.44093e-141
-2.11016e-141
4.29947e-136
-7.78682e-85
-2.04858e-79
-1.81238e-76
-8.94624e-75
-5.44978e-74
-1.88805e-73
-5.84854e-73
-1.90887e-72
-6.24604e-72
-1.78621e-71
-4.21709e-71
-8.85974e-71
-1.83538e-70
-3.91149e-70
-8.5135e-70
-1.85277e-69
-3.96152e-69
-8.25889e-69
-1.67967e-68
-3.3437e-68
-6.54054e-68
-1.25112e-67
-2.413e-67
-4.71434e-67
-9.56169e-67
-2.12004e-66
-5.95595e-66
-2.18633e-62
-1.41317e-62
-7.22154e-63
-2.59922e-63
-6.45509e-64
-1.28658e-64
-2.45013e-65
-1.43522e-67
-3.95424e-68
-5.05946e-69
-4.78895e-73
-7.06798e-75
-2.61021e-76
-7.8616e-78
-8.84335e-84
-1.08532e-83
-5.65459e-86
-4.24214e-92
-2.92478e-98
1.14352e-101
-9.20404e-104
-2.40258e-109
1.09618e-109
2.92649e-106
-2.90043e-116
-3.36991e-120
-3.05563e-122
-1.38579e-122
-4.5791e-123
-1.12881e-126
2.55439e-134
2.72782e-134
2.73445e-134
2.74856e-134
2.43605e-134
1.47907e-134
5.45943e-135
5.12069e-136
-1.64947e-135
-1.97391e-134
1.81437e-134
2.91478e-134
1.40667e-134
1.12372e-134
1.9449e-134
5.30523e-134
1.67035e-133
5.47894e-133
1.78676e-132
5.55769e-132
1.54441e-131
2.93428e-131
-1.01292e-131
-2.06725e-84
-8.95686e-79
-4.33561e-76
-6.2678e-74
-8.6874e-73
-4.7586e-72
-2.35748e-71
-1.21086e-70
-5.59363e-70
-2.11048e-69
-6.65641e-69
-1.92308e-68
-5.42599e-68
-1.51375e-67
-4.13198e-67
-1.0888e-66
-2.74849e-66
-6.65267e-66
-1.55446e-65
-3.53815e-65
-7.93249e-65
-1.77803e-64
-4.07046e-64
-9.83963e-64
-2.69524e-63
-1.01353e-62
-7.04278e-62
-5.81223e-62
-3.53158e-62
-1.90995e-62
-8.86427e-63
-4.13063e-63
-1.29435e-63
-3.19291e-64
-7.36267e-65
-1.37487e-65
-9.70746e-67
-7.56122e-68
-2.18527e-71
-5.90614e-74
-1.68519e-74
-2.99609e-76
-9.84489e-78
-2.73349e-81
-2.57199e-88
-8.63184e-98
-8.80455e-100
-5.57967e-105
-1.02555e-123
1.58647e-108
4.45055e-106
-1.90601e-117
-4.25486e-121
-3.0198e-121
-2.4529e-121
-1.79247e-121
-5.46959e-122
-1.30132e-125
-2.64743e-128
-2.50756e-128
-1.32809e-128
-1.0122e-128
-8.48189e-129
-6.8661e-129
-5.9586e-129
-4.05851e-129
-9.89208e-130
1.96328e-129
4.60456e-129
7.58822e-129
1.16531e-128
1.76919e-128
2.70493e-128
4.14832e-128
6.30102e-128
9.20601e-128
1.25576e-127
1.42023e-127
3.90128e-128
-9.4222e-127
-4.08792e-84
-2.14503e-78
-1.30592e-75
-1.08363e-73
-4.82163e-72
-4.01559e-71
-2.33927e-70
-1.30318e-69
-6.2172e-69
-2.36417e-68
-7.49527e-68
-2.17353e-67
-6.1106e-67
-1.68233e-66
-4.49043e-66
-1.14985e-65
-2.81607e-65
-6.6288e-65
-1.51431e-64
-3.39877e-64
-7.61107e-64
-1.73533e-63
-4.14536e-63
-1.08582e-62
-3.38095e-62
-1.45059e-61
-7.06217e-62
-5.36395e-62
-4.46872e-62
-2.99088e-62
-1.70441e-62
-9.95354e-63
-4.23132e-63
-1.20861e-63
-4.25987e-64
-1.09009e-64
-1.55126e-65
-2.35494e-66
-1.47129e-67
-8.28046e-73
-9.51191e-73
-5.27126e-74
-6.56285e-76
-3.56811e-79
-4.78681e-88
-2.74331e-95
-1.74558e-99
-1.33678e-101
6.66663e-104
1.15017e-103
-8.17846e-123
1.25939e-108
-1.94362e-120
-2.02161e-120
-2.1092e-120
-2.17678e-120
-1.53537e-120
-9.89316e-121
-8.53816e-121
-8.98285e-121
-9.85424e-121
-1.11121e-120
-1.27777e-120
-1.52019e-120
-1.90111e-120
-2.49407e-120
-3.4124e-120
-4.85081e-120
-7.18325e-120
-1.10948e-119
-1.78732e-119
-3.00832e-119
-5.30674e-119
-9.9112e-119
-1.98094e-118
-4.24365e-118
-9.32658e-118
-2.11249e-117
-4.84777e-117
-1.10209e-116
-6.62994e-84
-3.71249e-78
-2.85149e-75
-2.52913e-73
-1.21646e-71
-1.84487e-70
-1.23457e-69
-7.14213e-69
-3.44713e-68
-1.30277e-67
-4.06855e-67
-1.15303e-66
-3.13845e-66
-8.28393e-66
-2.10031e-65
-5.07346e-65
-1.16768e-64
-2.57911e-64
-5.52781e-64
-1.16518e-63
-2.45458e-63
-5.27355e-63
-1.18767e-62
-2.9123e-62
-7.97123e-62
-1.19936e-61
-8.99179e-62
-9.37698e-62
-9.26997e-62
-6.30401e-62
-3.31631e-62
-1.84959e-62
-9.30026e-63
-4.00183e-63
-1.71298e-63
-6.47211e-64
-1.30201e-64
-2.44136e-65
-5.25228e-66
-1.79048e-69
-2.57544e-70
-3.2655e-72
-1.99559e-75
-1.63614e-78
-6.13784e-81
-4.5502e-85
-3.06873e-99
-2.36156e-99
6.09813e-102
6.09813e-102
-2.70836e-104
2.86078e-108
-4.60212e-120
-5.83771e-120
-6.82877e-120
-7.29899e-120
-7.39825e-120
-7.25738e-120
-7.0295e-120
-7.13441e-120
-7.56486e-120
-8.07811e-120
-8.44057e-120
-8.70527e-120
-9.25999e-120
-9.98162e-120
-1.07408e-119
-1.12035e-119
-1.11811e-119
-1.0071e-119
-6.0497e-120
7.83484e-120
1.31144e-118
2.08946e-118
-1.36342e-118
-1.51994e-117
-5.20588e-117
-1.37898e-116
-2.80357e-116
-3.44394e-116
-9.28638e-84
-5.1844e-78
-4.78163e-75
-5.34971e-73
-1.84888e-71
-5.29218e-70
-4.37063e-69
-2.58641e-68
-1.26111e-67
-4.75809e-67
-1.46536e-66
-4.04471e-66
-1.05976e-65
-2.66565e-65
-6.38883e-65
-1.45139e-64
-3.1347e-64
-6.49588e-64
-1.30732e-63
-2.59045e-63
-5.13208e-63
-1.0347e-62
-2.16255e-62
-4.6684e-62
-8.16545e-62
-1.03938e-61
-2.32709e-61
-2.43767e-61
-2.05081e-61
-1.51555e-61
-9.56796e-62
-5.12107e-62
-2.43118e-62
-1.02703e-62
-4.09357e-63
-1.80708e-63
-6.83922e-64
-1.88819e-64
-4.63145e-65
-4.09733e-66
-3.68426e-67
-1.67491e-68
-3.95782e-75
-6.61924e-78
-2.87324e-78
-9.90709e-81
-1.11136e-84
-3.58057e-97
-6.54536e-97
-2.70208e-98
-1.03212e-100
2.8606e-108
1.62538e-108
1.46717e-111
0
-7.01116e-120
-1.17394e-119
-1.44309e-119
-1.59829e-119
-1.79764e-119
-2.12144e-119
-2.55149e-119
-2.8352e-119
-2.839e-119
-3.07775e-119
-3.38017e-119
-3.76455e-119
-3.94504e-119
-3.92806e-119
-3.54371e-119
-2.46647e-119
1.15657e-121
8.51106e-119
3.42758e-118
3.35628e-118
-2.23528e-118
2.8004e-118
-2.87782e-114
-6.26378e-112
-2.9732e-109
-1.15863e-83
-6.18784e-78
-6.57755e-75
-9.24059e-73
-3.44661e-71
-9.85307e-70
-1.15644e-68
-6.99259e-68
-3.4494e-67
-1.31167e-66
-4.01361e-66
-1.08312e-65
-2.73583e-65
-6.56667e-65
-1.49226e-64
-3.20604e-64
-6.55284e-64
-1.28888e-63
-2.47363e-63
-4.70482e-63
-9.03003e-63
-1.78743e-62
-3.71786e-62
-7.74658e-62
-7.74357e-62
-9.30186e-62
-2.25908e-61
-2.80143e-61
-2.68982e-61
-2.31615e-61
-1.87506e-61
-1.26205e-61
-7.53927e-62
-3.9876e-62
-1.59316e-62
-5.97243e-63
-2.61059e-63
-8.66599e-64
-2.01269e-64
-5.46671e-65
-1.12002e-65
-6.82154e-67
-2.61184e-68
-2.41655e-69
-6.70836e-71
-3.38562e-80
-3.32924e-84
-5.5804e-89
-5.5151e-89
-3.34835e-91
-4.69409e-94
-6.49262e-101
1.89235e-104
7.67364e-104
7.46701e-104
-2.96737e-120
-1.49105e-132
-9.65935e-128
-6.92113e-136
-1.50882e-119
-1.88146e-119
-1.89905e-119
-1.52954e-119
-3.31301e-119
-3.78214e-119
-4.0947e-119
-4.8746e-119
-5.8088e-119
-6.7687e-119
-7.71375e-119
-8.87965e-119
5.3751e-121
-9.8181e-119
-7.78936e-120
-1.26981e-124
2.71997e-117
1.24988e-111
5.30995e-112
-4.27327e-106
3.51234e-99
-1.31401e-83
-6.53267e-78
-7.7552e-75
-1.32711e-72
-6.12854e-71
-1.36123e-69
-2.38481e-68
-1.51809e-67
-7.56016e-67
-2.92787e-66
-8.9903e-66
-2.38829e-65
-5.84258e-65
-1.34412e-64
-2.91322e-64
-5.96682e-64
-1.16592e-63
-2.20303e-63
-4.0873e-63
-7.57103e-63
-1.42561e-62
-2.7649e-62
-5.33644e-62
-7.67087e-62
-7.63708e-62
-8.60225e-62
-2.10387e-61
-2.82406e-61
-3.00381e-61
-2.80535e-61
-2.50348e-61
-2.03198e-61
-1.42469e-61
-8.98824e-62
-5.2002e-62
-2.29542e-62
-1.03149e-62
-3.62156e-63
-6.99375e-64
-2.02892e-64
-5.08719e-65
-8.92291e-66
-2.37693e-66
-3.30553e-67
-7.93244e-71
-1.22724e-79
-1.82852e-80
-1.00193e-80
-4.16796e-82
-4.51128e-83
-4.05764e-85
-5.58544e-90
-2.20896e-96
-4.81932e-100
1.47735e-103
1.47716e-103
2.16961e-104
-2.89215e-108
3.81029e-111
-5.4624e-134
-2.9715e-119
-3.13592e-118
-1.49238e-117
-3.92839e-119
-3.70986e-119
2.60577e-119
-3.42748e-121
-4.99511e-118
7.97898e-114
9.16106e-113
9.15962e-113
-2.64453e-115
-1.33227e-115
-1.77542e-115
5.61921e-112
-3.17664e-114
-3.30756e-107
-1.17835e-107
-1.0357e-101
0
-1.37115e-83
-6.23699e-78
-8.0728e-75
-1.63125e-72
-9.50984e-71
-2.1697e-69
-3.83973e-68
-2.7832e-67
-1.38658e-66
-5.51858e-66
-1.71913e-65
-4.53448e-65
-1.08148e-64
-2.39975e-64
-4.99814e-64
-9.85087e-64
-1.86071e-63
-3.4213e-63
-6.2294e-63
-1.14427e-62
-2.15862e-62
-4.17263e-62
-7.4915e-62
-7.90283e-62
-7.72235e-62
-8.17316e-62
-1.88161e-61
-2.67335e-61
-3.08142e-61
-3.11503e-61
-2.95856e-61
-2.61761e-61
-2.09154e-61
-1.42857e-61
-9.33734e-62
-5.00184e-62
-2.74105e-62
-1.16168e-62
-3.00946e-63
-7.58793e-64
-1.51553e-64
-3.61675e-65
-1.05526e-65
-1.98716e-66
-1.37011e-70
-2.85752e-71
-1.57278e-71
-5.5504e-72
-5.43964e-73
-6.66616e-74
-1.98477e-74
-6.1104e-76
-3.92152e-96
-6.44571e-100
-4.65801e-100
-2.00397e-102
-1.24152e-104
-6.78133e-105
4.453e-111
9.46008e-114
-1.90118e-118
2.91332e-108
0
-2.89416e-116
-3.14082e-115
-5.76131e-116
-3.44666e-111
-4.70708e-112
-1.92019e-114
0
-1.27949e-108
-1.35003e-108
1.19309e-126
7.37069e-100
4.91413e-99
3.48854e-99
-4.74973e-104
-1.21961e-104
-8.3112e-101
7.50299e-90
-1.32855e-83
-5.46774e-78
-7.57615e-75
-1.75891e-72
-1.27791e-70
-3.4329e-69
-5.09604e-68
-4.45219e-67
-2.19442e-66
-9.01749e-66
-2.88198e-65
-7.62193e-65
-1.78649e-64
-3.85217e-64
-7.77325e-64
-1.48781e-63
-2.74366e-63
-4.95916e-63
-8.94377e-63
-1.63629e-62
-3.04839e-62
-5.49253e-62
-8.14944e-62
-8.42508e-62
-8.01158e-62
-7.99172e-62
-1.21469e-61
-1.84577e-61
-2.36681e-61
-2.78857e-61
-2.98915e-61
-2.89611e-61
-2.5109e-61
-1.94713e-61
-1.43841e-61
-8.31176e-62
-4.85096e-62
-2.27082e-62
-9.34709e-63
-3.96784e-63
-1.06631e-63
-2.01069e-64
-4.19877e-65
-9.70285e-66
-6.33314e-67
-7.62649e-68
-1.18984e-68
-1.0814e-69
-1.11127e-70
-1.07448e-71
-3.10905e-72
-1.60355e-73
-2.06709e-93
2.5448e-93
-7.52094e-97
-4.1422e-98
-3.11222e-99
-1.32756e-99
-1.81506e-107
-5.93793e-106
2.98261e-101
3.58538e-101
1.09233e-101
-1.39932e-113
-2.87968e-114
2.04918e-105
8.03599e-105
-2.52809e-123
2.55681e-105
2.10227e-124
-1.42042e-105
5.65438e-101
-3.77988e-120
1.71616e-104
3.11931e-102
2.88733e-106
-3.3788e-122
-1.01926e-91
-1.66074e-83
-1.70171e-82
-1.20353e-83
-4.45039e-78
-6.51049e-75
-1.69685e-72
-1.50388e-70
-4.97666e-69
-7.16184e-68
-6.22648e-67
-3.07806e-66
-1.2997e-65
-4.30732e-65
-1.15434e-64
-2.6831e-64
-5.66805e-64
-1.11721e-63
-2.09413e-63
-3.80192e-63
-6.8097e-63
-1.22476e-62
-2.23857e-62
-4.1009e-62
-6.95821e-62
-9.01324e-62
-9.16696e-62
-8.4928e-62
-8.03622e-62
-1.10785e-61
-1.62864e-61
-2.11102e-61
-2.50374e-61
-2.79587e-61
-2.92407e-61
-2.79468e-61
-2.43722e-61
-1.99456e-61
-1.31748e-61
-8.77485e-62
-4.34281e-62
-2.01838e-62
-1.00777e-62
-3.87956e-63
-9.40148e-64
-1.81686e-64
-3.70872e-65
-9.3939e-66
-1.87793e-66
-1.24399e-68
-1.17959e-69
-2.69116e-70
-2.37879e-71
-7.11494e-72
-6.16992e-73
-1.25168e-83
-9.4276e-90
-7.54377e-84
-9.05494e-84
-1.79499e-84
-2.49986e-85
-8.41044e-86
-8.49703e-97
-3.372e-95
-6.53187e-96
-2.02577e-100
-1.7646e-113
-3.68738e-100
-4.34252e-102
-3.67656e-114
1.08256e-100
1.47117e-99
-1.51426e-99
4.40473e-99
1.47553e-93
-1.6915e-98
-1.23004e-98
2.24614e-89
-1.27485e-95
3.21524e-87
8.42768e-81
6.3527e-81
-1.29318e-82
-1.02496e-83
-3.39205e-78
-5.18548e-75
-1.48814e-72
-1.57196e-70
-6.46701e-69
-1.01885e-67
-7.96608e-67
-3.92921e-66
-1.67352e-65
-5.8009e-65
-1.59279e-64
-3.70733e-64
-7.73698e-64
-1.50079e-63
-2.77343e-63
-4.9843e-63
-8.87417e-63
-1.5887e-62
-2.86713e-62
-5.07944e-62
-8.48373e-62
-1.00209e-61
-1.00338e-61
-9.12859e-62
-8.20824e-62
-1.41603e-61
-2.11786e-61
-2.5205e-61
-2.73909e-61
-2.894e-61
-2.98368e-61
-2.95588e-61
-2.75838e-61
-2.42683e-61
-1.79486e-61
-1.27316e-61
-7.76387e-62
-4.36455e-62
-2.32978e-62
-1.144e-62
-5.36249e-63
-1.2473e-63
-1.37674e-64
-4.19381e-65
-1.00579e-65
-5.71131e-67
-1.97382e-68
-3.15981e-69
-5.37679e-70
-5.41401e-71
-1.45073e-72
-1.87169e-73
-4.18527e-74
-8.82918e-75
-1.26295e-75
-7.1677e-77
-3.34661e-78
-1.54621e-79
-2.26739e-89
1.4911e-89
1.12345e-89
8.77702e-91
6.94245e-91
5.49258e-91
-1.13035e-93
-1.66374e-99
-6.36772e-98
-1.39442e-95
-9.48137e-92
-2.4891e-92
-1.27188e-95
-1.01673e-100
5.78439e-82
2.24457e-80
1.91286e-80
1.19382e-80
1.96648e-81
1.96648e-81
2.43756e-72
-8.34332e-84
-2.43805e-78
-3.86646e-75
-1.20238e-72
-1.47965e-70
-7.52712e-69
-1.37699e-67
-1.06745e-66
-4.63652e-66
-1.94981e-65
-7.09095e-65
-2.01657e-64
-4.74819e-64
-9.87006e-64
-1.8962e-63
-3.47038e-63
-6.18643e-63
-1.09277e-62
-1.93144e-62
-3.39787e-62
-5.84243e-62
-9.50539e-62
-1.09518e-61
-1.09118e-61
-9.89492e-62
-8.59527e-62
-1.12603e-61
-1.69725e-61
-2.27295e-61
-2.64876e-61
-2.85317e-61
-2.97549e-61
-3.0161e-61
-2.93662e-61
-2.68811e-61
-2.22895e-61
-1.70592e-61
-1.14685e-61
-7.02035e-62
-3.90815e-62
-2.12713e-62
-1.16144e-62
-4.64072e-63
-1.49909e-63
-4.19208e-64
-6.07688e-65
-1.35374e-65
-2.02555e-66
-1.17101e-67
-1.95321e-68
-2.32555e-69
-2.02101e-70
-4.31148e-71
-6.50384e-72
-9.16319e-73
-1.62828e-73
-2.10949e-74
-2.83749e-76
-1.92495e-79
-7.36757e-83
-2.1357e-81
-4.9294e-83
-3.0258e-83
-9.42793e-84
-1.27451e-84
-1.39454e-85
8.81452e-74
5.37804e-94
3.05027e-81
-2.96649e-93
-2.6636e-92
-1.18833e-99
-8.86178e-94
5.96275e-82
6.00715e-82
2.2136e-80
1.52543e-80
1.96648e-81
1.96648e-81
-5.62649e-79
-2.54402e-84
-1.66258e-78
-2.72232e-75
-9.05436e-73
-1.27043e-70
-7.89273e-69
-1.72462e-67
-1.43475e-66
-5.52842e-66
-2.07813e-65
-7.91747e-65
-2.35436e-64
-5.66529e-64
-1.18238e-63
-2.26164e-63
-4.10961e-63
-7.26067e-63
-1.26601e-62
-2.19455e-62
-3.82186e-62
-7.05672e-62
-1.0391e-61
-1.1627e-61
-1.16594e-61
-1.06411e-61
-9.17686e-62
-9.34833e-62
-1.33742e-61
-1.88797e-61
-2.37118e-61
-2.69711e-61
-2.88523e-61
-2.98197e-61
-3.00964e-61
-2.91086e-61
-2.60083e-61
-2.14267e-61
-1.62646e-61
-1.10677e-61
-6.60974e-62
-3.79745e-62
-1.78841e-62
-7.82172e-63
-3.35734e-63
-1.32765e-63
-2.58069e-64
-7.83531e-65
-1.9575e-65
-3.65077e-66
-3.38703e-67
-3.69486e-68
-6.11926e-69
-1.04885e-69
-1.84215e-71
-2.00175e-72
-3.9404e-73
6.81763e-74
6.78875e-74
6.79321e-74
6.79374e-74
6.79243e-74
-1.24821e-78
9.19613e-71
7.44597e-72
0
1.4923e-72
4.19304e-73
2.97473e-75
-2.52321e-90
-6.53784e-91
-5.84268e-91
-2.82574e-91
0
1.94708e-86
1.45118e-79
2.16519e-80
-2.73702e-98
1.06443e-79
8.19115e-77
2.60141e-84
-6.92587e-83
-1.08165e-78
-1.82411e-75
-6.42104e-73
-1.00712e-70
-7.51635e-69
-1.98673e-67
-1.85606e-66
-7.13122e-66
-2.09625e-65
-8.12799e-65
-2.54714e-64
-6.3237e-64
-1.33535e-63
-2.55449e-63
-4.61378e-63
-8.0576e-63
-1.37784e-62
-2.32961e-62
-4.07163e-62
-8.29521e-62
-1.08116e-61
-1.20722e-61
-1.21978e-61
-1.11764e-61
-9.86326e-62
-9.28818e-62
-1.18322e-61
-1.62771e-61
-2.06819e-61
-2.45208e-61
-2.74729e-61
-2.92644e-61
-3.01717e-61
-3.01335e-61
-2.83925e-61
-2.50331e-61
-2.05096e-61
-1.51526e-61
-1.0534e-61
-6.53282e-62
-3.59283e-62
-1.87296e-62
-7.26931e-63
-2.93261e-63
-3.15032e-64
-1.16763e-64
-3.87351e-65
-1.27312e-65
-2.33479e-66
-3.73894e-67
-6.5399e-68
-6.76118e-69
-2.18565e-71
-3.83803e-72
1.86151e-70
-2.68038e-77
-1.14422e-65
-3.26017e-63
-3.76625e-67
-7.45834e-73
-4.73639e-77
1.43337e-70
1.27772e-71
1.47607e-75
2.32483e-72
3.06704e-73
1.62341e-79
5.59434e-83
-6.72537e-89
-3.66908e-90
-6.39444e-87
4.96535e-82
5.15255e-79
7.33868e-79
1.70941e-80
-2.06388e-79
-2.93712e-76
-2.40324e-75
-1.61339e-74
5.10254e-74
2.87508e-74