/*--------------------------------*- C++ -*----------------------------------*\
  =========                 |
  \\      /  F ield         | OpenFOAM: The Open Source CFD Toolbox
   \\    /   O peration     | Website:  https://openfoam.org
    \\  /    A nd           | Version:  7
     \\/     M anipulation  |
\*---------------------------------------------------------------------------*/
FoamFile
{
    version     2.0;
    format      ascii;
    class       surfaceScalarField;
    location    "5";
    object      alphaPhi;
}
// * * * * * * * * * * * * * * * * * * * * * * * * * * * * * * * * * * * * * //

dimensions      [0 3 -1 0 0 0 0];

internalField   nonuniform List<scalar> 
99520
(
2.65361e-158
-5.88481e-160
-2.8798e-158
2.77437e-158
-1.99808e-158
-2.57895e-166
3.80992e-159
4.0191e-171
6.77094e-166
-3.35687e-172
-1.89994e-170
-3.48546e-171
3.31287e-170
1.12193e-171
8.50559e-171
3.53567e-171
-1.44354e-170
-1.43596e-170
-7.57805e-170
3.26874e-169
4.08303e-168
6.56303e-169
1.61726e-167
9.41336e-171
6.48864e-169
2.04168e-172
9.21768e-171
5.9578e-153
6.31937e-153
-3.58285e-152
2.86901e-153
-1.34981e-146
-3.72028e-148
-2.68673e-147
-4.74502e-148
-2.82765e-146
-3.88541e-146
-2.00598e-148
-9.96192e-148
-6.21323e-146
-1.07092e-144
-2.30913e-145
1.39998e-143
-2.01599e-143
1.18961e-143
-1.45393e-143
1.57323e-142
-9.09365e-144
1.56575e-142
-5.31742e-143
7.83957e-143
7.29528e-145
3.78177e-142
1.37565e-144
-4.60684e-144
1.68577e-144
-7.68063e-144
1.18191e-143
-8.45073e-144
3.10222e-143
-5.39611e-143
2.82866e-143
-1.30754e-142
3.56998e-143
-1.11513e-142
1.46989e-143
-1.33302e-142
1.47138e-143
-5.26223e-143
2.31051e-143
-5.11072e-143
2.50346e-143
-7.87834e-143
1.11099e-143
-8.4776e-143
9.99188e-144
-3.77908e-143
1.38558e-148
-3.45168e-143
2.05705e-148
-4.91157e-148
2.70123e-149
-7.55341e-148
-2.74285e-151
-1.03626e-148
-4.64781e-149
4.62038e-149
-6.11174e-149
2.07643e-148
-2.97056e-167
4.8417e-150
-3.04358e-167
7.25582e-169
-1.63451e-166
1.59609e-166
-2.35358e-182
9.24648e-166
-3.92802e-212
1.43005e-181
-3.76624e-265
2.60656e-211
0
4.0864e-264
0
0
0
0
0
0
0
0
0
0
0
0
0
0
0
0
0
0
0
0
0
0
0
0
0
0
0
0
0
0
0
0
0
0
0
0
0
0
0
0
0
0
0
0
0
0
0
0
0
0
0
0
0
0
0
0
0
0
-2.93472e-153
1.35473e-124
-1.70619e-124
-2.23245e-151
2.2031e-151
1.58191e-161
3.72005e-151
7.4788e-161
-3.79183e-161
2.70069e-160
-2.03358e-160
-2.25779e-160
-1.60243e-161
-6.09213e-161
2.26759e-159
-1.34695e-158
2.59728e-158
-1.90206e-157
2.12092e-156
1.0639e-157
-3.73746e-156
1.16468e-157
-8.00618e-159
-2.00632e-153
5.8073e-153
1.5304e-151
2.51944e-151
1.56028e-151
3.3312e-153
1.51663e-145
1.50287e-145
2.04693e-136
7.1917e-142
1.7859e-136
2.95299e-136
1.89229e-139
1.78401e-136
3.84392e-140
1.50789e-139
-2.9908e-141
-6.25892e-140
2.77199e-140
-2.03059e-139
5.01508e-139
-2.88906e-139
2.92504e-138
-3.40753e-138
1.87455e-139
-1.03604e-137
3.96164e-140
-5.35688e-139
3.23097e-139
-9.58917e-140
6.27147e-139
-6.79872e-139
1.37687e-138
-1.16744e-138
2.76999e-138
-2.29991e-138
4.61084e-138
-4.20608e-138
6.26604e-138
-6.44481e-138
7.17446e-138
-8.1613e-138
6.43163e-138
-8.81167e-138
3.90614e-138
-7.5354e-138
1.31114e-138
-4.41576e-138
9.85577e-140
-1.44656e-138
-3.57333e-138
3.38011e-138
-2.19564e-134
2.19527e-134
-1.69934e-136
-2.15347e-134
-1.07939e-136
1.90934e-136
7.24006e-142
7.81183e-137
-4.81284e-141
-8.75793e-142
-1.06584e-143
-4.80063e-141
6.16466e-145
-1.66956e-143
3.1471e-158
-2.6708e-145
7.73325e-158
-4.82453e-158
-1.03202e-165
-1.27429e-157
-7.90215e-172
1.83432e-165
-2.34121e-181
1.51949e-171
-1.02913e-206
5.21168e-181
-3.74531e-246
2.33209e-206
-6.33631e-317
9.24899e-246
0
1.70186e-316
0
0
0
0
0
0
0
0
0
0
0
0
0
0
0
0
0
0
0
0
0
0
0
0
0
0
0
0
0
0
0
0
0
0
0
0
0
0
0
0
0
0
0
0
0
0
0
0
0
0
0
0
0
0
1.44004e-145
2.78101e-124
-2.4765e-124
-6.56864e-145
2.3726e-144
1.16048e-147
-2.22975e-144
-2.40952e-152
-1.60197e-147
-2.54902e-152
6.98244e-152
-2.97559e-152
7.57979e-152
-1.97836e-153
3.84626e-152
2.91214e-153
6.39583e-152
4.21657e-153
2.24292e-152
4.10237e-153
-2.25873e-152
-2.83206e-151
-1.28585e-150
4.1318e-149
9.80487e-149
2.82999e-149
3.6844e-149
-2.44277e-140
-1.87161e-140
-4.54632e-142
-2.34126e-140
-2.27608e-140
-7.49279e-141
1.08828e-132
9.43002e-134
6.22272e-134
5.2028e-133
-4.30589e-134
-6.14687e-135
-4.36238e-134
6.03401e-137
-2.69548e-135
4.87883e-134
1.6699e-133
1.17e-134
4.03493e-134
2.68342e-133
2.80053e-134
-3.76111e-134
-3.89611e-135
-4.91385e-134
-8.3231e-133
2.17627e-133
-4.15228e-131
4.06953e-131
-2.87e-129
4.80798e-131
-2.04795e-129
8.16698e-130
-2.18396e-129
1.79782e-129
-2.30971e-129
1.79073e-129
-2.40918e-129
1.76612e-129
-2.48059e-129
1.73959e-129
-2.52269e-129
1.71125e-129
-2.52117e-129
1.66763e-129
-2.03422e-129
1.18223e-129
-2.5842e-130
3.89579e-130
3.66816e-131
1.17964e-130
-4.89948e-136
-4.02755e-131
-4.66308e-136
3.0708e-136
-4.27273e-136
1.78808e-136
1.02864e-137
-2.9951e-136
-6.41696e-138
-7.24492e-138
3.35857e-140
-5.44014e-138
2.91292e-155
1.9597e-140
4.67914e-155
-2.47241e-155
6.20943e-157
-4.27756e-155
-5.95643e-164
-6.13847e-157
-7.27405e-164
6.38736e-164
-6.79988e-179
8.48723e-164
-1.66224e-195
8.64314e-179
-7.7169e-229
2.30586e-195
-9.1992e-298
1.2661e-228
0
1.56411e-297
0
0
0
0
0
0
0
0
0
0
0
0
0
0
0
0
0
0
0
0
0
0
0
0
0
0
0
0
0
0
0
0
0
0
0
0
0
0
0
0
0
0
0
0
0
0
0
0
0
0
0
0
1.02044e-132
1.29613e-124
-9.79683e-126
1.86606e-136
-2.83356e-132
8.37165e-147
4.04257e-136
-6.85824e-152
-5.26595e-148
-5.17491e-156
1.26332e-153
7.44097e-152
1.9748e-153
-5.54021e-149
-2.12497e-143
4.26196e-146
-4.26767e-146
1.49729e-142
-1.50339e-142
2.03208e-144
-1.41168e-142
-1.15223e-144
-5.40599e-143
-5.71142e-145
-3.1706e-144
-1.34868e-138
-1.4171e-138
4.01027e-135
6.42341e-135
1.1481e-137
3.99877e-135
1.49654e-129
-1.48065e-130
-1.34854e-130
-6.42892e-129
-1.52974e-130
1.86405e-131
3.73514e-130
1.75099e-128
1.99865e-130
1.7365e-130
1.81727e-129
-7.5718e-130
-1.12527e-129
-4.66112e-129
-7.47859e-128
7.36609e-128
-6.77444e-127
2.2024e-127
-2.83513e-126
9.01188e-127
-9.15579e-126
3.31525e-126
-2.8669e-125
9.41196e-126
2.69709e-126
2.07968e-125
2.60162e-126
-2.06589e-126
1.58845e-125
-7.19211e-126
1.65487e-125
-1.11699e-125
1.45114e-125
-1.11455e-125
1.01946e-125
-9.28379e-126
5.20413e-126
-6.38404e-126
1.41831e-126
-3.38764e-126
4.62466e-127
-1.17252e-126
-1.74652e-127
-3.94259e-127
1.25e-128
-1.86198e-127
1.66938e-129
-5.05983e-129
1.03241e-129
-8.98066e-130
2.1162e-130
-6.15244e-130
4.82448e-132
-2.66668e-130
9.637e-133
-2.15943e-132
-1.31765e-139
-4.55589e-133
-5.06036e-140
6.65477e-140
-2.16646e-144
-7.71246e-140
1.45932e-148
1.05151e-145
1.37782e-157
1.45931e-148
-5.3894e-159
-9.59419e-158
-1.13392e-165
4.1032e-159
-5.64982e-174
9.45595e-166
-1.41457e-187
5.1695e-174
-1.07028e-223
1.47699e-187
-5.18724e-289
1.17935e-223
0
6.42234e-289
0
0
0
0
0
0
0
0
0
0
0
0
0
0
0
0
0
0
0
0
0
0
0
0
0
0
0
0
0
0
0
0
0
0
0
0
0
0
0
0
0
0
0
0
0
0
0
0
0
0
8.55025e-132
5.29964e-125
-1.03681e-125
4.64575e-136
2.13968e-130
-2.7669e-135
-7.81287e-135
-1.4e-135
-2.44717e-135
-2.83558e-136
-1.1717e-135
-4.65691e-137
-3.06898e-136
-9.20495e-138
-5.68411e-137
-5.03099e-131
5.03099e-131
1.08888e-135
-5.0311e-131
1.72538e-144
-1.65594e-135
-3.41865e-145
-1.43282e-142
-4.24384e-146
-7.54995e-144
-6.30196e-139
-2.22648e-138
-1.35333e-119
3.88069e-118
-1.94856e-119
3.67968e-118
3.01809e-125
3.30729e-118
7.45008e-125
-9.50612e-125
-3.17291e-124
-2.27601e-124
-1.32868e-123
6.96497e-124
-4.37139e-123
3.21482e-123
-1.1505e-122
8.89986e-123
-2.39697e-122
1.92283e-122
-4.02501e-122
3.37281e-122
-5.4925e-122
4.87704e-122
-5.96173e-122
5.81714e-122
-4.44675e-122
5.56104e-122
2.20933e-123
3.59305e-122
7.56901e-122
-1.57325e-123
1.70433e-121
-4.74216e-122
2.76254e-121
-9.45022e-122
3.8436e-121
-1.36587e-121
4.90623e-121
-1.70856e-121
5.95176e-121
-1.9774e-121
6.98308e-121
-2.1917e-121
7.95178e-121
-2.36676e-121
8.76846e-121
-2.50992e-121
9.34469e-121
-2.58386e-121
7.74076e-122
6.55846e-121
1.39774e-122
-1.81837e-122
1.38227e-122
-2.64407e-123
1.14268e-122
-1.30273e-123
1.82388e-126
8.07598e-123
5.27353e-129
4.61896e-127
1.39534e-132
-1.64614e-129
3.07328e-137
-4.67981e-133
-2.15252e-139
1.41296e-137
-1.38571e-141
8.52702e-140
2.43417e-150
5.12978e-142
-2.96464e-158
-1.16205e-150
-2.64837e-159
1.56106e-158
-2.39469e-163
1.54125e-159
-4.50118e-168
1.54173e-163
-2.1987e-187
3.26206e-168
-5.11312e-220
1.73014e-187
-6.23015e-310
4.4406e-220
0
5.84146e-310
0
0
0
0
0
0
0
0
0
0
0
0
0
0
0
0
0
0
0
0
0
0
0
0
0
0
0
0
0
0
0
0
0
0
0
0
0
0
0
0
0
0
0
0
0
0
0
0
7.00395e-131
1.30333e-125
-2.59412e-125
1.59834e-133
3.15851e-131
-2.18907e-133
3.35627e-132
-4.67417e-129
4.67395e-129
5.81285e-129
-1.0487e-128
-1.28098e-138
5.81285e-129
-1.10078e-137
-5.61159e-137
-3.12979e-128
8.22541e-128
1.37464e-126
-2.28589e-126
7.33232e-130
1.37391e-126
-5.34111e-117
8.78726e-117
-2.12995e-116
3.87299e-116
-3.45951e-117
2.94635e-116
-5.43395e-118
-1.22325e-116
-2.56425e-118
-5.45014e-118
3.93947e-118
8.0933e-118
3.14482e-118
-7.19664e-119
1.44628e-117
-7.28242e-118
5.15994e-117
-3.29814e-117
1.57109e-116
-1.08137e-116
3.87011e-116
-2.82509e-116
7.59819e-116
-5.85315e-116
1.20904e-115
-9.73196e-116
1.60069e-115
-1.32656e-115
1.8078e-115
-1.51759e-115
1.77528e-115
-1.48798e-115
1.5343e-115
-1.27035e-115
1.17397e-115
-9.53922e-116
7.99399e-116
-6.34109e-116
4.93578e-116
-3.76176e-116
2.96279e-116
-2.0351e-116
2.0516e-116
-1.07789e-116
1.93241e-116
-6.63097e-117
2.29421e-116
-5.57825e-117
2.19359e-116
1.83056e-117
-1.66406e-115
1.89929e-115
-1.14978e-111
1.14959e-111
-4.43534e-113
-1.10479e-111
-3.35409e-114
-4.03673e-113
-2.71254e-114
-1.06874e-116
-2.44311e-114
3.64694e-115
-1.27147e-117
-1.81062e-114
5.55884e-129
-9.8574e-118
2.50023e-132
-1.11507e-129
5.52373e-136
-5.45408e-133
8.72636e-137
-1.32433e-136
-1.37001e-141
-2.31433e-137
2.01008e-149
4.03616e-142
4.95878e-150
-6.67226e-150
-2.00411e-158
-1.82808e-150
-6.56227e-159
8.28077e-159
-1.83123e-159
3.03951e-159
-4.27565e-166
9.47774e-160
-2.89911e-188
2.47641e-166
-3.17643e-245
1.87087e-188
0
7.34172e-246
0
0
0
0
0
0
0
0
0
0
0
0
0
0
0
0
0
0
0
0
0
0
0
0
0
0
0
0
0
0
0
0
0
0
0
0
0
0
0
0
0
0
0
0
0
0
0
0
-1.04439e-128
-8.82042e-125
-6.85617e-125
-1.9941e-127
1.16945e-128
-1.19113e-126
5.21395e-127
-3.2882e-125
1.92663e-125
3.79303e-126
-2.84401e-125
1.7703e-126
2.45948e-126
-1.73948e-127
2.37477e-126
1.88791e-127
3.3993e-126
7.06704e-123
-1.16034e-122
1.33517e-117
6.45251e-115
-1.97948e-114
1.21048e-113
-8.60693e-115
1.44889e-113
3.92674e-114
3.27424e-114
3.91195e-114
-9.02925e-114
5.24431e-114
-9.48677e-114
-8.84257e-115
-1.41986e-113
-2.16291e-113
4.93755e-114
-9.48219e-113
5.68646e-113
-3.08507e-112
2.0742e-112
-8.8204e-112
6.05101e-112
-2.3415e-111
1.52234e-111
-5.97591e-111
3.50374e-111
-1.46564e-110
7.71212e-111
-3.39341e-110
1.63472e-110
-7.3297e-110
3.283e-110
-1.47343e-109
6.15374e-110
-2.75868e-109
1.0682e-109
-4.80403e-109
1.71074e-109
-7.75952e-109
2.53152e-109
-1.16358e-108
3.48707e-109
-1.63089e-108
4.51015e-109
-2.1613e-108
5.52049e-109
-2.75296e-108
6.44933e-109
-3.44707e-108
7.25873e-109
-4.37202e-108
7.91719e-109
-5.51353e-108
8.26445e-109
-3.62987e-108
4.15942e-109
-2.56411e-108
-9.2264e-109
-1.24818e-108
-2.43212e-108
-1.88214e-109
-1.28744e-108
-1.72779e-110
-3.21331e-109
6.00553e-118
-4.0789e-110
-1.55248e-118
4.7907e-119
-1.65555e-119
1.77346e-119
-3.4849e-122
2.12836e-120
2.59877e-136
-3.4849e-122
3.53734e-138
-3.10631e-137
1.22577e-141
8.25826e-139
1.76875e-145
1.22559e-141
1.1664e-150
-4.45135e-146
2.2183e-155
-3.37203e-151
8.83024e-156
-7.35026e-156
-1.9669e-163
-3.34152e-156
-8.25185e-179
8.50503e-164
-1.08369e-210
1.72552e-179
-9.98778e-262
5.92696e-211
-8.15743e-318
6.11005e-262
-3.3888e-317
5.55233e-318
-1.45052e-316
2.55336e-317
-6.37976e-316
1.20415e-316
-2.87656e-315
5.80928e-316
-1.32595e-314
2.8616e-315
-6.2339e-314
1.43581e-314
-2.98055e-313
7.32441e-314
-1.44591e-312
3.7893e-313
-7.09498e-312
1.98456e-312
-3.51378e-311
1.04956e-311
-1.75068e-310
5.59589e-311
-8.75748e-310
3.00053e-310
-4.38335e-309
1.61568e-309
-2.19129e-308
8.71613e-309
-1.08993e-307
4.70483e-308
-5.38448e-307
2.53526e-307
-2.6298e-306
1.36233e-306
-1.26737e-305
7.28419e-306
-5.99061e-305
3.87222e-305
-2.76919e-304
2.04277e-304
-1.24102e-303
1.06899e-303
-5.33941e-303
5.54433e-303
2.85076e-302
-2.14372e-302
-1.83728e-121
2.53455e-122
9.31462e-122
-3.24447e-121
5.08823e-122
-6.31153e-121
1.73668e-121
-1.26559e-120
4.95978e-121
-2.33704e-126
-1.0351e-120
2.22449e-129
7.1788e-128
1.51967e-124
6.84772e-123
8.93993e-124
-4.78164e-123
-4.31567e-123
-4.96611e-122
1.96288e-106
-4.62105e-106
1.07027e-105
-2.71202e-105
2.16753e-105
-1.00424e-104
4.29363e-106
-1.13581e-104
2.1659e-107
-1.21481e-105
7.44184e-109
-5.21312e-107
-7.79963e-109
-1.67485e-108
-1.83776e-108
4.42332e-109
-4.74006e-108
2.62371e-108
-1.23706e-107
6.87888e-108
-3.12829e-107
1.69014e-107
-7.49348e-107
3.92682e-107
-1.68169e-106
8.50367e-107
-3.52567e-106
1.70705e-106
-6.89778e-106
3.17535e-106
-1.25607e-105
5.46726e-106
-2.11971e-105
8.67944e-106
-3.29753e-105
1.26209e-105
-4.70634e-105
1.66559e-105
-6.16996e-105
1.98217e-105
-7.52839e-105
2.149e-105
-8.71815e-105
2.17651e-105
-9.71714e-105
2.10026e-105
-1.04101e-104
1.93671e-105
-1.05126e-104
1.66356e-105
-9.92775e-105
1.21503e-105
-8.67981e-105
6.04501e-106
-6.57649e-105
-8.38024e-107
-4.26797e-105
-8.9633e-106
-2.88721e-106
-2.13912e-105
1.52575e-105
-3.48002e-105
3.70263e-106
-1.54093e-105
3.29414e-111
-3.27175e-106
3.19803e-112
-4.40689e-112
1.67774e-117
-5.7667e-113
6.63333e-118
-9.19521e-119
1.37202e-121
-4.17847e-119
-1.10059e-131
1.37202e-121
-7.07169e-133
1.17684e-132
2.5418e-145
6.60979e-134
3.75271e-151
-4.03791e-146
8.27527e-156
-7.18338e-152
3.23576e-156
-1.89151e-156
2.50129e-161
-8.73889e-157
-3.99373e-169
-7.89772e-162
-1.006e-189
1.45801e-169
-1.53465e-221
4.20622e-190
-2.1893e-274
7.28374e-222
-1.23264e-276
1.16999e-274
-4.93306e-276
7.36317e-277
-2.02381e-275
3.27184e-276
-8.49175e-275
1.48153e-275
-3.63667e-274
6.82471e-275
-1.58552e-273
3.19382e-274
-7.02216e-273
1.51533e-273
-3.15057e-272
7.27786e-273
-1.42892e-271
3.53057e-272
-6.5322e-271
1.72736e-271
-3.00396e-270
8.50521e-271
-1.38552e-269
4.20901e-270
-6.39818e-269
2.08916e-269
-2.94875e-268
1.03889e-268
-1.35415e-267
5.16524e-268
-6.17355e-267
2.56515e-267
-2.78968e-266
1.2699e-266
-1.24379e-265
6.2623e-266
-5.46077e-265
3.07078e-265
-2.34793e-264
1.49671e-264
-9.83617e-264
7.24553e-264
-3.97529e-263
3.48464e-263
1.66615e-262
-1.51605e-262
2.26542e-111
-5.33737e-112
-5.44541e-113
2.12678e-110
-5.16051e-111
1.46226e-109
-5.36792e-110
1.06752e-108
-6.05026e-109
7.93011e-108
-6.56979e-108
7.83153e-107
-8.90748e-107
1.00267e-105
-1.43769e-105
8.34735e-105
-1.32268e-104
6.2938e-104
-1.16409e-103
1.03466e-102
-2.93202e-102
2.58395e-102
-9.08024e-102
2.06403e-102
-1.62219e-101
2.79697e-103
-8.29075e-102
1.43986e-103
-7.65954e-103
8.35553e-103
-3.30357e-103
4.11011e-102
-1.72265e-102
1.6321e-101
-7.58682e-102
5.53387e-101
-2.76081e-101
1.64255e-100
-8.68061e-101
4.24425e-100
-2.36908e-100
9.43935e-100
-5.53748e-100
1.80426e-99
-1.10031e-99
2.99073e-99
-1.86455e-99
4.3847e-99
-2.72281e-99
5.90134e-99
-3.48954e-99
7.79051e-99
-4.06082e-99
1.10241e-98
-4.56926e-99
1.77227e-98
-5.4022e-99
3.20421e-98
-7.04514e-99
6.31416e-98
-1.00938e-98
1.32134e-97
-1.58492e-98
2.76926e-97
-2.68615e-98
5.23105e-97
-4.56854e-98
7.84874e-97
-6.93973e-98
8.64151e-97
-8.04494e-98
9.17672e-97
-5.94468e-98
9.34861e-97
-2.81299e-98
9.19157e-97
-2.89625e-100
6.06171e-97
2.90591e-97
2.85918e-97
3.0135e-97
9.27598e-98
1.81995e-97
2.11089e-98
6.72312e-98
2.44612e-99
1.74689e-98
4.073e-105
2.27876e-99
-1.74353e-113
2.93451e-105
-1.37202e-121
7.69502e-116
6.13602e-129
-5.15443e-132
1.0156e-129
-2.19603e-130
-1.03634e-131
-5.71546e-131
-2.31292e-132
8.38728e-133
2.80707e-137
2.55125e-133
-4.50306e-144
-4.04843e-138
-3.7331e-150
8.20737e-145
3.84932e-161
-3.7331e-150
-3.05418e-170
-1.03349e-161
-2.39352e-195
9.66844e-171
-5.7096e-220
-9.67123e-196
-4.69763e-230
2.40132e-220
-1.12337e-229
2.23781e-230
-2.75145e-229
6.00395e-230
-6.89243e-229
1.63624e-229
-1.76259e-228
4.52863e-229
-4.59437e-228
1.27173e-228
-1.21814e-227
3.62114e-228
-3.27987e-227
1.04404e-227
-8.94779e-227
3.04525e-227
-2.46927e-226
8.97269e-227
-6.87671e-226
2.66845e-226
-1.92974e-225
7.99841e-226
-5.44279e-225
2.41449e-225
-1.54066e-224
7.32939e-225
-4.36368e-224
2.23547e-224
-1.23459e-223
6.83865e-224
-3.47562e-223
2.09614e-223
-9.71285e-223
6.42461e-223
-2.6813e-222
1.9664e-222
-7.27889e-222
5.99934e-222
-1.92855e-221
1.82195e-221
-4.93447e-221
5.49978e-221
1.64776e-220
-1.18889e-220
8.48654e-109
-2.52225e-109
4.78724e-113
1.1595e-107
-3.36427e-108
8.94971e-107
-3.47814e-107
5.93005e-106
-3.39915e-106
3.71122e-105
-3.02143e-105
2.47457e-104
-2.69114e-104
1.65084e-103
-2.25373e-103
9.28363e-103
-1.46728e-102
4.74322e-102
-8.74963e-102
1.85045e-101
-5.37578e-101
2.90555e-101
-1.22961e-100
1.47528e-101
-1.36842e-100
2.27241e-102
-4.93005e-101
1.30136e-102
-5.85315e-102
5.32928e-102
-2.8697e-102
2.37428e-101
-1.05204e-101
8.69819e-101
-4.24457e-101
2.6523e-100
-1.43114e-100
6.80925e-100
-4.04155e-100
1.47533e-99
-9.53396e-100
2.7517e-99
-1.87344e-99
4.73702e-99
-3.13555e-99
8.81306e-99
-4.806e-99
2.08651e-98
-7.90226e-99
5.95129e-98
-1.6372e-98
1.7191e-97
-4.02462e-98
4.57328e-97
-9.81286e-98
1.09533e-96
-2.14727e-97
2.36726e-96
-4.0348e-97
4.63412e-96
-6.35328e-97
8.21739e-96
-9.09085e-97
1.27171e-95
-1.25832e-96
1.58824e-95
-1.52448e-96
2.10136e-95
-5.55175e-96
2.35249e-95
-2.17049e-96
2.45871e-95
-1.1481e-96
2.91743e-95
-4.69622e-96
1.74182e-95
1.06136e-95
1.07115e-95
6.48653e-96
5.50069e-96
5.10553e-96
2.09962e-96
3.32327e-96
6.33354e-97
1.41027e-96
1.16033e-97
4.89679e-97
3.41788e-103
1.09521e-97
-8.07043e-112
2.45947e-103
4.14028e-115
1.21523e-111
6.11673e-116
2.70764e-115
-2.26411e-122
5.5839e-116
3.16907e-128
-2.26406e-122
4.25948e-128
-3.83645e-130
4.53151e-138
-1.68443e-129
-2.33878e-143
-3.25783e-139
-7.20522e-150
2.53105e-144
-2.03831e-157
-6.08342e-150
-3.1868e-164
-2.03854e-157
-2.52881e-178
7.45279e-165
-4.71607e-196
-3.13471e-179
-3.71559e-210
1.55274e-196
-7.22707e-210
1.41152e-210
-1.43494e-209
3.12362e-210
-2.89901e-209
6.97445e-210
-5.94879e-209
1.56948e-209
-1.23741e-208
3.55889e-209
-2.60405e-208
8.1256e-209
-5.53185e-208
1.86599e-208
-1.18367e-207
4.30445e-208
-2.54499e-207
9.96182e-208
-5.48648e-207
2.31005e-207
-1.18304e-206
5.36078e-207
-2.54594e-206
1.24334e-206
-5.45364e-206
2.87799e-206
-1.15989e-205
6.63789e-206
-2.44097e-205
1.52261e-205
-5.06494e-205
3.46574e-205
-1.03117e-204
7.80631e-205
-2.0474e-204
1.73454e-204
-3.93116e-204
3.78704e-204
-7.20775e-204
8.08592e-204
-1.23746e-203
1.67631e-203
3.33626e-203
-1.90243e-203
1.01502e-107
-4.31024e-108
1.30578e-110
2.01301e-106
-9.50654e-107
1.38282e-105
-8.16277e-106
7.51818e-105
-5.55957e-105
4.2161e-104
-3.57833e-104
2.49379e-103
-2.49084e-103
1.29703e-102
-1.69838e-102
4.04704e-102
-9.08806e-102
-6.62054e-102
-2.92294e-101
-2.99167e-99
2.93107e-99
-9.4442e-97
9.41304e-97
-6.04207e-99
3.75699e-96
-3.73804e-95
3.73743e-95
-1.81965e-94
2.26878e-94
-5.41711e-94
4.57483e-94
-1.47685e-93
1.11137e-93
-3.88555e-93
2.73191e-93
-9.59038e-93
6.61692e-93
-1.11716e-92
1.45124e-92
-1.35613e-92
1.55068e-92
-1.55581e-92
1.70325e-92
-2.38204e-92
1.76441e-92
-4.17946e-92
2.36286e-92
-7.24374e-92
3.64745e-92
-1.21266e-91
5.55236e-92
-1.94298e-91
8.01494e-92
-2.09349e-91
2.22771e-92
-2.24157e-91
2.20159e-92
-2.32811e-91
1.57123e-92
-2.32355e-91
6.79868e-93
-2.1983e-91
-5.77472e-93
-6.09471e-92
-1.51234e-91
-3.72604e-92
-2.51328e-92
1.65239e-94
-4.1839e-92
4.29813e-94
-3.68987e-94
4.17781e-94
-4.3158e-95
2.38381e-94
1.32507e-94
8.39182e-95
1.57178e-94
5.73559e-95
3.05525e-95
3.46936e-95
2.54266e-95
1.53426e-95
2.08246e-95
5.68639e-96
9.9715e-96
1.4216e-96
4.31795e-96
3.80183e-102
1.41059e-96
8.11931e-112
2.88446e-102
6.75802e-114
1.58243e-111
2.25048e-114
1.96789e-114
-5.92101e-119
2.18415e-114
-2.64773e-120
-5.6585e-119
-2.23779e-122
-2.62535e-120
1.40441e-129
-2.23779e-122
7.05611e-139
-1.12553e-131
5.72626e-147
-5.47447e-140
-1.09804e-153
3.16893e-148
-3.09832e-163
-5.12063e-153
-1.8886e-167
2.09315e-165
-4.81194e-175
3.93807e-168
-1.33008e-180
1.30201e-175
-4.4791e-187
4.00729e-181
2.68982e-192
1.57039e-187
7.56831e-192
-1.05179e-192
2.12292e-191
-3.30807e-192
5.98093e-191
-9.9153e-192
1.59095e-190
-2.52143e-191
3.35242e-190
-4.67541e-191
3.95583e-190
-6.77496e-191
1.21476e-190
-1.36216e-190
1.11267e-190
-9.31943e-191
8.90638e-191
-9.2173e-191
4.7866e-191
-7.93625e-191
4.98126e-191
-4.58621e-191
1.15376e-190
-5.13564e-191
3.17718e-190
-1.2818e-190
9.07685e-190
-3.81154e-190
2.6318e-189
-1.17916e-189
7.76106e-189
-3.71746e-189
2.32846e-188
-1.19953e-188
7.10276e-188
-3.97794e-188
2.19463e-187
-1.36162e-187
-4.82845e-187
6.80953e-187
3.35578e-100
9.71019e-99
4.98452e-109
-1.76216e-96
1.00274e-96
1.09737e-96
2.99901e-96
-3.39912e-94
9.59862e-95
-3.7691e-93
1.60547e-93
-1.23176e-92
7.64237e-93
-3.99673e-92
2.88026e-92
-1.32369e-91
1.09693e-91
-4.40904e-91
4.16066e-91
-1.34541e-90
1.50605e-90
-2.74511e-90
4.37174e-90
-3.19461e-90
8.18643e-90
-3.96785e-90
9.2107e-90
-4.47059e-90
9.45872e-90
-4.6669e-90
9.10547e-90
-4.63943e-90
8.56853e-90
-3.76186e-90
7.9016e-90
1.07618e-90
5.91633e-90
1.68725e-89
-1.64039e-90
5.75548e-89
-2.35493e-89
1.43526e-88
-7.2986e-89
3.08908e-88
-1.6432e-88
6.14447e-88
-3.17124e-88
1.15142e-87
-5.60105e-88
2.03028e-87
-9.17646e-88
3.34644e-87
-1.37816e-87
5.19255e-87
-1.94951e-87
7.28914e-87
-2.26398e-87
9.41971e-87
-2.42632e-87
1.0664e-86
-1.70185e-87
8.66678e-87
-4.43384e-88
2.51997e-88
-2.75888e-87
5.99837e-89
-3.09226e-88
-8.83699e-91
-2.48651e-88
-4.47133e-91
-4.02993e-90
1.9514e-93
-2.28457e-91
1.73377e-93
-7.64347e-96
1.85999e-94
1.41047e-93
1.49752e-94
6.12201e-95
1.14112e-94
5.35753e-95
6.18132e-95
6.64713e-95
2.93092e-95
3.74956e-95
1.03567e-95
2.05992e-95
2.4124e-101
1.07603e-95
-8.5782e-110
1.8949e-101
-4.81567e-112
-5.0977e-110
2.60063e-113
-3.8157e-112
-2.12877e-116
2.26023e-113
-5.01308e-117
-3.36702e-116
-2.41689e-119
-4.9909e-117
3.35565e-125
-2.41943e-119
7.6414e-131
9.16229e-126
6.28732e-138
1.55558e-130
-1.10152e-151
6.28732e-138
-1.65117e-163
-3.92818e-151
-1.75779e-163
7.74758e-163
-7.61025e-162
7.43509e-162
-6.59501e-162
1.45218e-162
-5.70849e-162
1.33308e-162
-5.89032e-162
-3.42956e-163
-1.51972e-161
1.87587e-162
-3.02844e-161
4.55963e-162
-5.01485e-161
9.52729e-162
-6.77807e-161
1.72229e-161
-7.00585e-161
2.64961e-161
-4.59394e-161
3.26066e-161
-1.86142e-162
2.66095e-161
-2.63157e-162
1.25886e-162
-3.69775e-162
2.61667e-162
-2.60171e-162
2.80023e-162
-8.84027e-163
2.12724e-162
-1.01202e-163
7.75127e-163
6.02247e-164
9.57328e-164
-6.31529e-169
-6.15467e-164
-9.32279e-169
6.93023e-169
-3.27193e-168
1.09386e-168
-8.98187e-168
4.21133e-168
-1.58999e-167
1.25539e-167
-5.3131e-168
2.45121e-167
9.60202e-168
5.09337e-168
-2.9217e-96
-3.99627e-95
6.19782e-108
5.82422e-93
-9.39216e-93
3.92467e-92
-9.44606e-92
3.34223e-91
-2.62559e-91
3.87211e-90
-1.92671e-90
3.91956e-89
-2.25039e-89
3.3055e-88
-2.32353e-88
2.2604e-87
-1.93834e-87
1.20846e-86
-1.26304e-86
4.95656e-86
-6.03926e-86
1.83133e-85
-2.03672e-85
5.86187e-85
-6.14493e-85
1.70507e-84
-1.64798e-84
4.80255e-84
-4.16031e-84
1.31466e-83
-1.04625e-83
3.52791e-83
-2.60538e-83
9.12898e-83
-6.43351e-83
2.25434e-82
-1.53754e-82
5.28736e-82
-3.49461e-82
1.18164e-81
-7.4958e-82
2.52685e-81
-1.52263e-81
5.16002e-81
-2.93951e-81
1.00036e-80
-5.36533e-81
1.82737e-80
-9.14763e-81
3.11431e-80
-1.43169e-80
4.8804e-80
-2.00167e-80
6.87739e-80
-2.37766e-80
7.8826e-80
-1.62033e-80
6.98533e-80
-1.26858e-81
4.71851e-80
-5.29708e-82
3.35272e-81
-5.0621e-80
8.87847e-82
-2.25185e-80
2.02266e-82
-1.07731e-80
3.0508e-84
-2.81053e-81
3.58189e-86
-5.18308e-83
-1.47228e-85
-9.13907e-85
2.34867e-95
-6.08144e-86
6.58359e-95
-4.48679e-95
1.30604e-94
-8.37571e-96
1.76178e-94
-4.37349e-96
1.41314e-94
8.63314e-95
9.24418e-95
6.92126e-95
5.04625e-95
5.07716e-95
1.05481e-100
5.48913e-95
-2.86431e-108
8.22074e-101
-2.32006e-110
-1.8097e-108
1.59132e-112
-3.95705e-110
-6.10175e-115
1.32535e-112
-3.75778e-115
-2.47883e-115
-5.38307e-116
-2.44501e-115
-3.42409e-124
-5.3855e-116
8.85353e-129
-3.45442e-124
2.49936e-133
1.59601e-128
1.04065e-149
2.48572e-133
7.62887e-150
8.49573e-152
5.2045e-150
2.7915e-151
2.18099e-150
2.08187e-151
2.07089e-151
1.97391e-150
4.90309e-153
2.01875e-151
9.89619e-154
3.6597e-153
2.25601e-153
-2.50127e-154
5.21298e-153
-6.92568e-154
1.11221e-152
-1.8236e-153
2.06416e-152
-4.37683e-153
2.94326e-152
-9.02084e-153
2.37495e-152
-1.4112e-152
-3.96656e-156
-1.23762e-152
-3.50234e-156
2.23276e-156
1.01104e-155
-1.09602e-155
1.14918e-155
-6.58578e-156
7.22604e-156
-8.04722e-156
2.76579e-156
-5.44423e-156
1.31638e-156
-2.24515e-156
3.64888e-156
-1.1528e-156
9.39731e-156
-3.44828e-156
2.18418e-155
-9.57944e-156
4.39647e-155
-2.40757e-155
6.91368e-155
-5.28294e-155
1.21457e-155
-9.17361e-155
-1.81098e-155
1.77059e-155
-1.19444e-94
-9.29605e-94
5.32096e-108
-5.50802e-92
-3.04776e-90
4.36745e-87
-3.08483e-87
4.87752e-86
-5.00202e-86
2.75241e-85
-3.57987e-85
1.22437e-84
-1.79802e-84
5.25158e-84
-7.60993e-84
2.39809e-83
-3.08536e-83
1.16388e-82
-1.28913e-82
5.58155e-82
-5.44576e-82
2.46916e-81
-2.17743e-81
9.90947e-81
-8.06279e-81
3.62997e-80
-2.77635e-80
1.22921e-79
-8.96834e-80
3.89516e-79
-2.73602e-79
1.16609e-78
-7.92613e-79
3.31595e-78
-2.18606e-78
8.96142e-78
-5.73122e-78
2.30138e-77
-1.42192e-77
5.59985e-77
-3.33254e-77
1.28786e-76
-7.34704e-77
2.78977e-76
-1.51522e-76
5.66091e-76
-2.89688e-76
1.06696e-75
-5.05831e-76
1.84102e-75
-7.83927e-76
2.81356e-75
-9.9331e-76
3.56819e-75
-8.03685e-76
3.37855e-75
-2.12976e-77
-6.66305e-75
-1.04212e-74
-7.82579e-76
-2.94453e-75
2.94617e-78
-9.57971e-76
-8.68619e-78
-8.31077e-77
-6.14548e-79
-2.72315e-77
-2.43722e-79
-2.72664e-78
-4.34036e-80
-3.13514e-79
-5.75579e-81
-3.87774e-80
7.35476e-85
-5.01366e-81
2.42592e-91
-3.8527e-84
-1.78885e-92
-5.20843e-91
1.0415e-96
-3.07916e-92
8.31255e-95
-5.86309e-96
1.26236e-94
-1.9176e-95
1.41812e-94
-6.68478e-96
3.0939e-100
1.62912e-94
8.82555e-107
1.95601e-100
-2.14497e-109
9.26545e-107
6.1455e-112
-4.05428e-109
-1.25439e-114
4.42152e-112
-1.29881e-114
1.17064e-115
-1.32762e-114
3.8883e-115
-1.07917e-121
-7.66548e-115
-1.38561e-127
-1.08261e-121
5.68589e-131
5.302e-129
3.21482e-132
2.7641e-131
-1.55669e-146
4.8592e-132
-1.02207e-146
1.48166e-148
-7.00557e-147
4.92983e-148
-5.3347e-147
6.35904e-148
-1.33747e-147
3.87223e-147
3.86965e-147
6.10742e-147
8.01949e-147
6.10096e-147
4.20808e-147
8.1422e-147
-9.54183e-147
1.12784e-146
-3.18163e-146
8.03986e-147
-5.99174e-146
1.28781e-146
-4.58769e-146
2.00342e-146
1.2021e-145
-1.3161e-145
1.28209e-147
1.18928e-145
5.59016e-148
7.23076e-148
8.54568e-148
-3.1069e-148
9.09389e-148
-5.12554e-148
7.21959e-148
-5.87395e-148
4.02872e-148
-5.03218e-148
1.2144e-148
-3.03639e-148
1.42067e-150
-9.88332e-149
2.39357e-150
-1.24133e-150
-4.93544e-149
5.27907e-149
-7.89793e-147
7.8484e-147
-2.76441e-143
2.76362e-143
-2.45953e-143
-1.20607e-144
-8.25086e-94
-4.72437e-93
1.95098e-101
-8.22022e-89
-9.98044e-88
1.05498e-84
-8.07953e-85
2.80055e-83
-4.24954e-83
1.56449e-82
-3.0177e-82
6.49403e-82
-1.23999e-81
2.6879e-81
-4.46171e-81
1.11822e-80
-1.64463e-80
4.24353e-80
-5.99401e-80
1.39972e-79
-1.93686e-79
4.17474e-79
-5.36272e-79
1.20181e-78
-1.36117e-78
3.41315e-78
-3.4152e-78
9.50705e-78
-8.64483e-78
2.57939e-77
-2.18294e-77
6.7962e-77
-5.42874e-77
1.73439e-76
-1.31687e-76
4.26769e-76
-3.08927e-76
1.00644e-75
-6.95177e-76
2.25934e-75
-1.48821e-75
4.74022e-75
-3.00101e-75
9.39515e-75
-5.56879e-75
1.71585e-74
-9.53474e-75
2.81559e-74
-1.44249e-74
3.90978e-74
-1.77158e-74
3.77918e-74
-1.30876e-74
-5.19356e-76
-6.18819e-77
-1.94937e-72
-1.03348e-72
-2.08443e-72
-1.71377e-72
-8.37889e-73
-1.18108e-72
-1.6305e-73
-5.92574e-73
-4.36519e-74
-1.18834e-73
-9.30208e-75
-3.86145e-74
1.08855e-78
-1.05156e-74
-5.70226e-78
-5.12604e-77
-1.67324e-78
-1.2668e-77
1.83886e-83
-2.23739e-78
9.10785e-85
-2.05689e-82
1.00131e-86
-2.82595e-84
1.12726e-87
-1.48136e-85
2.97954e-93
-3.65841e-87
-6.01391e-95
-5.77886e-93
1.46532e-96
-5.47779e-93
1.39493e-100
-2.08062e-95
1.95796e-106
-5.13961e-101
5.65348e-109
8.73592e-108
1.15836e-111
5.81508e-111
-1.57116e-117
5.71038e-113
-1.80706e-115
2.95326e-115
-4.60516e-114
4.81462e-114
-2.1384e-119
-2.36425e-114
-3.14842e-128
-2.1492e-119
4.35607e-130
8.06625e-130
1.94552e-130
3.38284e-130
6.25686e-131
1.77927e-130
1.48088e-134
7.40772e-131
-3.20895e-142
-8.84826e-137
-3.28712e-142
1.64423e-143
-3.17917e-142
6.90572e-144
-3.07057e-142
5.21008e-144
-2.6143e-142
-2.75193e-143
-1.77221e-142
-6.19303e-143
-1.15537e-142
-4.91926e-143
-6.04459e-143
-5.13773e-143
-2.45069e-144
-4.30148e-143
1.67767e-142
-2.15957e-142
3.01435e-143
-1.78277e-142
2.46287e-142
6.72775e-143
1.06193e-142
1.06426e-142
8.73804e-144
5.69159e-143
-6.49435e-143
5.02444e-143
-2.25905e-142
8.38939e-143
-7.02092e-142
2.12769e-142
-2.1764e-141
6.45922e-142
-6.62919e-141
2.09064e-141
-1.88978e-140
6.69051e-141
-4.74684e-140
1.99835e-140
-9.8728e-140
5.33988e-140
-3.99132e-140
9.75555e-140
-4.53614e-140
-2.82211e-140
-3.03021e-93
-1.41506e-92
9.14666e-101
-6.80888e-88
-4.99566e-87
-7.85146e-86
-2.1839e-84
2.40331e-82
-3.26426e-82
3.11065e-81
-5.13823e-81
2.36378e-80
-3.29141e-80
1.67451e-79
-1.88815e-79
1.04899e-78
-1.10289e-78
5.48487e-78
-5.77274e-78
2.45363e-77
-2.51797e-77
1.00142e-76
-9.47744e-77
3.87447e-76
-3.32633e-76
1.42476e-75
-1.13292e-75
4.96166e-75
-3.73852e-75
1.63669e-74
-1.18444e-74
5.12121e-74
-3.58236e-74
1.5195e-73
-1.0293e-73
4.265e-73
-2.79432e-73
1.12841e-72
-7.12618e-73
2.80089e-72
-1.69566e-72
6.48185e-72
-3.73062e-72
1.38623e-71
-7.48763e-72
2.69841e-71
-1.33846e-71
4.65372e-71
-2.01154e-71
6.61092e-71
-2.09869e-71
-1.10973e-72
6.63579e-71
-8.78992e-72
4.07845e-73
-7.0433e-72
-2.96372e-72
-5.52802e-72
-3.03365e-72
-3.26867e-72
-2.84588e-72
-1.44522e-72
-2.09255e-72
-5.41096e-73
-8.92837e-73
-1.6777e-73
-3.90339e-73
-3.31165e-74
-1.45306e-73
-5.28161e-75
-2.86558e-74
-4.1077e-76
-4.97927e-75
-2.99118e-77
-4.28428e-76
1.01953e-81
-3.83293e-77
3.85174e-84
-9.14265e-81
1.52821e-84
-3.50182e-83
3.71837e-86
-8.40524e-84
7.42978e-88