/*--------------------------------*- C++ -*----------------------------------*\
  =========                 |
  \\      /  F ield         | OpenFOAM: The Open Source CFD Toolbox
   \\    /   O peration     | Website:  https://openfoam.org
    \\  /    A nd           | Version:  7
     \\/     M anipulation  |
\*---------------------------------------------------------------------------*/
FoamFile
{
    version     2.0;
    format      ascii;
    class       volScalarField;
    location    "5";
    object      epss;
}
// * * * * * * * * * * * * * * * * * * * * * * * * * * * * * * * * * * * * * //

dimensions      [0 0 0 0 0 0 0];

internalField   nonuniform List<scalar> 
49920
(
0.016095
0.317778
0.658766
0.592128
0.595662
0.524624
0.570929
0.697999
0.648345
0.566
0.59115
0.64917
0.602811
0.685637
0.531263
0.0962642
0.00462707
3.42374e-05
0
0
0
0
0
0
0
0
0
0
0
0
0
0
0
0
0
0
0
0
0
0
0
0
0
0
0
0
0
0
0
0
0
0
0
0
0
0
0
0
0
0
0
0
0
0
0
0
0
0
0
0
0
0
0
0
0
0
0
0
0
0
0.0166861
0.0608755
0.19764
0.545095
0.550565
0.408595
0.597817
0.438766
0.580047
0.544261
0.516155
0.566271
0.626881
0.437484
0.140447
0.0332602
0.00362227
6.51182e-06
0
0
0
0
0
0
0
0
0
0
0
0
0
0
0
0
0
0
0
0
0
0
0
0
0
0
0
0
0
0
0
0
0
0
0
0
0
0
0
0
0
0
0
0
0
0
0
0
0
0
0
0
0
0
0
0
0
0
0
0
0
0
0.00712533
0.01
0.0413921
0.131112
0.135748
0.0965589
0.14063
0.103562
0.13691
0.406648
0.413849
0.402034
0.263302
0.108853
0.0356629
0.0100005
0.00229914
0.000270292
0
0
0
0
0
0
0
0
0
0
0
0
0
0
0
0
0
0
0
0
0
0
0
0
0
0
0
0
0
0
0
0
0
0
0
0
0
0
0
0
0
0
0
0
0
0
0
0
0
0
0
0
0
0
0
0
0
0
0
0
3.12446e-74
1.7958e-73
0.00209667
0.00123923
0.00940328
0.0289914
0.0328351
0.0234174
0.0342266
0.0253526
0.0349681
0.0779031
0.096952
0.0979412
0.0654621
0.0398375
0.00902131
0.0024701
0.000865032
0.000283341
6.84967e-05
6.72241e-06
0
0
0
0
0
0
0
0
0
0
0
0
0
0
0
0
0
0
0
0
0
0
0
0
0
0
0
0
0
0
0
0
0
0
0
0
0
0
0
0
0
0
0
0
0
0
0
0
0
0
0
0
0
0
0
0
0
4.5432e-75
2.06211e-73
3.66846e-73
0.000391694
0.000197672
0.00239108
0.00613575
0.00919593
0.0062778
0.00835307
0.00630292
0.00881671
0.0111157
0.0281524
0.022905
0.0133678
0.00672132
0.00233818
0.000799101
0.000351878
0.000194024
0.000102411
4.4018e-05
1.45098e-05
2.58731e-06
0
0
0
0
0
0
0
0
0
0
0
0
0
0
0
0
0
0
0
0
0
0
0
0
0
0
0
0
0
0
0
0
0
0
0
0
0
0
0
0
0
0
0
0
0
0
0
0
0
0
0
0
0
0
7.6762e-75
2.89082e-73
0
0
3.40968e-06
0.000165953
0.000731107
0.00134961
0.0023231
0.00184079
0.00227108
0.00214024
0.00290106
0.000549444
0.00495279
0.00255269
0.00138705
0.000619585
0.000328508
0.000181361
0.000110449
8.16484e-05
6.53546e-05
5.25566e-05
3.95867e-05
2.59661e-05
1.40891e-05
5.9617e-06
1.60889e-06
0
0
0
0
0
0
0
0
0
0
0
0
0
0
0
0
0
0
0
0
0
0
0
0
0
0
0
0
0
0
0
0
0
0
0
0
0
0
0
0
0
0
0
0
0
0
0
0
0
0
4.56547e-74
3.42919e-73
0
0
1.97952e-57
0
0.000173516
0.000282938
0.000312307
0.000544812
0.000619056
0.000739344
0.000879923
0.00109029
0
0.000732589
0.000295606
0
0
0
3.45894e-06
7.12331e-06
8.52155e-06
1.04217e-05
1.27437e-05
1.3459e-05
1.22148e-05
1.08231e-05
9.43406e-06
7.16854e-06
4.32601e-06
2.11597e-06
8.1533e-07
2.32065e-07
3.42227e-08
0
0
0
0
0
0
0
0
0
0
0
0
0
0
0
0
0
0
0
0
0
0
0
0
0
0
0
0
0
0
0
0
0
0
0
0
0
0
0
0
0
0
0
0
1.38084e-73
5.07046e-73
0
0
3.1753e-54
5.12137e-53
3.4321e-05
0.000140714
0.000128966
8.35814e-05
0.000115394
0.000240334
0.000298227
0.000400685
0.000457559
7.34148e-05
0.000110288
0.000227736
0.000215639
0.000148537
6.04571e-05
1.24382e-05
2.97123e-06
4.22864e-06
1.3505e-06
0
0
5.5165e-07
1.97885e-06
3.25089e-06
3.87667e-06
3.49758e-06
2.48878e-06
1.44401e-06
6.92265e-07
2.71549e-07
8.31545e-08
1.74309e-08
1.38845e-10
0
0
0
0
0
0
0
0
0
0
0
0
0
0
0
0
0
0
0
0
0
0
0
0
0
0
0
0
0
0
0
0
0
0
0
0
0
0
0
0
1.20864e-73
4.46503e-73
0
0
4.55307e-54
4.77177e-53
9.56474e-53
5.33596e-05
9.13519e-05
5.80607e-05
2.64846e-05
2.01613e-05
9.78782e-05
0.000136667
0.000191771
0.00021229
9.34802e-05
3.23682e-05
0.00015533
0.000273219
0.000317113
0.000302715
0.000263207
0.000219801
0.000181834
0.000139997
8.93878e-05
4.12151e-05
5.56217e-06
0
0
0
9.26861e-07
1.30732e-06
1.21464e-06
9.11893e-07
5.7112e-07
2.79214e-07
8.64126e-08
6.78291e-09
0
0
0
0
0
0
0
0
0
0
0
0
0
0
0
0
0
0
0
0
0
0
0
0
0
0
0
0
0
0
0
0
0
0
0
0
0
0
0
1.36934e-73
7.32057e-73
0
0
6.90024e-55
3.66916e-53
1.09671e-52
0
4.77268e-05
4.69642e-05
2.03723e-05
6.1625e-06
1.51947e-07
3.80212e-05
6.86234e-05
0.000102572
0.00011705
8.32284e-05
2.91408e-05
5.87112e-05
0.000126121
0.000169373
0.000180429
0.000183096
0.000196653
0.000221772
0.000243878
0.000249386
0.000233909
0.000196464
0.000144208
8.75286e-05
3.39395e-05
0
0
4.34656e-07
5.87095e-07
4.82983e-07
2.56206e-07
7.20843e-08
3.47861e-09
0
0
0
0
0
0
0
0
0
0
0
0
0
0
0
0
0
0
0
0
0
0
0
0
0
0
0
0
0
0
0
0
0
0
0
0
0
0
3.30708e-74
5.04755e-73
1.23286e-72
0
0
1.13171e-53
6.97159e-53
1.17422e-52
0
3.05756e-05
1.71711e-05
3.13006e-06
1.6988e-08
2.84287e-07
2.25294e-05
4.99375e-05
7.56078e-05
8.74263e-05
7.65706e-05
4.06871e-05
1.94454e-05
2.21703e-05
2.93828e-05
3.28392e-05
4.04062e-05
5.85368e-05
8.18363e-05
0.000108255
0.000144954
0.000189916
0.000228576
0.000242318
0.000222443
0.000168174
8.14847e-05
0
0
0
0
0
0
0
0
0
0
0
0
0
0
0
0
0
0
0
0
0
0
0
0
0
0
0
0
0
0
0
0
0
0
0
0
0
0
0
0
0
0
0
0
3.73763e-75
1.6893e-73
5.60367e-73
0
0
2.57602e-54
2.53078e-53
5.39299e-53
0
0
1.40798e-05
2.7443e-06
0
2.64513e-06
1.25144e-05
3.31893e-05
5.72022e-05
7.54218e-05
8.12743e-05
7.31363e-05
4.93431e-05
2.04147e-05
3.57423e-07
0
0
1.6434e-07
2.39668e-06
6.19494e-06
1.18106e-05
2.68474e-05
5.79348e-05
9.82304e-05
0.000142296
0.000199879
0.000259183
0.000271643
0.000220424
0.00021181
0.000238286
0.000370841
0.000909557
0.00219546
0.00407557
0.00564875
0.0058815
0.00454455
0.00238045
0.000431181
0
0
0
0
0
0
0
0
0
0
0
0
0
0
0
0
0
0
0
0
0
0
0
0
0
0
0
0
0
0
0
0
1.86456e-74
3.05345e-73
6.99029e-73
0
0
6.24641e-54
3.12304e-53
0
0
3.91948e-41
3.71945e-06
0
4.43047e-06
1.39294e-05
3.06972e-05
5.06676e-05
6.79049e-05
7.67406e-05
7.50925e-05
6.46345e-05
4.69735e-05
2.54074e-05
7.35327e-06
8.78269e-07
0
0
0
0
0
0
2.96991e-06
1.19491e-05
3.36526e-05
6.05306e-05
0.00017931
0.000609914
0.00183376
0.00428058
0.00783798
0.0123616
0.0183387
0.0263022
0.0352708
0.0421654
0.0434758
0.0378737
0.0272758
0.0155665
0.00637804
0.00132882
0
0
0
0
0
0
0
0
0
0
0
0
0
0
0
0
0
0
0
0
0
0
0
0
0
0
0
0
0
0
5.13452e-74
2.56314e-73
0
0
4.61882e-55
8.99108e-54
2.31585e-53
0
0
4.04442e-39
3.36882e-07
3.66588e-06
1.42285e-05
2.80441e-05
4.48869e-05
5.94092e-05
6.75242e-05
6.764e-05
6.05983e-05
4.89761e-05
3.53078e-05
2.16189e-05
1.04721e-05
3.89798e-06
1.08144e-06
2.17519e-07
0
0
0
0
0
0
4.48589e-07
6.53719e-07
4.98798e-05
0.0014072
0.00653137
0.0172741
0.0333583
0.0530776
0.074953
0.0979049
0.119451
0.13448
0.137057
0.1244
0.0993951
0.0693033
0.0419284
0.0219772
0.010095
0.00420617
0.00135163
0
0
0
0
0
0
0
0
0
0
0
0
0
0
0
0
0
0
0
0
0
0
0
0
0
0
1.13129e-75
6.58147e-74
2.14813e-73
0
0
9.6449e-55
8.97358e-54
1.60103e-53
0
0
7.54852e-39
2.45845e-06
1.08992e-05
2.37229e-05
3.6802e-05
4.79451e-05
5.41189e-05
5.41232e-05
4.89368e-05
4.03238e-05
3.02823e-05
2.06714e-05
1.27391e-05
6.99055e-06
3.19477e-06
1.17784e-06
3.47132e-07
8.45928e-08
2.72413e-08
1.42565e-08
8.13149e-09
0
0
0
0
0
0.00285953
0.0147257
0.0405672
0.0803947
0.12887
0.178658
0.223766
0.259683
0.281493
0.283798
0.26387
0.22497
0.176232
0.128084
0.088111
0.0587835
0.0385989
0.0246901
0.014822
0.00803302
0.00376457
0.00136781
0.000188851
0
0
0
0
0
0
0
0
0
0
0
0
0
0
0
0
0
0
0
0
0
2.46168e-75
6.07584e-74
1.58718e-73
0
0
1.1006e-54
6.72483e-54
9.60639e-54
0
0
7.31216e-39
7.32497e-06
1.75005e-05
2.80969e-05
3.61494e-05
3.98451e-05
3.8928e-05
3.43694e-05
2.78834e-05
2.08191e-05
1.414e-05
8.66644e-06
4.84993e-06
2.53995e-06
1.205e-06
5.15773e-07
2.11228e-07
9.97579e-08
5.96547e-08
3.96586e-08
2.4843e-08
1.23315e-08
5.16481e-09
0
0
0
0.00455299
0.0243251
0.068736
0.138655
0.223678
0.307346
0.375755
0.422153
0.445112
0.444583
0.421049
0.37797
0.322703
0.264828
0.21183
0.166869
0.129512
0.0981751
0.0719246
0.050769
0.034828
0.0234043
0.0151116
0.00883874
0.00406898
0.000732877
0
0
0
0
0
0
0
0
0
0
0
0
0
0
0
0
0
0
3.62458e-75
3.3184e-74
0
0
1.06672e-56
7.95707e-55
2.81625e-54
0
0
7.56091e-41
1.16345e-39
1.19335e-05
2.03729e-05
2.59424e-05
2.78438e-05
2.59869e-05
2.16352e-05
1.6338e-05
1.13427e-05
7.19242e-06
4.02922e-06
1.91634e-06
7.73853e-07
2.95501e-07
1.2817e-07
7.1945e-08
5.70888e-08
5.26147e-08
4.41036e-08
3.09079e-08
1.83769e-08
9.85215e-09
4.80084e-09
1.69499e-09
8.42232e-11
0
0.00569377
0.0317875
0.0921185
0.188867
0.306881
0.420198
0.506238
0.556126
0.573971
0.568602
0.54681
0.512352
0.468869
0.420784
0.371854
0.323726
0.27648
0.230452
0.187406
0.149808
0.118773
0.0927553
0.0688692
0.0454715
0.0237762
0.00569738
0
0
0
0
0
0
0
0
0
0
0
0
0
0
0
0
0
0
1.94465e-75
1.21626e-74
0
0
9.58792e-57
1.31306e-55
8.75648e-56
0
0
0
0
1.41655e-05
1.87313e-05
1.91967e-05
1.67654e-05
1.27069e-05
8.39199e-06
4.80979e-06
2.36438e-06
9.41523e-07
2.43205e-07
1.29289e-08
0
0
0
0
4.60394e-09
1.8625e-08
2.51968e-08
1.90142e-08
2.085e-09
0
0
0
0
0
0.0057516
0.0345486
0.103478
0.216269
0.355017
0.486915
0.582437
0.630694
0.640638
0.629888
0.61239
0.593569
0.573128
0.549113
0.5198
0.483882
0.440981
0.39284
0.343723
0.298309
0.25768
0.217427
0.17127
0.118527
0.0675347
0.0261041
0.00712413
0.00357187
0.00228583
0.00090851
0
0
0
0
0
0
0
0
0
0
0
0
0
0
7.44784e-78
0
0
0
0
0
0
0
0.000860646
0.00252015
0.00526268
1.34283e-05
1.39425e-05
1.12235e-05
7.38421e-06
3.92903e-06
1.54918e-06
3.45273e-07
4.42231e-09
0
0
0
0
0
0
0
0
1.60399e-08
5.46474e-08
1.05139e-07
1.45249e-07
1.58688e-07
1.37841e-07
8.17817e-08
8.85998e-09
0
0.00494209
0.0329196
0.102965
0.220376
0.366725
0.50609
0.605
0.650708
0.654418
0.63928
0.624822
0.618798
0.618864
0.618607
0.612211
0.596052
0.568974
0.532974
0.493283
0.454981
0.416654
0.367969
0.298404
0.214635
0.139628
0.0841089
0.0516879
0.037695
0.029053
0.020724
0.0139506
0.00918208
0.00570957
0.00319388
0.0015942
0.000662573
0
0
0
0
0
0
0
0
0
0
0.000714412
0.00188275
0.00339542
0.00566394
0.00927516
0.0143125
0.0207472
0.029155
0.0404923
1.0482e-05
8.29068e-06
4.79794e-06
1.86271e-06
3.48478e-07
0
0
0
0
0
0
9.7389e-11
1.5642e-09
2.04412e-09
0
0
2.16263e-08
1.20353e-07
2.98058e-07
5.10383e-07
6.9385e-07
7.69314e-07
6.13738e-07
1.62992e-07
0
0.00397962
0.0297788
0.0972296
0.212826
0.35881
0.498616
0.597462
0.641619
0.64258
0.625287
0.611604
0.61077
0.620181
0.63213
0.639834
0.639418
0.629504
0.611606
0.590446
0.569565
0.542496
0.49122
0.406348
0.311085
0.2407
0.193534
0.156089
0.130249
0.10872
0.0876287
0.0698161
0.0558034
0.0443436
0.0347152
0.0269728
0.0213888
0.0170152
0.0126082
0.00725987
0.00433694
0.00842645
0.0101682
0.0120524
0.0140232
0.0162428
0.0193745
0.0243961
0.0311233
0.0386185
0.0471968
0.0581515
0.0718544
0.0880608
0.107398
0.130957
6.71613e-06
3.67833e-06
1.14266e-06
5.26641e-08
0
0
0
0
8.59252e-12
0
0
1.49356e-09
1.122e-08
2.12775e-08
1.96284e-08
1.42604e-08
5.14893e-08
1.99054e-07
4.73738e-07
8.39264e-07
1.22924e-06
1.49364e-06
1.29889e-06
4.25799e-07
0
0.00347445
0.0280352
0.0937194
0.20723
0.350755
0.487741
0.58383
0.626129
0.626635
0.609918
0.596908
0.596151
0.605142
0.617171
0.627066
0.63241
0.632348
0.627993
0.623094
0.618632
0.60218
0.552239
0.470635
0.39672
0.360142
0.338608
0.311125
0.281772
0.248982
0.215454
0.186534
0.162653
0.142193
0.12361
0.106569
0.0930489
0.0827693
0.0720395
0.0582305
0.0517793
0.0623571
0.0656636
0.0701116
0.0756399
0.0827372
0.0919476
0.104501
0.119814
0.135697
0.15159
0.169575
0.191385
0.216805
0.245447
0.277844
3.39373e-06
9.67302e-07
1.74935e-08
0
0
0
4.55944e-11
0
1.96881e-10
4.9654e-10
1.03538e-09
7.63415e-09
2.98476e-08
5.98287e-08
7.70073e-08
7.65622e-08
9.7847e-08
2.09228e-07
4.63524e-07
8.75394e-07
1.4067e-06
1.85248e-06
1.696e-06
5.86724e-07
0
0.0035074
0.028421
0.0948542
0.208833
0.351202
0.484689
0.576118
0.615142
0.615767
0.601829
0.591224
0.589737
0.594522
0.600856
0.606164
0.609755
0.611375
0.611989
0.614556
0.617557
0.605184
0.561883
0.50528
0.47444
0.476439
0.482628
0.476226
0.454339
0.419385
0.382078
0.349638
0.32201
0.297364
0.273407
0.249324
0.229396
0.215533
0.200016
0.18142
0.178883
0.188861
0.191674
0.196819
0.205107
0.217423
0.232715
0.251188
0.271995
0.292755
0.312211
0.332585
0.35679
0.384615
0.414277
0.445496
1.20608e-06
3.13694e-08
0
0
3.90637e-12
3.68536e-11
1.16303e-10
7.49369e-11
9.67751e-10
3.33086e-09
8.02849e-09
2.05271e-08
4.93481e-08
9.36687e-08
1.3292e-07
1.39671e-07
1.17335e-07
1.3061e-07
2.94645e-07
7.28141e-07
1.46439e-06
2.21945e-06
2.18407e-06
7.74495e-07
0
0.00366201
0.0293488
0.097397
0.213222
0.356178
0.487906
0.575727
0.612028
0.61312
0.602397
0.594605
0.592496
0.593018
0.593769
0.594525
0.595349
0.595617
0.595734
0.598135
0.600276
0.588171
0.558518
0.538644
0.547404
0.568838
0.589467
0.601773
0.593067
0.566279
0.536549
0.511297
0.489396
0.46853
0.446532
0.422913
0.403653
0.393342
0.377424
0.360463
0.369465
0.369904
0.371404
0.374897
0.382176
0.395604
0.412103
0.430332
0.449252
0.467292
0.483402
0.499539
0.518654
0.540141
0.561268
0.581522
1.76159e-07
0
0
5.18143e-12
3.18528e-11
7.72206e-11
2.32958e-10
7.27751e-10
2.93515e-09
8.6602e-09
1.89227e-08
3.3598e-08
5.74407e-08
9.70566e-08
1.39026e-07
1.46456e-07
9.78804e-08
4.36284e-08
1.30427e-07
5.68971e-07
1.50532e-06
2.6347e-06
2.81518e-06
1.07243e-06
0
0.00350175
0.0289232
0.0970701
0.213819
0.35837
0.491654
0.580308
0.617036
0.619026
0.609656
0.602285
0.598402
0.595556
0.593445
0.593268
0.594502
0.594773
0.593121
0.592042
0.590642
0.580185
0.567014
0.577412
0.603327
0.61944
0.637672
0.659859
0.664405
0.650439
0.633807
0.621558
0.610908
0.598787
0.584666
0.569586
0.559565
0.560449
0.548236
0.535357
0.551864
0.544568
0.545577
0.548876
0.550914
0.559139
0.57026
0.582531
0.594105
0.603408
0.610353
0.6176
0.627574
0.638606
0.647603
0.654506
0
0
1.54247e-12
1.61493e-11
5.26908e-11
1.51299e-10
5.90877e-10
2.16597e-09
5.84121e-09
1.38191e-08
2.59811e-08
3.71215e-08
4.85944e-08
7.00355e-08
9.70623e-08
1.01954e-07
6.2408e-08
7.13813e-09
4.9797e-08
3.90979e-07
1.23067e-06
2.36566e-06
2.68328e-06
1.1047e-06
0
0.00307167
0.0271976
0.0937441
0.209952
0.35648
0.49394
0.587333
0.627115
0.629558
0.618681
0.608976
0.602821
0.598571
0.596744
0.598657
0.602505
0.603794
0.600287
0.595596
0.592137
0.584737
0.581188
0.60013
0.61834
0.617714
0.630358
0.659993
0.675662
0.671649
0.664765
0.662739
0.661066
0.656334
0.650939
0.648069
0.651965
0.666809
0.660069
0.64754
0.656264
0.653521
0.654519
0.664303
0.659498
0.658663
0.661007
0.665825
0.669731
0.669779
0.667038
0.665818
0.668127
0.671288
0.672499
0.671866
0
0
3.96064e-12
2.38687e-11
8.73296e-11
3.56386e-10
1.29528e-09
3.89433e-09
8.26459e-09
1.55706e-08
2.4359e-08
2.88584e-08
2.94113e-08
3.42645e-08
4.47572e-08
4.82887e-08
3.27562e-08
8.14352e-09
2.51912e-08
1.9086e-07
6.47294e-07
1.3308e-06
1.58166e-06
6.59579e-07
0
0.00305824
0.0269608
0.0930083
0.209188
0.357134
0.497983
0.5953
0.637122
0.638505
0.624699
0.612676
0.606355
0.603845
0.60455
0.608766
0.613786
0.614343
0.608464
0.601551
0.597485
0.589518
0.581523
0.586946
0.586241
0.577172
0.596274
0.637005
0.660163
0.659374
0.654663
0.655293
0.655807
0.653547
0.653853
0.661347
0.677327
0.701947
0.700159
0.681871
0.668941
0.680898
0.682302
0.705625
0.695413
0.686675
0.682019
0.681537
0.680451
0.675042
0.667524
0.662654
0.661528
0.662004
0.662901
0.66314
0
0
4.56592e-12
3.99938e-11
1.89674e-10
7.34849e-10
2.14535e-09
5.03843e-09
8.75175e-09
1.30457e-08
1.62789e-08
1.55025e-08
1.16417e-08
9.3363e-09
1.08966e-08
1.36328e-08
1.37051e-08
1.11286e-08
1.3856e-08
4.79843e-08
1.64247e-07
3.69089e-07
4.67354e-07
1.68379e-07
0
0.00445389
0.0317988
0.102242
0.221609
0.370377
0.510059
0.605233
0.644376
0.642764
0.626708
0.614774
0.61133
0.61298
0.616819
0.621674
0.624764
0.622053
0.613742
0.606355
0.600601
0.584956
0.562126
0.547765
0.535604
0.535613
0.57239
0.622993
0.647316
0.64424
0.636631
0.634374
0.632223
0.629052
0.631776
0.644735
0.666088
0.692155
0.692394
0.665328
0.628379
0.654941
0.659632
0.696331
0.683221
0.67137
0.664815
0.66236
0.658728
0.652009
0.645765
0.642384
0.640821
0.641531
0.646333
0.651745
0
0
1.18297e-11
9.56103e-11
3.89134e-10
1.1835e-09
2.72722e-09
5.01383e-09
7.08602e-09
8.15751e-09
7.50963e-09
5.0385e-09
2.08281e-09
4.20536e-10
1.69767e-10
9.16161e-10
3.51661e-09
6.00135e-09
4.14887e-09
1.24923e-09
3.15768e-09
1.30646e-08
2.26219e-08
3.6372e-09
0
0.00715807
0.042509
0.124195
0.252192
0.401897
0.53465
0.61946
0.649779
0.643238
0.626117
0.616182
0.61673
0.622661
0.629037
0.633367
0.633194
0.626745
0.617163
0.610264
0.600021
0.572538
0.536587
0.513301
0.505822
0.525768
0.57763
0.627638
0.645702
0.638655
0.628336
0.623094
0.61852
0.614549
0.617895
0.631453
0.651119
0.671531
0.667402
0.632795
0.58147
0.61636
0.630255
0.670357
0.656253
0.646148
0.64253
0.641122
0.636805
0.631073
0.62872
0.628371
0.626913
0.62807
0.635766
0.643958
0
2.54423e-12
4.62508e-11
2.10908e-10
6.3737e-10
1.49484e-09
2.72542e-09
3.91558e-09
4.34665e-09
3.60599e-09
1.98401e-09
5.15278e-10
0
0
0
0
2.10967e-10
1.05681e-09
2.30347e-10
0
0
0
0
0
0.000332348
0.0145305
0.0640358
0.162541
0.301542
0.449691
0.5691
0.636444
0.65342
0.640896
0.623389
0.61557
0.618852
0.627318
0.635243
0.639319
0.637253
0.629185
0.620288
0.613494
0.596417
0.558976
0.520059
0.502589
0.510805
0.549137
0.60343
0.640637
0.647839
0.638374
0.628925
0.624351
0.620661
0.61745
0.620253
0.631208
0.645953
0.658694
0.641657
0.600088
0.552078
0.589904
0.618928
0.64931
0.635231
0.628718
0.629581
0.63122
0.62868
0.625103
0.625167
0.625467
0.62361
0.62532
0.632626
0.637488
1.01165e-12
2.59991e-11
1.225e-10
3.61698e-10
8.21318e-10
1.50174e-09
2.15367e-09
2.36473e-09
1.89901e-09
9.09147e-10
9.85018e-11
0
0
0
0
0
0
0
0
0
0
0
0
0.000942804
0.00920313
0.0403213
0.111367
0.227054
0.370089
0.506528
0.604172
0.649829
0.652949
0.635584
0.618392
0.611789
0.615477
0.624
0.632329
0.637091
0.635942
0.629754
0.623434
0.614968
0.589259
0.545815
0.512388
0.508482
0.53446
0.583426
0.629176
0.648193
0.644697
0.635559
0.630832
0.630761
0.630441
0.628078
0.628563
0.635472
0.646654
0.654642
0.61923
0.566558
0.541103
0.579036
0.625551
0.64002
0.626613
0.621984
0.6248
0.629496
0.631119
0.630485
0.630156
0.628058
0.625849
0.629047
0.633868
0.631152
1.96913e-11
8.29547e-11
2.26277e-10
4.80789e-10
8.39708e-10
1.19777e-09
1.31623e-09
1.02932e-09
4.70639e-10
3.53711e-11
0
0
2.9338e-12
4.12837e-12
2.80801e-12
6.7606e-13
0
0
0
0
0
0
0.000120246
0.00649681
0.0322156
0.0915461
0.190297
0.318862
0.452941
0.563744
0.631833
0.655372
0.647912
0.628664
0.61267
0.606175
0.608007
0.61433
0.622008
0.628331
0.6308
0.629645
0.626542
0.613176
0.576418
0.528838
0.503992
0.515413
0.556892
0.609397
0.642624
0.645796
0.63514
0.628536
0.630806
0.637259
0.64004
0.636128
0.63211
0.634968
0.645872
0.653538
0.602035
0.533718
0.541151
0.57707
0.638471
0.641036
0.628966
0.623325
0.623794
0.629313
0.635109
0.63687
0.634464
0.629655
0.628219
0.6331
0.635063
0.625677
6.80294e-11
1.62839e-10
3.11772e-10
5.01301e-10
6.77458e-10
7.35714e-10
5.73867e-10
2.52564e-10
1.54354e-11
0
0
2.11173e-12
2.99608e-12
3.35709e-12
0
0
0
0
0
0
0
0
0.000708854
0.0148069
0.0619166
0.153436
0.280808
0.417681
0.534427
0.612593
0.64967
0.654799
0.641809
0.623791
0.60957
0.602313
0.60107
0.604147
0.610519
0.61843
0.625391
0.630144
0.628884
0.607427
0.558761
0.509208
0.494915
0.521857
0.574443
0.624343
0.645383
0.638642
0.625156
0.621743
0.630902
0.643631
0.64734
0.639055
0.629986
0.630392
0.642848
0.652228
0.592955
0.511508
0.546433
0.578396
0.648763
0.646949
0.636555
0.629363
0.625586
0.629143
0.636171
0.63783
0.632919
0.627692
0.628571
0.633821
0.633214
0.621855
1.35977e-10
2.29416e-10
3.30382e-10
4.07394e-10
4.16285e-10
3.16901e-10
1.3557e-10
6.81413e-12
0
0
1.5678e-12
1.19388e-12
4.47706e-12
0
1.14275e-10
5.24288e-10
1.00399e-09
1.46102e-09
1.63258e-09
1.26381e-09
5.51137e-10
0
0.00127137
0.0223388
0.0882409
0.207228
0.357444
0.498066
0.596271
0.644799
0.657148
0.65107
0.638077
0.623797
0.611552
0.603281
0.599364
0.599701
0.604212
0.611931
0.621241
0.62987
0.628664
0.599972
0.54458
0.499325
0.498233
0.538001
0.593584
0.634485
0.645013
0.634342
0.621305
0.619772
0.632651
0.64867
0.651277
0.639232
0.628713
0.629885
0.642671
0.651953
0.592744
0.507531
0.55325
0.581407
0.655101
0.651589
0.642034
0.636366
0.63114
0.631778
0.636705
0.635741
0.628154
0.623883
0.627406
0.631834
0.629779
0.621291
1.88985e-10
2.44094e-10
2.68722e-10
2.48078e-10
1.76469e-10
7.00896e-11
2.12387e-12
0
0
4.82816e-13
2.64512e-13
8.27886e-12
1.25849e-11
0
3.5559e-10
3.62952e-10
0
0
0
1.10314e-09
5.25797e-10
0
0.00351896
0.0346832
0.11861
0.25716
0.417928
0.55272
0.630999
0.656444
0.653932
0.645072
0.636825
0.627607
0.616978
0.607719
0.60238
0.601287
0.603515
0.608481
0.616553
0.626134
0.625554
0.596572
0.545197
0.511183
0.521898
0.566163
0.615025
0.643325
0.646519
0.636402
0.625334
0.623158
0.634001
0.647633
0.648502
0.638299
0.633575
0.638811
0.64865
0.65444
0.59856
0.51917
0.55563
0.585337
0.659042
0.652199
0.641733
0.641198
0.639253
0.638275
0.640565
0.637241
0.626789
0.621322
0.625291
0.629239
0.628427
0.625567
1.8801e-10
1.97244e-10
1.62304e-10
1.02096e-10
3.79386e-11
3.11141e-13
0
0
3.12652e-13
3.41293e-13
0
1.96216e-11
2.59795e-11
1.20869e-10
1.73399e-10
0
7.93709e-07
1.24703e-06
7.16538e-08
0
0
0.000226181
0.0154985
0.0684759
0.174692
0.324028
0.477789
0.591502
0.645309
0.653242
0.64454
0.638482
0.636191
0.630988
0.620939
0.610666
0.604828
0.603488
0.604011
0.605622
0.610715
0.619844
0.622619
0.602057
0.563595
0.541296
0.555256
0.593203
0.630269
0.648785
0.649655
0.642692
0.634156
0.629664
0.633044
0.638398
0.637767
0.635744
0.642382
0.652522
0.656903
0.658076
0.60656
0.53796
0.546063
0.587016
0.65751
0.650622
0.63915
0.643324
0.645452
0.644419
0.646765
0.644334
0.631723
0.621534
0.622074
0.625918
0.628938
0.632205
1.23901e-10
1.15644e-10
6.6817e-11
2.09624e-11
4.48174e-14
0
0
5.94397e-14
8.26461e-14
0
1.77531e-12
3.23189e-11
6.14311e-11
2.549e-10
0
7.14207e-09
9.8006e-07
1.55765e-07
0
0.000770264
0.00485996
0.0199071
0.0619978
0.145246
0.269868
0.414265
0.541793
0.622151
0.650572
0.647114
0.637489
0.63443
0.634979
0.631361
0.621743
0.611263
0.605261
0.603862
0.603695
0.603496
0.60632
0.614833
0.622489
0.614428
0.590202
0.57279
0.578729
0.603149
0.630627
0.647202
0.651198
0.648803
0.64369
0.637672
0.632146
0.626869
0.62442
0.631154
0.647516
0.660029
0.659578
0.658694
0.615043
0.55597
0.523472
0.580169
0.642737
0.649304
0.6409
0.644845
0.645336
0.643843
0.64962
0.651711
0.639683
0.62487
0.619214
0.620721
0.626645
0.634663
3.29399e-11
4.26869e-11
1.54881e-11
0
0
0
0
0
5.65446e-13
2.76014e-12
1.42805e-11
5.01235e-11
9.27661e-11
2.28172e-10
0
4.4003e-08
3.64639e-07
0
0.000237912
0.00557627
0.0250352
0.0697461
0.147916
0.258345
0.386484
0.507358
0.596258
0.641726
0.65104
0.643186
0.635248
0.633435
0.634243
0.631843
0.624463
0.615435
0.609118
0.606408
0.605013
0.603679
0.604774
0.611886
0.622929
0.62572
0.611617
0.591137
0.58163
0.591361
0.615227
0.637813
0.64937
0.652575
0.651766
0.646468
0.635152
0.62163
0.616338
0.6261
0.644424
0.655279
0.653297
0.65422
0.624021
0.567586
0.495763
0.559976
0.612755
0.647876
0.648649
0.64768
0.638917
0.634534
0.644844
0.653104
0.646051
0.631831
0.620414
0.615475
0.619682
0.629677
0
5.48452e-12
2.58817e-13
0
0
0
1.24719e-13
1.16529e-12
4.43516e-12
1.21597e-11
2.99013e-11
5.76739e-11
8.29382e-11
1.01916e-10
0
1.36317e-08
2.23662e-08
0
0.000192298
0.0100153
0.0462333
0.121927
0.234957
0.366259
0.48847
0.579068
0.629508
0.645949
0.642967
0.635195
0.631486
0.633337
0.636992
0.637572
0.633046
0.625544
0.618743
0.614008
0.610164
0.606579
0.60503
0.609218
0.620764
0.630252
0.621275
0.593307
0.567053
0.565214
0.591137
0.624747
0.64637
0.655029
0.657334
0.653689
0.641188
0.624399
0.616399
0.623684
0.637139
0.643494
0.642914
0.647637
0.632128
0.570237
0.47121
0.531181
0.580104
0.64528
0.656699
0.650802
0.6311
0.6219
0.634512
0.648047
0.649306
0.641279
0.627101
0.614432
0.613513
0.622613
0
0
0
0
0
5.60269e-13
2.27085e-12
5.67613e-12
1.18019e-11
2.20318e-11
3.49809e-11
4.36983e-11
3.96247e-11
0
0
0
1.33719e-08
0
0
0.0112913
0.0579537
0.15571
0.294828
0.441197
0.55704
0.622797
0.643267
0.637581
0.625229
0.618619
0.622217
0.633313
0.644046
0.647049
0.641516
0.633027
0.626883
0.622987
0.618424
0.61273
0.60828
0.609106
0.619076
0.630529
0.621448
0.584262
0.544487
0.536908
0.569313
0.615331
0.646143
0.657286
0.658694
0.655312
0.645
0.630072
0.621929
0.626416
0.63415
0.635721
0.636706
0.644569
0.635006
0.56462
0.453278
0.507008
0.564165
0.642902
0.658314
0.65103
0.627316
0.614713
0.62547
0.641313
0.650208
0.648669
0.634752
0.61875
0.614657
0.621574
0.000216062
0
2.27673e-13
8.77472e-13
2.54829e-12
5.36202e-12
8.97462e-12
1.32621e-11
1.78275e-11
2.10122e-11
1.8022e-11
1.48098e-11
0
1.76318e-08
3.87123e-07
1.07417e-06
1.10428e-06
4.10915e-08
0
0.0144512
0.0710033
0.184876
0.339178
0.490363
0.596648
0.643086
0.643485
0.623792
0.605626
0.600836
0.612252
0.633278
0.65
0.651558
0.640419
0.629059
0.625892
0.627698
0.627046
0.622321
0.617125
0.616366
0.62447
0.633423
0.618339
0.571002
0.523628
0.517996
0.559854
0.615373
0.650029
0.658381
0.65462
0.649847
0.643829
0.634869
0.629845
0.634118
0.639717
0.638761
0.639608
0.647775
0.627085
0.550331
0.445762
0.498007
0.573025
0.642685
0.65293
0.647017
0.628899
0.617228
0.623079
0.637627
0.649494
0.6496
0.637339
0.624379
0.621669
0.627076
0.0013124
0
4.56766e-12
1.06732e-11
1.42073e-11
1.58333e-11
1.55062e-11
1.2578e-11
7.40885e-12
0
0
0
0
3.51409e-07
1.86213e-06
3.678e-06
2.71436e-06
0
0.00129062
0.0240478
0.0959194
0.225274
0.385381
0.528211
0.616425
0.644349
0.632892
0.609456
0.593071
0.592369
0.607984
0.631583
0.647624
0.645202
0.629636
0.617382
0.618353
0.627063
0.632524
0.631477
0.628332
0.629145
0.637331
0.641833
0.617039
0.560543
0.51292
0.516127
0.566739
0.624298
0.655164
0.656952
0.647105
0.641072
0.6404
0.63933
0.638844
0.643963
0.65067
0.650978
0.651328
0.6542
0.606337
0.522963
0.453213
0.507583
0.596533
0.643364
0.645201
0.641135
0.633076
0.625853
0.627266
0.638587
0.647764
0.644829
0.635024
0.627644
0.627184
0.632322
0.00314577
0
1.38404e-11
3.278e-11
3.02352e-11
1.74877e-11
5.68742e-12
0
0
9.58363e-10
1.0663e-08
2.21436e-08
1.09194e-07
1.11218e-06
3.97642e-06
6.43007e-06
3.38835e-06
0
0.00427136
0.0391779
0.130232
0.274834
0.434969
0.561076
0.62522
0.633994
0.615151
0.595406
0.588143
0.594828
0.611028
0.628665
0.637383
0.631582
0.617621
0.609274
0.613835
0.625354
0.633265
0.634386
0.633868
0.638688
0.649859
0.651605
0.619239
0.559082
0.518045
0.531386
0.583751
0.633811
0.656462
0.653479
0.64095
0.634839
0.638463
0.644292
0.648074
0.653026
0.660601
0.66525
0.668002
0.657995
0.57842
0.483184
0.473563
0.534347
0.618523
0.641876
0.638042
0.635851
0.636218
0.634185
0.6348
0.643362
0.645913
0.638803
0.633406
0.630443
0.628787
0.634085
0.00540328
0
1.54925e-11
3.93401e-11
2.4542e-11
0
0
1.30152e-09
7.89437e-09
2.49267e-08
6.90475e-08
1.30585e-07
4.85321e-07
2.60726e-06
7.29955e-06
9.55718e-06
2.88099e-06
0
0.00905987
0.0580514
0.168303
0.326321
0.484889
0.594628
0.636337
0.626856
0.600056
0.583436
0.586339
0.602381
0.619589
0.629141
0.628181
0.619648
0.611149
0.610226
0.617765
0.627188
0.631552
0.63072
0.631089
0.639468
0.653889
0.655678
0.623394
0.569108
0.53791
0.554266
0.596857
0.633247
0.65036
0.649528
0.639421
0.633907
0.639148
0.649419
0.657077
0.660455
0.665238
0.674139
0.683617
0.656833
0.554503
0.447208
0.49822
0.567888
0.631676
0.638377
0.630466
0.63011
0.635942
0.639376
0.643199
0.649945
0.644756
0.634133
0.634719
0.636179
0.632095
0.637473
0.00786328
0
6.09994e-12
1.52007e-11
0
0
4.26421e-09
1.74153e-08
4.5815e-08
1.05274e-07
2.33847e-07
4.8801e-07
1.49644e-06
5.13511e-06
1.12419e-05
1.17876e-05
9.94393e-07
0
0.0157607
0.0795128
0.207283
0.376209
0.533238
0.630652
0.655646
0.631501
0.59627
0.578986
0.587412
0.610231
0.629586
0.634671
0.6269
0.615818
0.611339
0.616586
0.625982
0.63139
0.630068
0.626017
0.625971
0.634576
0.648109
0.650474
0.626183
0.585915
0.562564
0.571075
0.595806
0.6199
0.63831
0.645759
0.641464
0.637299
0.642794
0.655512
0.666031
0.666596
0.664717
0.674768
0.692377
0.654688
0.544568
0.437918
0.516593
0.588622
0.637988
0.636292
0.62244
0.622517
0.632124
0.642124
0.650458
0.655752
0.645159
0.631003
0.63503
0.642712
0.641001
0.646966
0.0103773
0
0
0
0
1.15918e-08
3.95471e-08
8.9252e-08
1.78824e-07
3.45727e-07
6.60058e-07
1.32832e-06
3.0079e-06
6.81392e-06
1.14649e-05
9.65431e-06
0
0.000618328
0.0238635
0.102243
0.245809
0.422388
0.574605
0.658756
0.670264
0.63843
0.601905
0.586253
0.595554
0.617471
0.635285
0.639171
0.630642
0.619526
0.616174
0.622604
0.630807
0.632584
0.628629
0.625079
0.625852
0.63117
0.637954
0.638441
0.624757
0.600472
0.581114
0.576625
0.584612
0.602319
0.625789
0.642066
0.644351
0.643433
0.650157
0.66333
0.673466
0.670604
0.662685
0.671226
0.692663
0.65706
0.554168
0.462821
0.5157
0.583476
0.64031
0.637827
0.616946
0.615902
0.627879
0.643027
0.653152
0.658804
0.648332
0.630894
0.632338
0.645011
0.65065
0.657845
0.0125536
0
0
8.72288e-09
4.64715e-08
1.16991e-07
2.20208e-07
3.60223e-07
5.57275e-07
8.57992e-07
1.3364e-06
2.21597e-06
3.67495e-06
5.69641e-06
7.11148e-06
4.62803e-06
0
0.00248136
0.0346481
0.128263
0.284823
0.462046
0.600254
0.664546
0.663517
0.633236
0.607748
0.601469
0.610643
0.624533
0.634526
0.636836
0.632108
0.625333
0.623299
0.62748
0.631486
0.63023
0.627533
0.629034
0.632871
0.633389
0.629764
0.625241
0.619906
0.609658
0.5939
0.57914
0.574994
0.588949
0.616389
0.639434
0.647843
0.651201
0.659501
0.670098
0.675575
0.670403
0.66255
0.670019
0.6875
0.663856
0.582671
0.507083
0.491822
0.556031
0.637466
0.643275
0.616556
0.614382
0.627396
0.64182
0.648873
0.659017
0.654169
0.635567
0.631285
0.644041
0.654743
0.66175
0.0138804
0
1.55984e-08
1.85187e-07
3.56767e-07
5.5573e-07
7.86337e-07
1.00722e-06
1.22059e-06
1.46971e-06
1.79971e-06
2.2894e-06
2.66583e-06
2.55073e-06
1.74239e-06
5.77254e-07
0
0.00322097
0.0391883
0.139298
0.300268
0.473759
0.599075
0.648509
0.641411
0.618883
0.60944
0.616025
0.626844
0.632294
0.63206
0.630307
0.629118
0.628779
0.63031
0.632986
0.632829
0.629167
0.628599
0.635516
0.642672
0.639244
0.626366
0.616706
0.617425
0.619675
0.609778
0.587744
0.570802
0.578201
0.608636
0.639094