/*--------------------------------*- C++ -*----------------------------------*\
  =========                 |
  \\      /  F ield         | OpenFOAM: The Open Source CFD Toolbox
   \\    /   O peration     | Website:  https://openfoam.org
    \\  /    A nd           | Version:  7
     \\/     M anipulation  |
\*---------------------------------------------------------------------------*/
FoamFile
{
    version     2.0;
    format      ascii;
    class       volScalarField;
    location    "5";
    object      k1Write;
}
// * * * * * * * * * * * * * * * * * * * * * * * * * * * * * * * * * * * * * //

dimensions      [0 2 0 0 0 0 0];

internalField   nonuniform List<scalar> 
49920
(
1.36405e-16
1.1665e-19
3.39658e-21
7.17939e-21
6.91166e-21
1.44798e-20
8.99027e-21
2.0973e-21
3.83782e-21
9.46639e-21
7.2551e-21
3.80119e-21
6.39698e-21
2.45163e-21
1.35369e-20
2.9549e-18
1.7088e-15
3.16447e-11
0.000167073
0.000167073
0.000167073
0.000167073
0.000167073
0.000167073
0.000167074
0.000167074
0.000167074
0.000167074
0.000167074
0.000167074
0.000167074
0.000167074
0.000167074
0.000167074
0.000167074
0.000167074
0.000167074
0.000167074
0.000167075
0.000167074
0.000167075
0.000167074
0.000167075
0.000167074
0.000167075
0.000167074
0.000167074
0.000167074
0.000167074
0.000167078
0.000167072
0.00016708
0.00016707
0.000167078
0.000167067
0.000167079
0.00016707
0.000167077
0.00016707
0.000167077
0.00016707
0.000167076
0.00016707
0.000167076
0.00016707
0.000167076
0.00016707
0.000167075
0.00016707
0.000167075
0.00016707
0.000167075
0.00016707
0.000167074
0.00016707
0.000167074
0.00016707
0.000167074
0.000167071
0.000167074
1.26676e-16
8.29107e-18
4.90576e-19
1.17534e-20
1.11104e-20
4.59636e-20
6.75273e-21
3.40653e-20
8.16626e-21
1.18544e-20
1.57726e-20
9.43957e-21
4.90365e-21
3.45006e-20
1.19437e-18
3.02987e-17
2.79676e-15
8.74848e-10
0.000167073
0.000167073
0.000167073
0.000167073
0.000167073
0.000167074
0.000167074
0.000167074
0.000167075
0.000167075
0.000167075
0.000167075
0.000167075
0.000167075
0.000167075
0.000167075
0.000167076
0.000167076
0.000167076
0.000167076
0.000167076
0.000167076
0.000167076
0.000167077
0.000167075
0.000167076
0.000167073
0.000167074
0.000167074
0.000167081
0.000167081
0.000167077
0.000167081
0.00016707
0.000167083
0.000167069
0.000167081
0.000167071
0.000167078
0.000167071
0.000167077
0.00016707
0.000167077
0.00016707
0.000167076
0.00016707
0.000167076
0.000167069
0.000167075
0.000167069
0.000167075
0.000167069
0.000167074
0.000167069
0.000167074
0.00016707
0.000167073
0.000167069
0.000167073
0.00016707
0.000167072
0.000167072
7.15566e-16
3.59974e-16
1.90735e-17
1.41564e-18
1.29958e-18
2.93402e-18
1.19051e-18
2.49178e-18
1.27248e-18
4.68648e-20
4.36207e-20
4.9074e-20
2.13947e-19
2.21574e-18
2.61579e-17
3.59919e-16
6.96971e-15
5.07371e-13
0.000167072
0.000167072
0.000167073
0.000167073
0.000167074
0.000167074
0.000167075
0.000167075
0.000167075
0.000167075
0.000167075
0.000167075
0.000167076
0.000167076
0.000167076
0.000167077
0.000167078
0.000167078
0.000167078
0.000167078
0.000167078
0.000167077
0.000167077
0.000167076
0.000167076
0.000167074
0.000167076
0.000167078
0.000167086
0.000167083
0.000167085
0.000167076
0.000167076
0.000167082
0.000167073
0.000167074
0.000167078
0.000167075
0.000167076
0.000167074
0.000167074
0.000167073
0.000167073
0.000167072
0.000167073
0.000167072
0.000167072
0.000167071
0.000167072
0.000167071
0.000167071
0.000167071
0.000167071
0.000167071
0.000167071
0.000167071
0.000167071
0.000167071
0.000167072
0.00016707
0.000167072
0.000167072
8.38808e-15
2.4072e-14
4.07831e-16
4.04084e-17
3.11298e-17
6.30083e-17
2.85263e-17
5.34372e-17
2.72665e-17
4.79259e-18
2.90649e-18
2.83872e-18
7.06577e-18
2.06917e-17
4.43606e-16
6.03518e-15
4.94484e-14
4.61697e-13
7.90528e-12
8.20895e-10
0.000167073
0.000167073
0.000167074
0.000167074
0.000167075
0.000167075
0.000167075
0.000167075
0.000167076
0.000167076
0.000167077
0.000167078
0.000167079
0.000167079
0.00016708
0.000167079
0.00016708
0.000167078
0.000167079
0.000167077
0.000167079
0.000167077
0.00016708
0.00016708
0.000167086
0.000167086
0.000167086
0.000167089
0.000167076
0.000167084
0.000167076
0.000167078
0.00016707
0.000167078
0.000167074
0.000167078
0.000167073
0.000167077
0.000167071
0.000167075
0.00016707
0.000167074
0.000167069
0.000167073
0.000167069
0.000167073
0.000167068
0.000167072
0.000167068
0.000167072
0.000167068
0.000167072
0.000167068
0.000167072
0.000167069
0.000167073
0.00016707
0.000167072
0.00016707
0.000167072
2.41569e-13
9.49065e-13
6.44227e-15
9.67322e-16
4.26677e-16
9.23668e-16
5.18454e-16
9.16258e-16
4.64722e-16
2.90338e-16
4.29645e-17
6.59627e-17
1.99384e-16
8.04713e-16
6.73806e-15
5.79554e-14
2.99292e-13
9.84879e-13
3.53604e-12
1.91437e-11
1.762e-10
5.54176e-09
0.000167074
0.000167075
0.000167075
0.000167076
0.000167077
0.000167076
0.000167077
0.000167077
0.000167078
0.000167079
0.000167079
0.00016708
0.00016708
0.000167081
0.00016708
0.000167082
0.00016708
0.000167083
0.00016708
0.000167086
0.000167083
0.00016709
0.000167083
0.000167089
0.000167082
0.000167082
0.000167083
0.000167075
0.000167076
0.000167075
0.000167073
0.000167077
0.000167075
0.000167076
0.000167073
0.000167074
0.000167071
0.000167073
0.00016707
0.000167072
0.000167069
0.000167071
0.000167069
0.00016707
0.000167068
0.00016707
0.000167068
0.000167069
0.000167068
0.000167069
0.000167069
0.00016707
0.00016707
0.000167071
0.000167071
0.000167072
0.000167071
0.000167072
3.19121e-09
1.34641e-12
6.92544e-14
2.02843e-14
6.82586e-15
1.08871e-14
7.14321e-15
8.04658e-15
4.36959e-15
1.22679e-13
1.48995e-15
5.64953e-15
1.92018e-14
9.64562e-14
3.43416e-13
1.12723e-12
3.03999e-12
5.56344e-12
8.68377e-12
1.34284e-11
2.367e-11
5.5018e-11
1.86882e-10
1.04378e-09
1.43318e-08
0.000167077
0.000167077
0.000167078
0.000167077
0.000167079
0.000167079
0.000167081
0.000167081
0.000167082
0.000167083
0.000167083
0.000167084
0.000167083
0.000167085
0.000167085
0.000167087
0.000167087
0.000167089
0.000167083
0.000167089
0.000167077
0.000167088
0.000167074
0.000167082
0.000167069
0.000167081
0.000167067
0.000167081
0.000167068
0.000167081
0.000167067
0.000167079
0.000167066
0.000167077
0.000167065
0.000167076
0.000167064
0.000167075
0.000167064
0.000167074
0.000167064
0.000167073
0.000167064
0.000167072
0.000167064
0.000167071
0.000167065
0.000167071
0.000167066
0.000167072
0.00016707
0.000167076
0.000167071
0.000167073
0.000167071
0.000167078
1.23152e-12
4.63044e-13
3.79993e-13
1.24774e-13
9.66169e-14
6.77108e-14
4.77846e-14
3.11052e-14
0.000167068
6.89698e-14
4.24156e-13
0.000167069
0.00016707
0.000167071
3.10064e-09
7.31091e-10
5.10854e-10
3.41552e-10
2.28423e-10
2.04788e-10
2.48638e-10
3.16691e-10
4.16817e-10
7.21912e-10
1.98233e-09
8.28588e-09
5.58078e-08
6.88887e-07
3.16768e-05
0.000167083
0.000167083
0.000167084
0.000167085
0.000167086
0.000167086
0.000167086
0.000167087
0.000167088
0.000167089
0.00016709
0.000167088
0.000167086
0.000167088
0.000167078
0.000167093
0.000167068
0.000167089
0.000167066
0.000167084
0.000167065
0.000167082
0.000167065
0.000167081
0.000167065
0.00016708
0.000167064
0.000167078
0.000167063
0.000167077
0.000167063
0.000167076
0.000167062
0.000167074
0.000167062
0.000167073
0.000167062
0.000167072
0.000167062
0.000167072
0.000167063
0.000167071
0.000167064
0.000167072
0.000167068
0.000167075
0.000167072
0.000167074
0.000167073
0.000167073
3.14906e-11
1.87276e-12
2.2297e-12
5.30904e-12
2.78491e-12
6.41761e-13
4.16705e-13
2.30776e-13
1.76946e-13
6.88126e-12
3.04882e-12
7.14784e-13
7.97257e-13
1.68063e-12
1.01476e-11
2.39776e-10
4.20211e-09
2.07461e-09
2.03401e-08
0.000167074
0.000167076
1.21907e-07
9.47391e-09
3.51031e-09
2.4685e-09
3.03265e-09
5.98951e-09
1.77923e-08
7.74157e-08
5.03132e-07
5.36548e-06
0.000122108
0.000167087
0.000167087
0.000167088
0.000167088
0.000167089
0.000167089
0.00016709
0.00016709
0.000167089
0.000167087
0.000167088
0.000167081
0.000167094
0.000167069
0.000167091
0.000167068
0.000167085
0.000167067
0.000167082
0.000167065
0.000167081
0.000167064
0.000167079
0.000167064
0.000167077
0.000167063
0.000167076
0.000167063
0.000167075
0.000167062
0.000167073
0.000167062
0.000167072
0.000167062
0.000167071
0.000167062
0.00016707
0.000167062
0.00016707
0.000167063
0.00016707
0.000167066
0.000167073
0.000167071
0.000167074
0.000167073
0.000167072
0.000167073
1.30267e-11
4.44396e-12
1.10027e-11
5.28828e-11
9.12557e-11
3.87092e-12
1.9852e-12
1.00809e-12
8.22606e-13
4.24394e-12
3.54041e-11
1.53681e-12
4.96536e-13
3.68547e-13
4.04455e-13
5.35058e-13
7.67354e-13
1.12139e-12
1.89204e-12
4.64172e-12
2.18367e-11
1.19911e-09
0.000167076
0.000167077
0.000167081
4.3186e-08
2.17076e-08
2.5147e-08
4.46164e-08
1.13744e-07
4.75895e-07
4.96855e-06
0.000167087
0.000167087
0.000167087
0.000167088
0.000167088
0.000167089
0.000167088
0.000167089
0.000167087
0.000167088
0.000167083
0.000167093
0.000167073
0.000167091
0.000167072
0.000167086
0.00016707
0.000167083
0.000167068
0.00016708
0.000167067
0.000167078
0.000167066
0.000167076
0.000167065
0.000167074
0.000167064
0.000167073
0.000167064
0.000167072
0.000167063
0.000167071
0.000167063
0.000167069
0.000167063
0.000167068
0.000167062
0.000167068
0.000167063
0.000167068
0.000167065
0.00016707
0.00016707
0.000167073
0.000167073
0.000167072
0.000167074
0.000167074
1.62826e-11
1.68155e-11
8.93741e-11
9.76787e-10
1.60671e-06
2.56574e-11
7.87548e-12
3.5247e-12
2.70664e-12
5.35395e-12
4.36808e-11
1.07599e-11
2.33127e-12
1.29248e-12
1.13891e-12
1.10597e-12
9.58711e-13
7.53782e-13
6.23283e-13
5.96051e-13
6.77571e-13
9.60574e-13
1.78315e-12
4.84127e-12
3.2205e-11
0.000167088
0.000167087
1.96378e-07
1.07637e-07
1.59044e-07
5.65191e-07
7.13997e-06
0.000167083
0.000167083
0.000167083
0.000167082
0.000167084
0.000167081
0.000167086
0.000167083
0.000167085
0.000167083
0.000167087
0.000167076
0.000167086
0.000167076
0.000167082
0.000167075
0.000167079
0.000167073
0.000167076
0.000167072
0.000167074
0.000167071
0.000167072
0.00016707
0.000167071
0.00016707
0.000167069
0.000167069
0.000167068
0.000167068
0.000167067
0.000167067
0.000167066
0.000167066
0.000167065
0.000167066
0.000167065
0.000167065
0.000167065
0.000167066
0.000167067
0.00016707
0.000167072
0.000167074
0.000167073
0.000167074
0.000167074
0.000167075
3.96742e-11
1.25796e-10
3.78603e-09
0.000128534
4.58981e-07
7.30776e-11
1.48729e-11
6.48767e-12
4.85206e-12
6.32564e-12
2.24057e-11
9.81e-11
7.54665e-11
4.29644e-11
3.43963e-11
2.27191e-11
1.08246e-11
5.53791e-12
3.16455e-12
1.76482e-12
1.02798e-12
7.09576e-13
6.31375e-13
7.49293e-13
1.31113e-12
5.58624e-12
0.000167084
0.000167081
0.000167083
0.00016708
0.000167082
0.000167079
0.000167081
0.000167079
0.000167077
0.000167077
0.000167074
0.000167078
0.000167074
0.00016708
0.000167081
0.000167081
0.000167081
0.000167077
0.000167077
0.000167073
0.000167078
0.000167072
0.000167078
0.000167069
0.000167077
0.000167068
0.000167076
0.000167066
0.000167075
0.000167065
0.000167075
0.000167065
0.000167074
0.000167064
0.000167073
0.000167063
0.000167072
0.000167063
0.00016707
0.000167062
0.000167069
0.000167062
0.000167068
0.000167062
0.000167068
0.000167064
0.000167071
0.00016707
0.000167076
0.000167074
0.000167075
0.000167072
0.000167075
0.000167074
1.87104e-10
4.925e-09
0.000167045
5.30136e-09
2.36842e-10
3.36717e-11
1.13347e-11
6.51966e-12
5.61446e-12
6.93361e-12
1.52336e-11
8.90041e-11
2.90374e-07
0.000167067
0.000167069
1.37359e-06
6.45829e-09
9.66637e-10
2.65943e-10
5.14648e-11
1.10511e-11
3.84377e-12
1.83152e-12
9.28091e-13
5.51857e-13
5.02367e-13
7.63072e-13
8.26422e-13
6.52925e-13
2.69472e-13
4.47223e-14
7.64642e-15
2.20635e-15
1.14311e-15
1.05368e-15
1.77194e-15
6.50038e-15
1.99283e-13
0.000167072
0.000167075
0.00016707
0.000167084
0.000167074
0.000167082
0.000167066
0.000167076
0.000167064
0.000167078
0.000167063
0.000167077
0.000167062
0.000167076
0.000167061
0.000167075
0.000167061
0.000167075
0.00016706
0.000167074
0.00016706
0.000167073
0.00016706
0.000167072
0.00016706
0.000167071
0.00016706
0.00016707
0.00016706
0.000167069
0.00016706
0.000167069
0.000167063
0.000167072
0.000167069
0.000167077
0.000167075
0.000167079
0.000167074
0.000167076
0.000167074
0.000167077
2.68119e-09
0.000167042
1.88954e-09
1.91155e-10
3.93592e-11
1.44467e-11
8.04296e-12
6.29745e-12
6.57701e-12
8.87774e-12
1.68094e-11
5.74594e-11
6.8604e-10
4.80916e-08
0.000167069
0.00016707
0.000167071
0.000167072
0.000167074
0.000167078
4.20615e-09
2.59835e-10
3.27567e-11
1.01238e-11
1.15324e-12
9.9548e-14
1.09721e-14
1.99881e-15
5.89797e-16
2.33889e-16
1.04357e-16
4.95066e-17
2.67772e-17
1.83376e-17
1.71783e-17
2.30361e-17
4.58992e-17
1.46074e-16
8.94706e-16
2.09258e-14
0.000167078
0.000167069
0.000167086
0.000167077
0.000167085
0.000167061
0.000167074
0.000167059
0.000167073
0.000167057
0.000167073
0.000167056
0.000167072
0.000167056
0.000167071
0.000167056
0.00016707
0.000167056
0.000167069
0.000167057
0.000167069
0.000167057
0.000167068
0.000167057
0.000167067
0.000167058
0.000167067
0.000167059
0.000167068
0.000167061
0.000167071
0.000167067
0.000167077
0.000167075
0.000167083
0.000167078
0.000167081
0.000167074
0.000167078
0.000167075
3.26839e-07
2.75998e-09
1.83197e-10
4.71567e-11
1.84067e-11
1.05075e-11
8.13381e-12
8.10617e-12
1.00998e-11
1.54626e-11
2.97526e-11
7.93633e-11
3.38249e-10
2.44139e-09
3.17195e-08
7.84049e-07
0.000167072
0.000167073
0.000167077
0.000167082
0.000167088
0.000167087
1.84363e-07
8.68118e-08
1.4909e-11
1.8656e-14
8.52743e-16
1.17995e-16
3.01135e-17
1.11812e-17
5.22733e-18
2.84131e-18
1.77523e-18
1.33015e-18
1.2692e-18
1.60944e-18
2.7433e-18
6.22761e-18
1.85598e-17
7.18603e-17
3.53151e-16
2.07064e-15
2.02239e-14
0.000167088
0.000167085
0.000167089
0.000167061
0.00016707
0.000167054
0.000167068
0.000167055
0.000167064
0.000167055
0.000167064
0.000167052
0.000167064
0.000167052
0.000167065
0.000167052
0.000167065
0.000167053
0.000167064
0.000167054
0.000167064
0.000167055
0.000167064
0.000167057
0.000167065
0.000167059
0.000167068
0.000167065
0.000167075
0.000167074
0.000167083
0.000167079
0.000167082
0.000167071
0.000167072
0.000167063
0.000167065
6.13713e-09
3.12224e-10
6.59006e-11
2.73821e-11
1.6133e-11
1.26622e-11
1.26606e-11
1.54871e-11
2.28104e-11
4.04474e-11
8.68044e-11
2.28571e-10
7.59086e-10
3.6345e-09
2.67399e-08
3.07855e-07
5.18409e-06
4.99912e-05
0.000167079
0.000167086
0.000167086
0.000167082
0.000167078
0.000167079
0.000167081
4.49821e-15
1.63632e-16
1.99085e-17
4.46379e-18
1.47672e-18
6.43994e-19
3.46538e-19
2.23222e-19
1.73674e-19
1.69229e-19
2.12557e-19
3.41275e-19
6.67809e-19
1.49912e-18
3.62382e-18
8.95262e-18
2.21276e-17
5.6459e-17
1.61475e-16
5.61182e-16
2.5884e-15
1.97496e-14
1.03955e-12
0.000167067
0.000167054
0.000167067
0.000167053
0.000167066
0.000167053
0.000167061
0.000167049
0.000167059
0.000167048
0.00016706
0.000167051
0.000167061
0.000167052
0.000167061
0.000167053
0.000167061
0.000167055
0.000167062
0.000167058
0.000167065
0.000167062
0.000167071
0.00016707
0.000167078
0.000167075
0.000167076
0.000167066
0.000167063
0.00016705
0.00016705
0.000167046
6.91314e-10
1.21101e-10
4.69792e-11
2.83797e-11
2.33593e-11
2.44736e-11
3.13976e-11
4.77057e-11
8.55765e-11
1.85519e-10
4.93872e-10
1.57702e-09
5.75008e-09
2.55478e-08
1.39449e-07
8.31453e-07
3.72779e-06
1.04248e-05
2.35883e-05
6.01133e-05
0.000167081
0.000167078
0.000167078
0.000167081
0.000167077
1.76519e-15
5.82267e-17
6.34125e-18
1.23311e-18
3.46917e-19
1.30509e-19
6.39166e-20
4.01664e-20
3.19925e-20
3.21608e-20
4.06113e-20
6.25042e-20
1.10695e-19
2.10203e-19
4.04844e-19
7.70528e-19
1.45898e-18
2.8232e-18
5.73294e-18
1.23107e-17
2.74972e-17
6.30767e-17
1.55213e-16
4.62404e-16
2.21333e-15
6.89133e-14
0.000167066
0.000167057
0.000167063
0.000167059
0.000167059
0.000167048
0.00016705
0.00016705
0.000167055
0.000167054
0.000167057
0.000167055
0.000167058
0.000167057
0.000167059
0.000167059
0.000167061
0.000167061
0.000167065
0.000167066
0.000167071
0.000167069
0.000167072
0.000167066
0.000167063
0.000167055
0.000167049
0.000167053
0.000167065
2.60466e-10
8.93605e-11
5.5107e-11
4.7837e-11
5.49187e-11
7.92352e-11
1.38952e-10
2.88301e-10
7.17035e-10
2.28483e-09
1.01009e-08
6.19437e-08
4.24827e-07
2.25818e-06
7.16691e-06
1.13824e-05
1.34008e-05
1.90728e-05
3.88359e-05
0.000109856
0.000167078
0.000167078
0.000167081
0.000167077
0.000167062
1.12478e-15
3.33202e-17
3.27124e-18
5.54999e-19
1.31166e-19
4.09518e-20
1.74257e-20
1.04904e-20
8.70762e-21
9.21269e-21
1.1549e-20
1.63895e-20
2.52866e-20
4.07189e-20
6.65014e-20
1.09499e-19
1.8383e-19
3.18369e-19
5.66815e-19
1.01591e-18
1.79963e-18
3.21988e-18
6.31469e-18
1.56049e-17
6.10557e-17
1.12345e-15
0.000167069
0.00016706
0.000167073
0.000167085
0.000167083
0.000167061
0.000167046
0.000167047
0.000167053
0.00016705
0.000167058
0.000167054
0.00016706
0.000167056
0.000167061
0.000167057
0.000167062
0.000167058
0.000167063
0.000167063
0.000167066
0.000167072
0.000167074
0.000167076
0.00016707
0.000167062
0.000167073
0.000167094
0.000167116
1.84852e-10
1.05712e-10
1.00644e-10
1.3195e-10
2.29701e-10
5.26655e-10
1.60332e-09
6.63513e-09
4.1844e-08
6.2713e-07
0.000167057
0.000167061
0.000167066
0.000167069
0.00016707
0.000167072
0.000106945
5.84356e-05
0.000102615
0.000167079
0.000167078
0.00016708
0.000167079
0.000167061
0.000167054
1.10206e-15
2.79665e-17
2.49634e-18
3.81801e-19
7.89729e-20
2.11349e-20
7.9618e-21
4.69757e-21
4.19497e-21
4.74061e-21
5.76101e-21
7.0696e-21
8.78555e-21
1.12789e-20
1.52049e-20
2.1785e-20
3.33295e-20
5.38103e-20
8.87621e-20
1.4404e-19
2.28549e-19
3.76106e-19
7.19848e-19
1.80866e-18
6.5948e-18
5.02892e-17
7.15404e-16
2.87643e-15
7.05126e-15
4.48279e-14
0.00016713
0.000167077
0.000167055
0.000167054
0.000167042
0.000167052
0.000167047
0.000167057
0.000167054
0.000167059
0.000167054
0.00016706
0.000167054
0.000167059
0.000167056
0.000167061
0.000167067
0.000167078
0.00016709
0.00016709
0.000167082
0.000167076
4.99588e-14
5.7987e-15
1.31894e-15
2.0571e-10
1.90806e-10
2.94445e-10
6.80216e-10
2.40264e-09
1.54548e-08
3.11137e-07
0.00016705
0.000167053
0.000167056
0.000167058
0.00016706
0.000167064
0.000167067
0.000167068
0.000167071
0.000144195
1.2423e-05
3.35613e-06
1.75848e-06
1.47325e-06
1.95257e-06
5.54648e-06
0.000167053
0.000167053
1.49631e-15
3.0959e-17
2.52562e-18
3.61951e-19
7.00522e-20
1.74509e-20
6.24618e-21
3.73367e-21
3.57514e-21
4.26073e-21
5.01833e-21
5.36702e-21
5.36319e-21
5.37855e-21
5.77253e-21
6.88324e-21
9.1772e-21
1.33043e-20
1.98373e-20
2.90152e-20
4.24227e-20
6.91761e-20
1.43885e-19
3.90096e-19
1.21189e-18
4.02896e-18
1.18415e-17
2.32637e-17
4.02236e-17
8.11039e-17
1.82768e-16
4.2809e-16
1.11866e-15
3.60152e-15
1.45254e-14
8.43211e-14
0.000167044
0.000167044
0.000167054
0.000167051
0.00016705
0.000167049
0.000167051
0.000167052
0.000167055
0.000167059
7.25273e-14
1.04066e-14
3.18537e-15
1.13699e-15
4.1939e-16
1.73437e-16
8.09339e-17
3.99423e-17
1.99912e-17
3.37611e-10
5.39645e-10
1.61125e-09
1.069e-08
3.05433e-07
0.000167043
0.000167046
0.000167049
0.000167053
0.000167057
0.000167059
0.00016706
0.000167061
0.000167065
0.000167069
0.000167073
7.93228e-05
2.56127e-06
4.17605e-07
1.42419e-07
7.70594e-08
6.26825e-08
9.84762e-08
1.39626e-06
0.000167054
2.3143e-15
3.82038e-17
2.88701e-18
3.99466e-19
7.59544e-20
1.88064e-20
6.77846e-21
4.14777e-21
4.10225e-21
4.99214e-21
5.81082e-21
5.86443e-21
5.2852e-21
4.62213e-21
4.23397e-21
4.25423e-21
4.76136e-21
5.81105e-21
7.31057e-21
9.12032e-21
1.20715e-20
2.02491e-20
4.70069e-20
1.25342e-19
2.80309e-19
5.19496e-19
9.15108e-19
1.43859e-18
2.22185e-18
3.66853e-18
6.12511e-18
1.00282e-17
1.64663e-17
2.76851e-17
4.69717e-17
7.599e-17
1.2169e-16
2.2462e-16
6.88539e-16
1.94655e-15
5.09307e-16
3.47923e-16
2.46227e-16
1.80796e-16
1.33854e-16
9.31846e-17
5.78747e-17
3.483e-17
2.21019e-17
1.44061e-17
9.16593e-18
5.74492e-18
3.62814e-18
2.2875e-18
1.41989e-18
8.2239e-10
2.74158e-09
2.84084e-08
1.33735e-05
0.000167044
0.000167044
0.000167046
0.000167049
0.000167053
0.000167057
0.000167061
0.000167061
0.00016706
8.19364e-05
9.62857e-05
0.000167074
1.39936e-05
9.3633e-07
1.65306e-07
5.26697e-08
2.4553e-08
1.66277e-08
2.19866e-08
2.04597e-07
0.000167056
3.04082e-15
4.33363e-17
3.1437e-18
4.30377e-19
8.25151e-20
2.0961e-20
7.84448e-21
4.94501e-21
4.91706e-21
5.91926e-21
6.81942e-21
6.87539e-21
6.23691e-21
5.46474e-21
4.89369e-21
4.6075e-21
4.61074e-21
4.84303e-21
5.11639e-21
5.37699e-21
6.44135e-21
1.09207e-20
2.48461e-20
5.1754e-20
7.49295e-20
9.36104e-20
1.2528e-19
1.731e-19
2.53456e-19
3.85856e-19
5.73867e-19
8.23214e-19
1.15808e-18
1.6342e-18
2.32932e-18
3.19622e-18
4.1783e-18
5.71142e-18
9.13737e-18
1.17956e-17
7.86408e-18
7.01712e-18
6.06739e-18
5.12043e-18
4.18182e-18
3.28506e-18
2.43922e-18
1.76204e-18
1.30071e-18
9.85841e-19
7.38763e-19
5.35475e-19
3.79153e-19
2.64552e-19
1.8099e-19
3.22084e-09
3.9645e-08
0.00012121
0.000167047
0.000167045
0.000167045
0.000167046
0.000167048
0.000167053
0.000167058
0.000167063
0.000167064
4.1639e-05
1.03633e-05
6.25564e-06
6.32891e-06
3.87507e-06
8.47487e-07
1.72669e-07
4.84135e-08
1.87484e-08
1.08093e-08
1.28964e-08
1.07759e-07
0.00016706
2.98367e-15
4.21173e-17
3.0574e-18
4.21228e-19
8.21346e-20
2.16071e-20
8.51197e-21
5.58824e-21
5.54986e-21
6.46547e-21
7.24928e-21
7.36575e-21
6.9971e-21
6.53438e-21
6.16781e-21
5.93016e-21
5.82569e-21
5.78647e-21
5.62513e-21
5.44146e-21
6.23416e-21
9.88192e-21
1.75943e-20
2.39255e-20
2.3455e-20
2.20559e-20
2.35038e-20
2.91963e-20
4.12804e-20
5.99522e-20
8.34732e-20
1.11493e-19
1.45523e-19
1.90356e-19
2.52427e-19
3.22572e-19
3.8548e-19
4.747e-19
6.18176e-19
6.41781e-19
5.55021e-19
5.33255e-19
4.96139e-19
4.42853e-19
3.76067e-19
3.09401e-19
2.46845e-19
1.93462e-19
1.53117e-19
1.23821e-19
9.97026e-20
7.75464e-20
5.84418e-20
4.34352e-20
3.18699e-20
2.55026e-08
3.76971e-05
0.000167054
0.000167049
0.000167047
0.000167046
0.000167046
0.000167048
0.000167053
0.000167058
0.000167064
8.80391e-05
1.52331e-05
4.22803e-06
2.09972e-06
1.90178e-06
2.6948e-06
2.17479e-06
4.27346e-07
6.99819e-08
1.7299e-08
7.53051e-09
7.77688e-09
6.18447e-08
0.000167065
2.73582e-15
3.93832e-17
2.87544e-18
3.97375e-19
7.80321e-20
2.09261e-20
8.54703e-21
5.78329e-21
5.71429e-21
6.42559e-21
6.99059e-21
7.151e-21
7.11106e-21
7.05399e-21
6.99696e-21
6.93517e-21
6.91524e-21
6.90655e-21
6.72994e-21
6.57574e-21
7.4905e-21
1.02336e-20
1.25564e-20
1.14782e-20
9.18958e-21
7.38703e-21
6.46943e-21
7.10704e-21
9.43828e-21
1.28266e-20
1.65618e-20
2.06182e-20
2.53675e-20
3.15416e-20
3.98593e-20
4.82822e-20
5.35299e-20
6.28375e-20
7.46756e-20
6.8122e-20
6.78182e-20
6.67922e-20
6.44664e-20
5.98924e-20
5.23296e-20
4.43814e-20
3.70315e-20
3.0704e-20
2.56809e-20
2.18858e-20
1.86334e-20
1.53795e-20
1.23649e-20
9.94477e-21
8.0396e-21
1.19546e-06
0.000167066
0.000167057
0.000167051
0.000167048
0.000167047
0.000167047
0.000167048
0.000167052
0.000167059
0.000103601
3.28634e-05
1.12435e-05
3.93815e-06
1.9194e-06
1.72966e-06
3.87241e-06
1.9491e-05
2.1811e-06
1.14605e-07
1.63696e-08
5.34416e-09
4.68104e-09
3.22562e-08
0.000167069
2.99346e-15
4.06041e-17
2.89798e-18
3.94257e-19
7.62953e-20
2.01588e-20
8.14298e-21
5.47224e-21
5.35288e-21
5.93599e-21
6.43337e-21
6.70999e-21
6.91943e-21
7.07849e-21
7.09206e-21
6.99866e-21
6.97831e-21
7.10343e-21
7.1863e-21
7.295e-21
8.15461e-21
9.36686e-21
8.39729e-21
6.36132e-21
5.32871e-21
4.33965e-21
3.35284e-21
3.17625e-21
3.7453e-21
4.53461e-21
5.20423e-21
5.85495e-21
6.68181e-21
7.77479e-21
9.11698e-21
1.01216e-20
1.0029e-20
1.1379e-20
1.29829e-20
1.09614e-20
1.1816e-20
1.16944e-20
1.13044e-20
1.10696e-20
1.01667e-20
9.0529e-21
7.95336e-21
7.02804e-21
6.35526e-21
5.89078e-21
5.4383e-21
4.86535e-21
4.29343e-21
3.8709e-21
3.57134e-21
0.000167074
0.000167068
0.000167058
0.000167052
0.000167049
0.000167048
0.000167047
0.000167048
0.000167051
0.000167059
5.49559e-05
2.6921e-05
1.57101e-05
7.56344e-06
3.93788e-06
3.56921e-06
9.52585e-06
0.000167099
1.49637e-05
2.42673e-07
2.44916e-08
6.62907e-09
5.15264e-09
3.03996e-08
0.000167072
3.89548e-15
4.61658e-17
3.14174e-18
4.14982e-19
7.77892e-20
1.97044e-20
7.55675e-21
4.89035e-21
4.75776e-21
5.37337e-21
5.98042e-21
6.39601e-21
6.69772e-21
6.83131e-21
6.69169e-21
6.41833e-21
6.32905e-21
6.57483e-21
6.91677e-21
7.17891e-21
7.76982e-21
8.06834e-21
6.58601e-21
5.39425e-21
5.43178e-21
4.71536e-21
3.34755e-21
2.7725e-21
2.91113e-21
3.16259e-21
3.23996e-21
3.30505e-21
3.49524e-21
3.72338e-21
3.8498e-21
3.67897e-21
3.0859e-21
3.34424e-21
3.87348e-21
3.49799e-21
3.61256e-21
3.57054e-21
3.17993e-21
3.36702e-21
3.40046e-21
3.30735e-21
3.12263e-21
2.97936e-21
2.97767e-21
3.07754e-21
3.12291e-21
3.03754e-21
2.92386e-21
2.88128e-21
2.90352e-21
0.000167075
0.000167068
0.000167058
0.000167052
0.000167049
0.000167049
0.000167048
0.000167047
0.00016705
0.000153002
6.25192e-05
4.45453e-05
4.28868e-05
3.15989e-05
1.852e-05
1.59104e-05
3.45783e-05
0.000167107
5.84644e-05
1.01822e-06
8.85376e-08
2.09478e-08
1.48299e-08
8.52757e-08
0.000167072
3.93001e-15
4.70156e-17
3.19948e-18
4.19231e-19
7.72686e-20
1.89248e-20
6.93797e-21
4.3666e-21
4.29818e-21
5.0247e-21
5.74219e-21
6.15436e-21
6.3252e-21
6.27685e-21
5.99441e-21
5.67273e-21
5.63803e-21
6.01447e-21
6.48526e-21
6.77714e-21
7.38322e-21
8.03963e-21
7.58892e-21
7.64618e-21
8.41843e-21
6.8662e-21
4.37278e-21
3.34078e-21
3.37213e-21
3.56471e-21
3.53837e-21
3.51705e-21
3.61157e-21
3.59862e-21
3.29396e-21
2.71642e-21
1.99331e-21
2.03978e-21
2.56868e-21
3.00776e-21
2.59972e-21
2.55505e-21
1.90049e-21
2.16751e-21
2.41992e-21
2.56406e-21
2.57941e-21
2.61421e-21
2.79346e-21
3.05964e-21
3.24322e-21
3.28696e-21
3.26841e-21
3.23373e-21
3.22454e-21
0.000167074
0.000167067
0.000167058
0.000167052
0.00016705
0.00016705
0.000167048
0.000167047
0.000167049
0.000167058
0.000139987
0.000154364
0.000167075
0.000167077
0.00016708
0.000167086
0.000167101
0.000167109
0.000167058
1.61083e-05
1.37517e-06
2.72331e-07
1.69851e-07
1.30853e-06
0.00016707
1.84514e-15
3.3297e-17
2.56768e-18
3.56231e-19
6.74934e-20
1.67685e-20
6.22988e-21
4.01788e-21
4.09323e-21
4.91273e-21
5.61085e-21
5.82787e-21
5.72305e-21
5.48562e-21
5.19763e-21
5.02136e-21
5.17584e-21
5.67553e-21
6.15473e-21
6.55242e-21
7.75159e-21
9.85673e-21
1.14356e-20
1.29518e-20
1.29505e-20
8.85334e-21
5.12187e-21
3.88386e-21
4.02453e-21
4.39136e-21
4.50558e-21
4.61679e-21
4.78506e-21
4.64012e-21
4.00139e-21
3.11273e-21
2.25891e-21
2.25207e-21
3.14117e-21
4.82127e-21
3.5529e-21
3.36163e-21
2.1423e-21
2.52617e-21
2.92087e-21
3.16062e-21
3.25456e-21
3.39791e-21
3.6772e-21
3.95408e-21
4.11132e-21
4.18584e-21
4.15185e-21
3.92822e-21
3.68865e-21
0.00016707
0.000167064
0.000167056
0.000167052
0.000167049
0.000167049
0.000167049
0.000167047
0.000167047
0.000167056
0.000167069
0.000167077
0.000167076
0.000167076
0.000167081
0.00016709
0.000167107
0.000167091
0.000167037
0.000167046
0.000167077
0.000167075
7.24929e-05
0.000167077
0.000167074
7.08532e-16
1.80209e-17
1.61563e-18
2.43906e-19
4.91368e-20
1.30769e-20
5.32692e-21
3.77398e-21
4.07097e-21
4.94543e-21
5.52414e-21
5.49084e-21
5.14055e-21
4.78586e-21
4.55733e-21
4.56635e-21
4.91103e-21
5.46489e-21
5.89682e-21
6.59365e-21
8.83965e-21
1.28226e-20
1.62325e-20
1.74987e-20
1.43132e-20
8.3778e-21
4.86212e-21
3.95716e-21
4.29116e-21
4.82398e-21
5.11594e-21
5.38313e-21
5.62497e-21
5.42047e-21
4.65708e-21
3.71555e-21
2.91514e-21
3.064e-21
4.58675e-21
8.04323e-21
5.51329e-21
4.72044e-21
2.95684e-21
3.49855e-21
3.93655e-21
4.1044e-21
4.17138e-21
4.38258e-21
4.67719e-21
4.80296e-21
4.82188e-21
4.90157e-21
4.83825e-21
4.43479e-21
4.03752e-21
0.000167069
0.000167061
0.000167055
0.000167051
0.00016705
0.00016705
0.00016705
0.000167047
0.000167045
0.000167052
0.000167068
0.00016708
0.000167081
0.000167078
0.000167083
0.000167097
0.000167101
0.000167055
0.000167021
0.000167064
0.000167077
0.000167069
0.000167065
0.000167079
3.3553e-13
1.68155e-16
7.41752e-18
8.24674e-19
1.39006e-19
3.05703e-20
9.16338e-21
4.40042e-21
3.6168e-21
4.18202e-21
5.09874e-21
5.56164e-21
5.3631e-21
4.87926e-21
4.46114e-21
4.25849e-21
4.36028e-21
4.77798e-21
5.27852e-21
5.69098e-21
6.85555e-21
1.01846e-20
1.51637e-20
1.80746e-20
1.6645e-20
1.12751e-20
6.35407e-21
4.1949e-21
3.86042e-21
4.30499e-21
4.7921e-21
5.04459e-21
5.25659e-21
5.44737e-21
5.28039e-21
4.67002e-21
3.94546e-21
3.3992e-21
4.14571e-21
6.58826e-21
1.09374e-20
7.35197e-21
5.35857e-21
3.7947e-21
4.46173e-21
4.80302e-21
4.7566e-21
4.6694e-21
4.80512e-21
5.00212e-21
4.99851e-21
4.98176e-21
5.0864e-21
4.99002e-21
4.59576e-21
4.3486e-21
0.000167068
0.000167062
0.000167055
0.000167052
0.00016705
0.000167049
0.00016705
0.000167048
0.000167044
0.000167048
0.000167064
0.000167081
0.000167087
0.000167082
0.000167089
0.000167097
0.000167088
0.00016704
0.000167029
0.000167079
0.000167075
0.000167062
0.000167059
4.16169e-14
4.26034e-16
2.01674e-17
2.09882e-18
3.32278e-19
6.76911e-20
1.73735e-20
6.3023e-21
3.77174e-21
3.63681e-21
4.44375e-21
5.39047e-21
5.79837e-21
5.56737e-21
5.0641e-21
4.61109e-21
4.36825e-21
4.42585e-21
4.74737e-21
5.09651e-21
5.59914e-21
7.40334e-21
1.16667e-20
1.6382e-20
1.70377e-20
1.31035e-20
7.87864e-21
4.77869e-21
3.84462e-21
4.0034e-21
4.44541e-21
4.69012e-21
4.69384e-21
4.71079e-21
4.83789e-21
4.81155e-21
4.44962e-21
3.91358e-21
3.56544e-21
5.34066e-21
9.41048e-21
1.22432e-20
8.2534e-21
4.97695e-21
4.22434e-21
4.91805e-21
5.17951e-21
5.01911e-21
4.76115e-21
4.67473e-21
4.70837e-21
4.7259e-21
4.83894e-21
4.96052e-21
4.7854e-21
4.53151e-21
4.67312e-21
0.000167067
0.000167062
0.000167058
0.000167055
0.000167053
0.000167051
0.000167051
0.000167049
0.000167043
0.000167043
0.000167059
0.000167078
0.000167089
0.000167091
0.000167088
0.000167094
0.000167069
0.000167039
0.000167055
0.000167088
0.000167073
0.000167057
2.56461e-12
8.61862e-16
3.24e-17
3.3186e-18
5.43788e-19
1.15295e-19
2.96024e-20
9.69086e-21
4.63694e-21
3.53489e-21
3.85676e-21
4.80578e-21
5.74239e-21
6.16618e-21
6.04399e-21
5.63831e-21
5.17808e-21
4.82396e-21
4.69158e-21
4.75319e-21
4.92213e-21
5.71085e-21
8.48539e-21
1.3874e-20
1.78219e-20
1.58907e-20
1.04071e-20
5.95322e-21
4.10025e-21
3.95292e-21
4.4667e-21
4.81318e-21
4.69153e-21
4.36013e-21
4.22359e-21
4.41661e-21
4.62273e-21
4.47522e-21
3.94922e-21
3.61194e-21
6.4507e-21
1.32018e-20