/*--------------------------------*- C++ -*----------------------------------*\
  =========                 |
  \\      /  F ield         | OpenFOAM: The Open Source CFD Toolbox
   \\    /   O peration     | Website:  https://openfoam.org
    \\  /    A nd           | Version:  7
     \\/     M anipulation  |
\*---------------------------------------------------------------------------*/
FoamFile
{
    version     2.0;
    format      ascii;
    class       volScalarField;
    location    "5";
    object      k2Write;
}
// * * * * * * * * * * * * * * * * * * * * * * * * * * * * * * * * * * * * * //

dimensions      [0 2 0 0 0 0 0];

internalField   nonuniform List<scalar> 
49920
(
6.67367e-08
5.70728e-11
1.66177e-12
3.5125e-12
3.38152e-12
7.08423e-12
4.39848e-12
1.0261e-12
1.87765e-12
4.63142e-12
3.54954e-12
1.85972e-12
3.12971e-12
1.19945e-12
6.62293e-12
1.44569e-09
8.36026e-07
0.015482
81739.3
81739.2
81739.3
81739.6
81740.1
81740.5
81741.1
81741.5
81741.9
81742.1
81742.2
81742.1
81742.2
81741.9
81742.1
81741.7
81742.3
81742.2
81742.8
81742.7
81743
81742.6
81743
81742.6
81743.2
81742.4
81742.9
81741.4
81740.9
81742.6
81741.1
81750
81737.5
81754.3
81732.2
81751.4
81726
81751.9
81732.6
81748.3
81733.5
81747.4
81733.4
81746.7
81733
81746
81733.3
81745.2
81733
81744.4
81733.2
81743.6
81733.1
81742.9
81733.6
81742.3
81733.5
81741.6
81733.4
81742
81735.1
81742.7
6.19666e-08
4.05571e-09
2.40011e-10
5.75028e-12
5.43571e-12
2.24873e-11
3.30374e-12
1.66662e-11
3.9953e-12
5.79969e-12
7.71666e-12
4.61825e-12
2.39908e-12
1.68792e-11
5.84348e-10
1.48235e-08
1.36829e-06
0.428013
81739.1
81739.1
81739.4
81740
81740.6
81741.4
81741.9
81742.8
81743.2
81743.3
81743.4
81743.6
81743.8
81744.2
81743.8
81744.8
81745
81746.7
81746.2
81746.9
81745.4
81746.9
81745.5
81747.7
81744.9
81745.9
81740.3
81741.5
81742.1
81756.5
81756.6
81748.9
81756.2
81734
81761
81731.5
81757
81734.9
81750.8
81735.3
81748.8
81733.4
81747.7
81732.6
81746
81732.2
81745.4
81731.9
81743.9
81731.7
81743.2
81731.6
81742
81731.8
81741.5
81732.1
81740.4
81731.8
81740.5
81733.8
81738.4
81736.4
3.50739e-07
1.76145e-07
9.33137e-09
6.92603e-10
6.35815e-10
1.43548e-09
5.82465e-10
1.21912e-09
6.2256e-10
2.29285e-11
2.13412e-11
2.40092e-11
1.04673e-10
1.08405e-09
1.27979e-08
1.76082e-07
3.40982e-06
0.000248225
81737.7
81738.1
81738.8
81740.1
81740.9
81741.9
81743
81743.4
81743.1
81743
81743
81744.6
81745.1
81746.7
81747
81748.8
81749.8
81750.5
81750.4
81749.5
81750
81748.5
81749.2
81746.1
81746.6
81742.6
81746.2
81750.7
81769
81761.3
81766.7
81746.7
81746.2
81759.4
81740
81741.9
81749.9
81743.9
81746.6
81742.1
81742.4
81739.6
81740.6
81737.9
81738.7
81737.1
81738
81736.2
81736.6
81735.6
81736.2
81735.1
81735.5
81735
81735.7
81735.1
81735.6
81735.4
81736.8
81733.8
81736.4
81737.6
4.10745e-06
1.1785e-05
1.99531e-07
1.97688e-08
1.52308e-08
3.08269e-08
1.39565e-08
2.61441e-08
1.33403e-08
2.3448e-09
1.42202e-09
1.38886e-09
3.45695e-09
1.01233e-08
2.17026e-07
2.95254e-06
2.41919e-05
0.000225881
0.00386761
0.401617
81740.1
81740.1
81741.6
81742.6
81743.1
81743.1
81743.4
81744.4
81745.8
81747
81749.1
81749.5
81751.9
81751.6
81754
81751.9
81754
81750.5
81753
81748.9
81752.5
81748.7
81754.7
81754
81766.8
81768.7
81767.1
81773.4
81745.7
81763.7
81745.3
81751.5
81733.4
81751.1
81741.6
81751.5
81739.1
81747.6
81735.2
81744.3
81733.2
81741.7
81731.4
81740.1
81730.6
81738.6
81729.6
81737.5
81729.2
81736.8
81729.1
81736.7
81729.7
81737.1
81730.8
81738.7
81732.4
81736.8
81733.2
81737.8
0.000118278
0.00046469
3.15183e-06
4.73176e-07
2.08717e-07
4.51865e-07
2.53619e-07
4.48248e-07
2.27359e-07
1.42045e-07
2.10202e-08
3.2272e-08
9.75446e-08
3.93671e-07
3.29639e-06
2.83527e-05
0.000146419
0.000481839
0.00172996
0.00936576
0.0862037
2.7113
81742.5
81743.3
81744.7
81745.1
81747.2
81747.1
81748.7
81748.6
81751.2
81752.1
81753.3
81755.1
81754.2
81757
81753.9
81758.8
81753.8
81761.7
81755.5
81767.2
81761.4
81776.3
81762.4
81774
81759.5
81758.2
81761.8
81744.3
81747.1
81743.4
81739.5
81747.4
81743
81746.3
81739.8
81742.7
81736.1
81739.7
81733.7
81737.1
81731.6
81735.3
81730.4
81733.7
81729.3
81732.6
81729.1
81731.9
81729.2
81731.6
81730.2
81732.5
81733.2
81735.8
81735.9
81738.3
81735
81736.3
1.5618
0.000658804
3.38867e-05
9.92306e-06
3.33892e-06
5.32547e-06
3.49407e-06
3.9362e-06
2.13766e-06
6.00144e-05
7.28917e-07
2.76383e-06
9.39368e-06
4.71881e-05
0.000168007
0.000551457
0.00148724
0.00272186
0.00424845
0.00656977
0.0115806
0.0269183
0.0914354
0.510695
7.01222
81747.9
81748.1
81749.7
81749.2
81752.8
81753.4
81756.5
81757
81759.3
81760.5
81761.4
81763.4
81762.4
81766.3
81764.7
81771.1
81769.5
81774.1
81762.3
81775.4
81748.4
81773.4
81741.6
81760
81730.9
81758
81726.2
81756.4
81729
81756
81727.1
81752.6
81724.6
81749
81722.7
81745.9
81721
81743.3
81720.1
81741.1
81719.4
81739
81719.4
81737.5
81719.9
81736.3
81721.5
81736.1
81725.3
81738.5
81732.2
81745.5
81736
81739.9
81735.7
81750.6
0.000602527
0.00022659
0.000185908
6.10357e-05
4.72594e-05
3.3119e-05
2.33742e-05
1.52167e-05
81727.7
3.37401e-05
0.0002075
81730.7
81732.3
81734.4
1.51689
0.357677
0.249931
0.167102
0.111755
0.100194
0.12165
0.154949
0.203939
0.353215
0.969927
4.05427
27.3073
337.086
15500.4
81760.6
81762.3
81764.5
81766
81767.4
81767.8
81768.9
81769.9
81772.1
81773.9
81776.1
81772.1
81766.9
81772.7
81750.6
81782.3
81728.2
81774
81724.4
81764.3
81722.6
81759.2
81722.7
81757.4
81721.3
81754.2
81719.7
81750.9
81718.1
81748
81716.9
81745.1
81716
81742.8
81715.5
81740.5
81715.3
81738.5
81715.8
81736.8
81717
81735.9
81720.5
81737
81728
81745
81737.6
81742.5
81738.5
81738.7
0.0154066
0.000916197
0.00109101
0.00259737
0.00136229
0.000313901
0.000203813
0.000112882
8.65586e-05
0.00336619
0.00149147
0.00034967
0.000390012
0.000822162
0.00496425
0.117301
2.05583
1.01497
9.95122
81740.9
81745.3
59.6464
4.63539
1.7175
1.20781
1.48391
2.93087
8.70654
37.8839
246.216
2625.75
59757.3
81770.8
81770.8
81771.8
81772.1
81774.1
81775.4
81777.5
81777.6
81773.8
81770.2
81773.3
81756.8
81785.5
81730.7
81778.4
81729.7
81766.3
81726.2
81759.8
81723.2
81755.9
81721
81752.3
81719.2
81748.9
81717.8
81745.9
81716.9
81743
81716
81740.7
81715.5
81738.3
81714.9
81736.1
81714.9
81734
81715.4
81732.7
81718
81733.1
81724.5
81739.3
81736.3
81742.4
81740.1
81737.9
81740.2
0.00637231
0.00217381
0.0053828
0.0258703
0.0446386
0.00189335
0.000970965
0.000493085
0.000402392
0.00207606
0.0173193
0.000751797
0.000242896
0.000180292
0.000197857
0.000261756
0.000375412
0.000548631
0.000925679
0.00227105
0.0106842
0.586695
81745.3
81749.1
81757.4
21.1331
10.6231
12.3064
21.8347
55.6653
232.9
2431.57
81770.8
81771
81770.5
81772.7
81771.7
81775.3
81772.3
81774.1
81770
81772.9
81761.6
81782.5
81739.6
81779.3
81737.4
81767.5
81733
81760.5
81728.6
81754.7
81725.6
81749.8
81723.4
81745.8
81722
81742.3
81721
81739.4
81720
81736.8
81718.9
81734.3
81717.9
81731.9
81717
81729.8
81716.6
81728.3
81717.6
81728.6
81722.2
81733.7
81733.3
81740.6
81740.6
81737.4
81741.5
81741.2
0.00796395
0.00822412
0.0437153
0.477791
785.907
0.0125495
0.00385198
0.00172403
0.00132399
0.00261896
0.0213681
0.00526342
0.00114042
0.000632273
0.000557163
0.000541062
0.000469041
0.000368785
0.000304943
0.000291632
0.000331513
0.000469983
0.000872478
0.00236906
0.01576
81772.4
81770.5
96.1059
52.6744
77.8329
276.581
3494.05
81762.3
81762.1
81761.8
81758.5
81762.7
81756.9
81767
81761.2
81766.3
81762.2
81769.6
81747
81767.3
81746.3
81758.7
81743.3
81752.5
81740.1
81746.8
81737.2
81741.7
81735
81737.7
81733.5
81734.4
81732.2
81731.7
81730.7
81729.2
81728.8
81727
81727
81724.8
81725
81723
81723.3
81721.7
81722.5
81722.2
81724.4
81727.2
81732.9
81737.6
81741.9
81739.1
81741.8
81740.7
81744
0.019403
0.0615157
1.85149
62862.5
224.488
0.0357433
0.00727464
0.00317341
0.00237343
0.00309433
0.0109601
0.0479871
0.0369157
0.021018
0.0168274
0.0111147
0.00529582
0.00270935
0.00154829
0.000863441
0.000502955
0.000347187
0.000308968
0.000366681
0.000641653
0.00273371
81763.8
81757.9
81761.4
81754.6
81759.2
81753.1
81756.1
81752
81749.1
81749.3
81741.2
81749.9
81742.2
81754.3
81757
81756
81756.6
81747.6
81748.6
81740.5
81751.1
81736.4
81749.5
81731.4
81748.3
81727.8
81746.3
81724.9
81744.9
81722.9
81743.4
81721.4
81741.5
81720
81739.2
81718.5
81736.6
81717
81733.9
81715.8
81731.4
81715
81729.3
81715.7
81729.3
81720.8
81735.3
81733.6
81745.4
81741.3
81744.4
81737.9
81743.4
81742.1
0.091499
2.40813
81679.3
2.59239
0.115826
0.0164682
0.00554391
0.00318898
0.00274629
0.00339154
0.0074514
0.0435358
142.037
81727.2
81731.5
672.007
3.15958
0.472919
0.13011
0.0251798
0.00540727
0.001881
0.000896329
0.000454198
0.000270062
0.000245831
0.000373398
0.000404397
0.000319497
0.000131865
2.18841e-05
3.74176e-06
1.07967e-06
5.59374e-07
5.15608e-07
8.67035e-07
3.18065e-06
9.75027e-05
81737.2
81743.9
81733.9
81763.1
81741.8
81759.2
81724.8
81746.5
81720.4
81750.8
81716.9
81747.2
81716.6
81746
81714.5
81744.3
81713.2
81743
81712.4
81741.6
81712.1
81739.7
81711.6
81737.6
81711.2
81735.2
81710.8
81732.9
81710.9
81731.1
81712
81731.2
81716.9
81736.5
81729.9
81748.8
81743.7
81752.5
81741.5
81746.6
81741.5
81748.3
1.31117
81673.2
0.92384
0.0934658
0.0192467
0.00706515
0.00393375
0.00308023
0.00321708
0.00434234
0.00822202
0.0281046
0.335571
23.5247
81729.8
81732.6
81734.3
81737.5
81742.3
81750.6
2.05829
0.127162
0.0160305
0.00495414
0.000564303
4.87105e-05
5.36879e-06
9.78054e-07
2.88592e-07
1.14446e-07
5.10655e-08
2.42262e-08
1.31039e-08
8.97412e-09
8.407e-09
1.12739e-08
2.2464e-08
7.14961e-08
4.37885e-07
1.02376e-05
81750.2
81730.5
81768.4
81747.5
81765.2
81714.2
81741.1
81709.9
81739.7
81705.2
81740.2
81702.3
81738.5
81701.9
81734.2
81702.6
81732.1
81703.7
81731.6
81704
81730.4
81704.4
81728.9
81705.2
81727.6
81706.6
81727
81708.9
81728.4
81714
81734.3
81726.4
81747.9
81745
81761.5
81751.1
81756.8
81741.3
81750.7
81744.2
159.834
1.34945
0.0895657
0.0230559
0.00900014
0.00513833
0.00397798
0.00396477
0.00494005
0.00756298
0.0145524
0.038818
0.16545
1.19421
15.5168
383.569
81738.2
81739.7
81747.8
81758.9
81771.5
81769.1
90.2165
42.4775
0.00729517
9.12875e-06
4.17259e-07
5.77347e-08
1.47359e-08
5.47126e-09
2.55786e-09
1.39036e-09
8.68734e-10
6.50964e-10
6.21166e-10
7.87715e-10
1.34273e-09
3.04825e-09
9.08394e-09
3.51682e-08
1.72837e-07
1.01323e-06
9.89422e-06
81773.2
81764.8
81773.9
81713.5
81733.8
81698.1
81729.2
81699.8
81720.1
81700.3
81720.5
81695.1
81719.5
81694.2
81721.2
81694.7
81721.7
81696.6
81721
81697.8
81720
81700.2
81720.4
81703.9
81723
81709.8
81729.6
81721.6
81742.9
81741.3
81760.5
81753
81758.7
81734.9
81737.5
81716.8
81723.1
3.00126
0.152659
0.0322187
0.0133872
0.00788799
0.0061916
0.00619148
0.00757444
0.0111566
0.0197828
0.0424562
0.111799
0.37131
1.77789
13.0809
150.606
2536.16
24458.3
81753.6
81768
81768.2
81759
81751
81753
81756
2.20098e-06
8.00571e-08
9.74002e-09
2.18402e-09
7.22533e-10
3.15098e-10
1.69563e-10
1.0923e-10
8.49902e-11
8.28197e-11
1.0403e-10
1.67037e-10
3.26873e-10
7.33777e-10
1.7737e-09
4.38165e-09
1.0828e-08
2.76233e-08
7.90161e-08
2.74608e-07
1.26665e-06
9.66567e-06
0.000508537
81726.8
81698.9
81726.1
81695.5
81723.4
81695.4
81714
81687.5
81708.1
81686.3
81711.2
81691.6
81713.3
81694.6
81712.9
81696.6
81713
81700.5
81716.3
81706.5
81722.6
81716.5
81734.6
81733.5
81749.7
81743.1
81747.2
81723.3
81717.3
81690.4
81689.9
81680.4
0.338089
0.0592135
0.0229684
0.0138748
0.0114208
0.0119666
0.0153537
0.0233307
0.0418536
0.090734
0.241549
0.77136
2.81274
12.4976
68.2179
406.764
1823.79
5100.73
11542.8
29417.3
81758
81749.7
81751.5
81756.2
81748.7
8.63504e-07
2.84804e-08
3.1019e-09
6.0325e-10
1.69725e-10
6.38528e-11
3.12731e-11
1.96537e-11
1.56551e-11
1.57384e-11
1.98748e-11
3.05907e-11
5.41787e-11
1.02885e-10
1.98154e-10
3.77127e-10
7.14025e-10
1.38158e-09
2.80561e-09
6.02374e-09
1.34513e-08
3.08521e-08
7.59633e-08
2.26269e-07
1.0827e-06
3.37085e-05
81724.1
81704.9
81718.1
81708.6
81708.9
81686
81690.3
81690.3
81699.7
81698.6
81704.8
81701.6
81706.1
81704.3
81709.2
81708.4
81713.2
81714
81721.5
81724.4
81734.2
81732
81738.4
81723.3
81718.4
81700.5
81686.9
81697.2
81721.8
0.127385
0.0436954
0.0269429
0.0233876
0.0268507
0.0387418
0.067946
0.140989
0.350675
1.11745
4.94021
30.2982
207.816
1104.7
3506
5568.32
6556.2
9332.32
19004.3
53756.6
81751.6
81751.2
81756.4
81748.5
81716.7
5.50111e-07
1.62966e-08
1.60009e-09
2.71494e-10
6.41678e-11
2.0035e-11
8.52565e-12
5.13274e-12
4.26072e-12
4.50809e-12
5.65163e-12
8.0208e-12
1.23755e-11
1.99288e-11
3.25481e-11
5.35921e-11
8.99694e-11
1.5581e-10
2.77399e-10
4.97147e-10
8.80532e-10
1.57528e-09
3.09e-09
7.63621e-09
2.9875e-08
5.49646e-07
81730.3
81710.3
81738.5
81765.2
81761.5
81712.7
81680.4
81683.9
81695.9
81689.8
81707.1
81699.4
81711.6
81703.1
81713.3
81705.4
81715.3
81707.6
81717.3
81717.9
81724.9
81737.7
81742.3
81746.7
81733.3
81716.6
81739.8
81785.2
81833.3
0.090409
0.0516938
0.0492086
0.064512
0.112305
0.257504
0.78399
3.24472
20.464
306.711
81705.2
81712.6
81724.1
81731.7
81732.8
81737.6
52326.6
28594.2
50212.8
81752.1
81750.7
81754.8
81753.5
81714.3
81698.2
5.38972e-07
1.36783e-08
1.22103e-09
1.86762e-10
3.86324e-11
1.03394e-11
3.89516e-12
2.29831e-12
2.05252e-12
2.31962e-12
2.81904e-12
3.45955e-12
4.29945e-12
5.51983e-12
7.44137e-12
1.06618e-11
1.63117e-11
2.63349e-11
4.34394e-11
7.04891e-11
1.11837e-10
1.8403e-10
3.52226e-10
8.84987e-10
3.22675e-09
2.46052e-08
3.49964e-07
1.40685e-06
3.44947e-06
2.19397e-05
81864.5
81748.8
81701.1
81697.8
81671.8
81695
81683.5
81705.9
81698.3
81710.2
81698.8
81710.6
81697.9
81709
81703
81714.5
81727.1
81749.9
81775.7
81776
81759.1
81747.2
2.44492e-05
2.83981e-06
6.46146e-07
0.100615
0.0933108
0.143973
0.332577
1.17471
7.55651
152.137
81689.8
81697.2
81702.4
81706.5
81710.8
81719.3
81727.3
81729.7
81734.4
70550.8
6078.73
1642.21
860.444
720.89
955.412
2713.23
81696.8
81696.5
7.31782e-07
1.51419e-08
1.23533e-09
1.77046e-10
3.4267e-11
8.53668e-12
3.05567e-12
1.82662e-12
1.74916e-12
2.08468e-12
2.45549e-12
2.62623e-12
2.62448e-12
2.63208e-12
2.82496e-12
3.36857e-12
4.49124e-12
6.51095e-12
9.708e-12
1.4199e-11
2.07593e-11
3.38491e-11
7.04034e-11
1.90868e-10
5.92936e-10
1.97112e-09
5.79267e-09
1.13784e-08
1.96681e-08
3.96568e-08
8.94478e-08
2.0959e-07
5.47377e-07
1.76127e-06
7.10336e-06
4.12281e-05
81676.8
81677.4
81698.5
81692
81690.1
81686.9
81692.8
81693.7
81701
81708.2
3.54788e-05
5.09142e-06
1.55881e-06
5.56485e-07
2.05275e-07
8.48593e-08
3.96027e-08
1.95512e-08
9.78769e-09
0.165137
0.263919
0.78788
5.22684
149.337
81675.1
81680.7
81688.3
81696.7
81704
81708.9
81711.2
81714
81721.4
81730.3
81740.2
38813.2
1253.33
204.345
69.6859
37.7044
30.6691
48.1605
682.854
81698.7
1.13182e-06
1.86852e-08
1.41208e-09
1.95391e-10
3.71526e-11
9.19936e-12
3.31588e-12
2.02911e-12
2.00693e-12
2.44242e-12
2.8431e-12
2.86947e-12
2.58617e-12
2.26181e-12
2.07191e-12
2.08187e-12
2.33007e-12
2.84376e-12
3.57754e-12
4.46308e-12
5.90706e-12
9.90828e-12
2.30005e-11
6.13271e-11
1.37143e-10
2.54148e-10
4.47651e-10
7.03572e-10
1.08653e-09
1.79372e-09
2.99603e-09
4.90662e-09
8.05638e-09
1.3542e-08
2.29746e-08
3.71642e-08
5.95102e-08
1.09841e-07
3.36685e-07
9.51957e-07
2.49073e-07
1.70139e-07
1.20406e-07
8.84093e-08
6.54563e-08
4.55718e-08
2.83062e-08
1.70369e-08
1.08121e-08
7.04893e-09
4.4847e-09
2.81056e-09
1.77513e-09
1.1194e-09
6.94885e-10
0.402282
1.34089
13.8921
6539.17
81676.4
81676.7
81680.4
81687.7
81696.3
81705.5
81713.1
81714.2
81711.9
40077.8
47101.9
81741.4
6847.3
458.186
80.887
25.771
12.0154
8.13365
10.7532
100.068
81703
1.48713e-06
2.11953e-08
1.53761e-09
2.10505e-10
4.03607e-11
1.02529e-11
3.83721e-12
2.41899e-12
2.40543e-12
2.89585e-12
3.33641e-12
3.36395e-12
3.0517e-12
2.67399e-12
2.39464e-12
2.25465e-12
2.25627e-12
2.36996e-12
2.50372e-12
2.63121e-12
3.15198e-12
5.34374e-12
1.21572e-11
2.53222e-11
3.66597e-11
4.57963e-11
6.12841e-11
8.46628e-11
1.23941e-10
1.8868e-10
2.80682e-10
4.02677e-10
5.66481e-10
7.9933e-10
1.13929e-09
1.56326e-09
2.0435e-09
2.79318e-09
4.46835e-09
5.76905e-09
3.84626e-09
3.43178e-09
2.9671e-09
2.50394e-09
2.04495e-09
1.6065e-09
1.19294e-09
8.61836e-10
6.3624e-10
4.82265e-10
3.61388e-10
2.61948e-10
1.85495e-10
1.29443e-10
8.85618e-11
1.57556
19.3911
59276.2
81684
81679.3
81678.7
81681.2
81686.5
81695.8
81707.1
81717.1
81720.8
20367.1
5069
3060.26
3096.68
1896.27
414.719
84.486
23.6912
9.17437
5.28661
6.3083
52.7111
81710.6
1.45921e-06
2.05989e-08
1.49538e-09
2.06027e-10
4.01733e-11
1.05686e-11
4.16351e-12
2.73353e-12
2.71487e-12
3.16291e-12
3.54653e-12
3.60367e-12
3.42348e-12
3.19722e-12
3.01796e-12
2.90175e-12
2.85069e-12
2.83153e-12
2.7526e-12
2.6627e-12
3.05055e-12
4.83538e-12
8.6089e-12
1.17063e-11
1.14755e-11
1.07905e-11
1.14979e-11
1.42812e-11
2.01899e-11
2.93221e-11
4.08293e-11
5.45349e-11
7.11797e-11
9.31052e-11
1.23462e-10
1.57767e-10
1.88532e-10
2.32163e-10
3.02328e-10
3.1389e-10
2.71457e-10
2.60803e-10
2.4264e-10
2.16575e-10
1.83914e-10
1.51315e-10
1.20727e-10
9.46248e-11
7.48959e-11
6.05681e-11
4.87703e-11
3.79335e-11
2.85899e-11
2.12507e-11
1.55934e-11
12.4759
18439.4
81699.5
81687.5
81683.1
81681.2
81681.6
81686.3
81695.2
81707.9
81721
43067.9
7451.75
2068.23
1027.26
930.623
1318.78
1064.21
209.131
34.2578
8.46279
3.68349
3.80466
30.2558
81721.5
1.33806e-06
1.92613e-08
1.40633e-09
1.94355e-10
3.81658e-11
1.02352e-11
4.18052e-12
2.82881e-12
2.79517e-12
3.14324e-12
3.41979e-12
3.49842e-12
3.47905e-12
3.45128e-12
3.4235e-12
3.39336e-12
3.3837e-12
3.3795e-12
3.29312e-12
3.21766e-12
3.66525e-12
5.00739e-12
6.14382e-12
5.61604e-12
4.4961e-12
3.61401e-12
3.16491e-12
3.4766e-12
4.61675e-12
6.2741e-12
8.10118e-12
1.00852e-11
1.24079e-11
1.54273e-11
1.94951e-11
2.36142e-11
2.61804e-11
3.07321e-11
3.6522e-11
3.33173e-11
3.3169e-11
3.2667e-11
3.15293e-11
2.92922e-11
2.55937e-11
2.17068e-11
1.81125e-11
1.50183e-11
1.25618e-11
1.07055e-11
9.11459e-12
7.52302e-12
6.04871e-12
4.86515e-12
3.93337e-12
584.869
81725.1
81704.7
81691.3
81685.4
81683.4
81682.9
81685.3
81694.2
81708.8
50678.3
16077.4
5500.69
1926.67
939.122
846.415
1894.95
9537.8
1067.66
56.0881
8.00577
2.61461
2.29041
15.7821
81731.8
1.46416e-06
1.98582e-08
1.41735e-09
1.92823e-10
3.73159e-11
9.85958e-12
3.98275e-12
2.67655e-12
2.61826e-12
2.90359e-12
3.14703e-12
3.2825e-12
3.38511e-12
3.46309e-12
3.46985e-12
3.42428e-12
3.41441e-12
3.47571e-12
3.51631e-12
3.56952e-12
3.99011e-12
4.58324e-12
4.10874e-12
3.11247e-12
2.60714e-12
2.12315e-12
1.64027e-12
1.55382e-12
1.83211e-12
2.21818e-12
2.54566e-12
2.8639e-12
3.26825e-12
3.80276e-12
4.45909e-12
4.95039e-12
4.90493e-12
5.56518e-12
6.34958e-12
5.36099e-12
5.77899e-12
5.71959e-12
5.52891e-12
5.41416e-12
4.97264e-12
4.42798e-12
3.89025e-12
3.43773e-12
3.10869e-12
2.88149e-12
2.66015e-12
2.37992e-12
2.10022e-12
1.89363e-12
1.74716e-12
81742.1
81727.9
81707.3
81693.6
81688.5
81686.2
81683.8
81684.8
81692.9
81708.6
26883.3
13170.6
7686.4
3700.64
1926.85
1746.65
4661.86
81795.7
7326.72
118.71
11.9784
3.24362
2.52127
14.8744
81737
1.90543e-06
2.25791e-08
1.53657e-09
2.02966e-10
3.80454e-11
9.63715e-12
3.69593e-12
2.39187e-12
2.32708e-12
2.62828e-12
2.92532e-12
3.12875e-12
3.27649e-12
3.34199e-12
3.27382e-12
3.14019e-12
3.0966e-12
3.21693e-12
3.38431e-12
3.5126e-12
3.80175e-12
3.94779e-12
3.22247e-12
2.63929e-12
2.65758e-12
2.30697e-12
1.63771e-12
1.35633e-12
1.4241e-12
1.54705e-12
1.58486e-12
1.61665e-12
1.70964e-12
1.82116e-12
1.88296e-12
1.79935e-12
1.50926e-12
1.63558e-12
1.89442e-12
1.71078e-12
1.76684e-12
1.74632e-12
1.55531e-12
1.64685e-12
1.66325e-12
1.61774e-12
1.52742e-12
1.45736e-12
1.45654e-12
1.50538e-12
1.52757e-12
1.48582e-12
1.43024e-12
1.40946e-12
1.42039e-12
81744.3
81728.2
81707.4
81693.9
81688.6
81687.2
81685.3
81683.4
81690.4
74833.5
30583.7
21793.4
20983.1
15461.5
9062.26
7785.73
16923.4
81812.9
28612.9
497.874
43.3116
10.2502
7.25643
41.7252
81736.6
1.92247e-06
2.29966e-08
1.56492e-09
2.05043e-10
3.77913e-11
9.25583e-12
3.39325e-12
2.13565e-12
2.10223e-12
2.45764e-12
2.80869e-12
3.01041e-12
3.09411e-12
3.07059e-12
2.93255e-12
2.77528e-12
2.75839e-12
2.94265e-12
3.17305e-12
3.31592e-12
3.61249e-12
3.93367e-12
3.71312e-12
3.7411e-12
4.11884e-12
3.3593e-12
2.13931e-12
1.63437e-12
1.64964e-12
1.7438e-12
1.73086e-12
1.72038e-12
1.76655e-12
1.76018e-12
1.61111e-12
1.3286e-12
9.74904e-13
9.97621e-13
1.25628e-12
1.47102e-12
1.27147e-12
1.24966e-12
9.29539e-13
1.06016e-12
1.18365e-12
1.25418e-12
1.26172e-12
1.27875e-12
1.36643e-12
1.49663e-12
1.58643e-12
1.60783e-12
1.59877e-12
1.58184e-12
1.57739e-12
81741.1
81727.2
81707.5
81694.3
81689.7
81689
81686.5
81683.2
81687.1
81706.5
68482
75523.1
81743.9
81748
81754
81767.2
81801.5
81819.4
81706.4
7874.76
672.826
133.252
83.1085
640.254
81732.4
9.02558e-07
1.62881e-08
1.25599e-09
1.74239e-10
3.30108e-11
8.2012e-12
3.0469e-12
1.96506e-12
2.00194e-12
2.40281e-12
2.74434e-12
2.85059e-12
2.79942e-12
2.6834e-12
2.54263e-12
2.4565e-12
2.53216e-12
2.7767e-12
3.01123e-12
3.20586e-12
3.79263e-12
4.82264e-12
5.59515e-12
6.33694e-12
6.33623e-12
4.33152e-12
2.50582e-12
1.90008e-12
1.96883e-12
2.14822e-12
2.20403e-12
2.25835e-12
2.34059e-12
2.26963e-12
1.95715e-12
1.52245e-12
1.10482e-12
1.10146e-12
1.53629e-12
2.358e-12
1.73768e-12
1.64415e-12
1.04781e-12
1.23559e-12
1.42868e-12
1.54598e-12
1.59196e-12
1.66209e-12
1.7987e-12
1.93414e-12
2.01104e-12
2.0475e-12
2.03089e-12
1.92154e-12
1.8044e-12
81732.7
81719.7
81703.7
81693
81688.6
81688.4
81687.7
81682.8
81683.1
81702.1
81731.6
81748.3
81746.1
81746
81757.8
81777.1
81814.2
81779.3
81661.7
81680.9
81749
81744.1
35468.7
81747.8
81741.9
3.4655e-07
8.81573e-09
7.90311e-10
1.19301e-10
2.40327e-11
6.39569e-12
2.60526e-12
1.84576e-12
1.99103e-12
2.41875e-12
2.70185e-12
2.68564e-12
2.51439e-12
2.34099e-12
2.2293e-12
2.23379e-12
2.4025e-12
2.67353e-12
2.88493e-12
3.22591e-12
4.32483e-12
6.27355e-12
7.94198e-12
8.56145e-12
7.00286e-12
4.09886e-12
2.37876e-12
1.93596e-12
2.09931e-12
2.3599e-12
2.50265e-12
2.63328e-12
2.75149e-12
2.65138e-12
2.2779e-12
1.81732e-12
1.4258e-12
1.49857e-12
2.24332e-12
3.93383e-12
2.69651e-12
2.30876e-12
1.44621e-12
1.7112e-12
1.92548e-12
2.00761e-12
2.04041e-12
2.14372e-12
2.28783e-12
2.34935e-12
2.3586e-12
2.39759e-12
2.36665e-12
2.16932e-12
1.97506e-12
81729.9
81714.6
81700.1
81692.1
81689.5
81690
81689.1
81683.9
81679.5
81694.6
81729.1
81754.3
81756.3
81750.5
81760.6
81792.6
81800.8
81700
81627.9
81721
81747.8
81731.8
81723
81751.6
0.000164162
8.2263e-08
3.62839e-09
4.03379e-10
6.7989e-11
1.49515e-11
4.48161e-12
2.15213e-12
1.76887e-12
2.04532e-12
2.49369e-12
2.72013e-12
2.62309e-12
2.38651e-12
2.18208e-12
2.08303e-12
2.13291e-12
2.33731e-12
2.58225e-12
2.7841e-12
3.35393e-12
4.98265e-12
7.41874e-12
8.84297e-12
8.14363e-12
5.5164e-12
3.10875e-12
2.05233e-12
1.88866e-12
2.10611e-12
2.34435e-12
2.46781e-12
2.57144e-12
2.66469e-12
2.58291e-12
2.28428e-12
1.92981e-12
1.66258e-12
2.02766e-12
3.22228e-12
5.3494e-12
3.59583e-12
2.62088e-12
1.85602e-12
2.18231e-12
2.34929e-12
2.32662e-12
2.28401e-12
2.3504e-12
2.44677e-12
2.44501e-12
2.43683e-12
2.48802e-12
2.4409e-12
2.24809e-12
2.12723e-12
81729.1
81715
81701.3
81693.5
81689.2
81688.6
81689.7
81684.6
81676.3
81685.6
81720.7
81756
81769.8
81760.1
81773.8
81791.7
81771.9
81669.3
81643.8
81752.7
81744
81714.8
81710.1
2.03599e-05
2.0846e-07
9.86624e-09
1.02662e-09
1.62521e-10
3.31071e-11
8.49702e-12
3.08229e-12
1.84464e-12
1.77864e-12
2.1733e-12
2.63633e-12
2.83588e-12
2.72294e-12
2.47686e-12
2.25535e-12
2.13665e-12
2.1649e-12
2.32226e-12
2.49312e-12
2.73908e-12
3.62179e-12
5.7076e-12
8.01453e-12
8.33548e-12
6.4108e-12
3.85461e-12
2.33797e-12
1.88097e-12
1.95862e-12
2.17484e-12
2.29451e-12
2.29626e-12
2.3045e-12
2.36659e-12
2.35365e-12
2.17652e-12
1.91426e-12
1.74391e-12
2.61216e-12
4.60268e-12
5.98815e-12
4.03676e-12
2.43427e-12
2.06618e-12
2.40552e-12
2.53345e-12
2.45505e-12
2.3289e-12
2.28665e-12
2.30311e-12
2.3117e-12
2.367e-12
2.42649e-12
2.34085e-12
2.21668e-12
2.28601e-12
81726.9
81716.7
81707.1
81701.1
81695.7
81691.9
81690.9
81686.6
81674.5
81675.2
81708.5
81750.7
81775.3
81779.8
81772.4
81786
81731.4
81665.3
81701.3
81771.3
81739.5
81705.4
0.00125442
4.21608e-07
1.58507e-08
1.62334e-09
2.6598e-10
5.63908e-11
1.44782e-11
4.73958e-12
2.26779e-12
1.72879e-12
1.8862e-12
2.35034e-12
2.80843e-12
3.01573e-12
2.95602e-12
2.75766e-12
2.53263e-12
2.3595e-12
2.29482e-12
2.32503e-12
2.40774e-12
2.79362e-12
4.15099e-12
6.78718e-12
8.71872e-12
7.7741e-12
5.09147e-12
2.91255e-12
2.00602e-12
1.93394e-12
2.18529e-12
2.35478e-12
2.29522e-12
2.13305e-12
2.0662e-12
2.16057e-12
2.26133e-12
2.18911e-12
1.93174e-12
1.76671e-12
3.15516e-12
6.45719e-12
5.98535e-12
4.12165e-12
2.10314e-12
2.0423e-12
2.34274e-12
2.49586e-12
2.48287e-12
2.33377e-12
2.18557e-12
2.14221e-12
2.20172e-12
2.32489e-12
2.36282e-12
2.23612e-12
2.18686e-12
2.43139e-12
81730.9
81719.8
81711.6
81707.5
81700.8
81693.6
81691.8
81688.4
81673.7
81666
81693.3
81739.1
81773.4
81782.9
81785.9
81765.5
81702.3
81664
81761.3
81782.6
81730.3
81711.8
3.60323e-05
7.91461e-08
3.90769e-09
4.67619e-10
8.5595e-11
2.05352e-11
6.41035e-12
2.81086e-12
1.84807e-12
1.74047e-12
2.02393e-12
2.48241e-12
2.9057e-12
3.14527e-12
3.18805e-12
3.08324e-12
2.87584e-12
2.63549e-12
2.43876e-12
2.31191e-12
2.34507e-12
2.97545e-12
4.99301e-12
8.27387e-12
9.54673e-12
7.28455e-12
4.23864e-12
2.46822e-12
1.94315e-12
2.09973e-12
2.44592e-12
2.54097e-12
2.29275e-12
1.98276e-12
1.8995e-12
2.08961e-12
2.31634e-12
2.30564e-12
2.0004e-12
1.79408e-12
3.48041e-12
8.08359e-12
5.67003e-12
4.0644e-12
1.86795e-12
1.90773e-12
2.14979e-12
2.33239e-12
2.43363e-12
2.33829e-12
2.15942e-12
2.11898e-12
2.24075e-12
2.37697e-12
2.3536e-12
2.21802e-12
2.23341e-12
2.53769e-12
81734.2
81724.5
81718.1
81717.1
81711.2
81700.2
81693.6
81690.8
81675.2
81658.1
81676.3
81719.3
81763.6
81788.7
81778.9
81756.3
81716.9
81698.2
81808.2
81789.3
81719.8
81701.9
1.1182e-05
3.3982e-08
1.76639e-09
2.10531e-10
3.76744e-11
9.24866e-12
3.35797e-12
1.9555e-12
1.69303e-12
1.81813e-12
2.11235e-12
2.48225e-12
2.84313e-12
3.11232e-12
3.24749e-12
3.23573e-12
3.08109e-12
2.83159e-12
2.55441e-12
2.31899e-12
2.35081e-12
3.22684e-12
5.77949e-12
9.13475e-12
9.23528e-12
6.1827e-12
3.45766e-12
2.20151e-12
1.95143e-12
2.20514e-12
2.55338e-12
2.59734e-12
2.24782e-12
1.87045e-12
1.81446e-12
2.08543e-12
2.34984e-12
2.31895e-12
2.00453e-12
1.79993e-12
3.48843e-12
8.41344e-12
5.2857e-12
3.93703e-12
1.73465e-12
1.80755e-12
2.01918e-12
2.15457e-12
2.28624e-12
2.26989e-12
2.14639e-12
2.17019e-12
2.36476e-12
2.48088e-12
2.38482e-12
2.26876e-12
2.32209e-12
2.55393e-12
81729.2
81726.6
81723.3
81725.2
81720.6
81706.6
81696.9
81693.3
81678.9
81652.9
81656.5
81702.4
81744.9
81778.9
81787.4
81760
81748.8
81781.8
81848.3
81775.9
81701.2
81689.6
1.44991e-06
1.3569e-08
8.8315e-10
1.12469e-10
2.04862e-11
5.31421e-12
2.28942e-12
1.70719e-12
1.75831e-12
1.94927e-12
2.14274e-12
2.37844e-12
2.67793e-12
2.96521e-12
3.14297e-12
3.18053e-12
3.10453e-12
2.94081e-12
2.69087e-12
2.41849e-12
2.43435e-12
3.34755e-12
5.7429e-12
8.11093e-12
7.28095e-12
4.62286e-12
2.73741e-12
1.98975e-12
1.91772e-12
2.15402e-12
2.44097e-12
2.50111e-12
2.21365e-12
1.89309e-12
1.87408e-12
2.1078e-12
2.22425e-12
2.09542e-12
1.87069e-12
1.74831e-12
3.27666e-12
7.48401e-12
5.1575e-12
3.77613e-12
1.65598e-12
1.79475e-12
2.02626e-12
2.0388e-12
2.08486e-12
2.10836e-12
2.05388e-12
2.13351e-12
2.40155e-12
2.55302e-12
2.44239e-12
2.33641e-12
2.35799e-12
2.43498e-12
81729.5
81728
81730.3
81736
81732.5
81715
81699.3
81694.8
81684.9
81649.2
81643.6
81682.3
81724.8
81763.6
81786.7
81776.4
28.8193
11.6889
3540.17
81731.7
81666.5
0.000354359
7.2079e-08
3.1282e-09
3.3426e-10
5.33802e-11
1.13189e-11
3.53489e-12
1.94408e-12
1.77263e-12
1.96133e-12
2.1026e-12
2.15829e-12
2.28951e-12
2.56269e-12
2.87093e-12
3.06031e-12
3.10536e-12
3.08779e-12
3.03412e-12
2.86971e-12
2.59445e-12
2.51554e-12
3.15453e-12
4.74785e-12
5.97725e-12
5.17768e-12
3.47163e-12
2.30906e-12
1.86792e-12
1.84912e-12
2.00435e-12
2.20975e-12
2.32499e-12
2.23779e-12
2.1055e-12
2.1207e-12
2.17016e-12
2.01139e-12
1.78818e-12
1.69847e-12
1.67511e-12
3.00391e-12
6.18495e-12
5.69239e-12
3.70934e-12
1.68629e-12
1.82821e-12
2.08724e-12
1.98968e-12
1.94148e-12
1.96488e-12
1.91234e-12
1.96695e-12
2.27184e-12
2.5473e-12
2.53202e-12
2.42561e-12
2.34469e-12
2.25981e-12
81740.6
81735.5
81734.1
81741.3
81740.2
81720.8
81701.8
81695.4
81691.2
81652.9
81632.1
81658.5
81709.5
81749.9
81773.1
81798.4
18.908
749.524
81815.9
3.04957e-05
7.56636e-07
4.31006e-08
3.89633e-09
5.37184e-10
9.69806e-11
2.12474e-11
5.9464e-12
2.52861e-12
1.82887e-12
1.90385e-12
2.12663e-12
2.20199e-12
2.18824e-12
2.27985e-12
2.53979e-12
2.85217e-12
3.04585e-12
3.09271e-12
3.09839e-12
3.10519e-12
3.01114e-12
2.74252e-12
2.51915e-12
2.75495e-12
3.58478e-12
4.31225e-12
4.05058e-12
3.1177e-12
2.2997e-12
1.90256e-12
1.81616e-12
1.86755e-12
1.98143e-12
2.12304e-12
2.26067e-12
2.39923e-12
2.46603e-12
2.28611e-12
1.89562e-12
1.6369e-12
1.64567e-12
1.66295e-12
2.73681e-12
5.13979e-12
7.16631e-12
3.98959e-12
2.00316e-12
1.85658e-12
2.04597e-12
1.95518e-12
1.9442e-12
1.9781e-12
1.85015e-12
1.80566e-12
2.0753e-12
2.45433e-12
2.61429e-12
2.57083e-12
2.4062e-12
2.19787e-12
81745.2
81740.1
81736.8
81741.7
81742.9
81725.2
81702.5
81694.9
81696.7
81665.1
81618.5
81648.3
81690.9
81737.4
81784.4
9380.84
136.703
81905.3
0.000320351
5.73328e-07
2.68217e-08
3.003e-09
5.13149e-10
1.10923e-10
2.80544e-11
8.42804e-12
3.35878e-12
2.02613e-12
1.81892e-12
1.99224e-12
2.18163e-12
2.22699e-12
2.20661e-12
2.26747e-12
2.46378e-12
2.724e-12
2.92011e-12
3.00802e-12
3.05419e-12
3.09895e-12
3.06233e-12
2.833e-12
2.50677e-12
2.42975e-12
2.84161e-12
3.54905e-12
3.9279e-12
3.54082e-12
2.73123e-12
2.11955e-12
1.85526e-12
1.78719e-12
1.80418e-12
1.91886e-12
2.18487e-12
2.54408e-12
2.69803e-12
2.42003e-12
1.96467e-12
1.73135e-12
1.77206e-12
1.75301e-12
2.47694e-12
4.55475e-12
9.46635e-12
4.9309e-12
2.80687e-12
1.88776e-12
1.87092e-12
1.89217e-12
2.09323e-12
2.20064e-12
1.9556e-12
1.77667e-12
1.92875e-12
2.26966e-12
2.5798e-12
2.72517e-12
2.60101e-12
2.32571e-12
81740.3
81737.8
81735.8
81742.7
81746.4
81729.6
81704.5
81693.6
81698.6
81684.8
81613.9
81640.4
81675.8
81727.2
81777.2
81819
36351.7
81859.9
0.00048988
1.75439e-07
7.36572e-09
8.26477e-10
1.472e-10
3.4432e-11
1.01794e-11
4.03586e-12
2.32851e-12
1.92984e-12