/*--------------------------------*- C++ -*----------------------------------*\
  =========                 |
  \\      /  F ield         | OpenFOAM: The Open Source CFD Toolbox
   \\    /   O peration     | Website:  https://openfoam.org
    \\  /    A nd           | Version:  7
     \\/     M anipulation  |
\*---------------------------------------------------------------------------*/
FoamFile
{
    version     2.0;
    format      ascii;
    class       volScalarField;
    location    "5";
    object      nuTotal;
}
// * * * * * * * * * * * * * * * * * * * * * * * * * * * * * * * * * * * * * //

dimensions      [0 2 -1 0 0 0 0];

internalField   nonuniform List<scalar> 
49920
(
3.44981e-07
3.44994e-07
3.44973e-07
3.44974e-07
3.44974e-07
3.44974e-07
3.44975e-07
3.44973e-07
3.44974e-07
3.44975e-07
3.44975e-07
3.44974e-07
3.44975e-07
3.44973e-07
3.44977e-07
3.44977e-07
3.44973e-07
3.44971e-07
3.44969e-07
3.44969e-07
3.4497e-07
3.44971e-07
3.44973e-07
3.44975e-07
3.44978e-07
3.44979e-07
3.44982e-07
3.44982e-07
3.44983e-07
3.44982e-07
3.44983e-07
3.44981e-07
3.44982e-07
3.44981e-07
3.44983e-07
3.44983e-07
3.44986e-07
3.44985e-07
3.44986e-07
3.44985e-07
3.44987e-07
3.44985e-07
3.44988e-07
3.44984e-07
3.44986e-07
3.44979e-07
3.44977e-07
3.44985e-07
3.44978e-07
3.45019e-07
3.44961e-07
3.45038e-07
3.44937e-07
3.45025e-07
3.44909e-07
3.45027e-07
3.44939e-07
3.45011e-07
3.44943e-07
3.45007e-07
3.44943e-07
3.45003e-07
3.44941e-07
3.45e-07
3.44942e-07
3.44997e-07
3.44941e-07
3.44993e-07
3.44942e-07
3.44989e-07
3.44941e-07
3.44986e-07
3.44943e-07
3.44983e-07
3.44943e-07
3.4498e-07
3.44942e-07
3.44982e-07
3.4495e-07
3.44985e-07
3.44901e-07
3.44894e-07
3.44969e-07
3.44968e-07
3.4497e-07
3.44969e-07
3.44971e-07
3.44969e-07
3.44971e-07
3.4497e-07
3.4497e-07
3.4497e-07
3.44971e-07
3.44972e-07
3.44978e-07
3.4497e-07
3.44968e-07
3.44969e-07
3.44969e-07
3.44969e-07
3.4497e-07
3.44973e-07
3.44976e-07
3.44979e-07
3.44982e-07
3.44986e-07
3.44988e-07
3.44988e-07
3.44988e-07
3.44989e-07
3.4499e-07
3.44992e-07
3.4499e-07
3.44995e-07
3.44996e-07
3.45004e-07
3.45001e-07
3.45004e-07
3.44998e-07
3.45004e-07
3.44998e-07
3.45008e-07
3.44995e-07
3.45e-07
3.44974e-07
3.44979e-07
3.44983e-07
3.45048e-07
3.45049e-07
3.45014e-07
3.45047e-07
3.44945e-07
3.45069e-07
3.44934e-07
3.45051e-07
3.4495e-07
3.45022e-07
3.44951e-07
3.45013e-07
3.44943e-07
3.45008e-07
3.44939e-07
3.45e-07
3.44937e-07
3.44998e-07
3.44936e-07
3.44991e-07
3.44935e-07
3.44988e-07
3.44934e-07
3.44982e-07
3.44935e-07
3.4498e-07
3.44937e-07
3.44975e-07
3.44935e-07
3.44975e-07
3.44944e-07
3.44965e-07
3.44956e-07
3.45865e-07
3.45051e-07
3.44958e-07
3.44978e-07
3.44972e-07
3.4498e-07
3.44982e-07
3.44982e-07
3.44977e-07
3.44973e-07
3.44972e-07
3.44972e-07
3.44974e-07
3.44977e-07
3.4498e-07
3.44954e-07
3.44961e-07
3.44963e-07
3.44962e-07
3.44964e-07
3.44967e-07
3.44973e-07
3.44977e-07
3.44982e-07
3.44986e-07
3.44988e-07
3.44987e-07
3.44986e-07
3.44986e-07
3.44994e-07
3.44996e-07
3.45003e-07
3.45005e-07
3.45013e-07
3.45018e-07
3.45021e-07
3.4502e-07
3.45016e-07
3.45019e-07
3.45012e-07
3.45015e-07
3.45001e-07
3.45003e-07
3.44985e-07
3.45001e-07
3.45022e-07
3.45105e-07
3.4507e-07
3.45095e-07
3.45003e-07
3.45001e-07
3.45061e-07
3.44973e-07
3.44981e-07
3.45018e-07
3.4499e-07
3.45003e-07
3.44982e-07
3.44984e-07
3.44971e-07
3.44975e-07
3.44963e-07
3.44967e-07
3.4496e-07
3.44964e-07
3.44955e-07
3.44957e-07
3.44953e-07
3.44955e-07
3.4495e-07
3.44952e-07
3.4495e-07
3.44953e-07
3.4495e-07
3.44953e-07
3.44952e-07
3.44958e-07
3.44944e-07
3.44956e-07
3.44962e-07
3.45396e-07
3.45293e-07
3.44976e-07
3.44951e-07
3.44993e-07
3.44977e-07
3.44976e-07
3.44975e-07
3.44981e-07
3.44982e-07
3.44982e-07
3.4498e-07
3.44979e-07
3.44971e-07
3.44958e-07
3.44947e-07
3.44961e-07
3.44966e-07
3.4497e-07
3.44969e-07
3.44973e-07
3.44973e-07
3.4498e-07
3.44984e-07
3.44987e-07
3.44987e-07
3.44988e-07
3.44993e-07
3.44999e-07
3.45005e-07
3.45014e-07
3.45016e-07
3.45027e-07
3.45026e-07
3.45037e-07
3.45027e-07
3.45037e-07
3.45021e-07
3.45032e-07
3.45013e-07
3.4503e-07
3.45013e-07
3.4504e-07
3.45037e-07
3.45096e-07
3.45104e-07
3.45097e-07
3.45126e-07
3.44999e-07
3.45081e-07
3.44997e-07
3.45025e-07
3.44942e-07
3.45024e-07
3.4498e-07
3.45026e-07
3.44969e-07
3.45008e-07
3.44951e-07
3.44993e-07
3.44942e-07
3.4498e-07
3.44934e-07
3.44973e-07
3.4493e-07
3.44966e-07
3.44925e-07
3.44962e-07
3.44924e-07
3.44958e-07
3.44923e-07
3.44958e-07
3.44925e-07
3.44959e-07
3.4493e-07
3.44967e-07
3.44938e-07
3.44958e-07
3.44942e-07
3.44963e-07
3.45346e-07
3.4535e-07
3.44968e-07
3.44888e-07
3.44896e-07
3.44933e-07
3.44911e-07
3.44942e-07
3.44963e-07
3.44966e-07
3.44972e-07
3.44973e-07
3.44956e-07
3.44933e-07
3.44946e-07
3.44942e-07
3.44944e-07
3.44963e-07
3.44962e-07
3.44961e-07
3.44964e-07
3.44975e-07
3.44984e-07
3.44988e-07
3.44994e-07
3.44996e-07
3.45006e-07
3.45005e-07
3.45013e-07
3.45012e-07
3.45024e-07
3.45028e-07
3.45034e-07
3.45042e-07
3.45038e-07
3.45051e-07
3.45036e-07
3.45059e-07
3.45036e-07
3.45072e-07
3.45044e-07
3.45097e-07
3.45071e-07
3.45139e-07
3.45075e-07
3.45128e-07
3.45062e-07
3.45056e-07
3.45073e-07
3.44992e-07
3.45005e-07
3.44988e-07
3.4497e-07
3.45007e-07
3.44987e-07
3.45001e-07
3.44972e-07
3.44985e-07
3.44955e-07
3.44972e-07
3.44944e-07
3.4496e-07
3.44934e-07
3.44951e-07
3.44929e-07
3.44944e-07
3.44924e-07
3.44939e-07
3.44923e-07
3.44936e-07
3.44923e-07
3.44934e-07
3.44928e-07
3.44938e-07
3.44942e-07
3.44953e-07
3.44954e-07
3.44965e-07
3.4495e-07
3.44956e-07
3.45131e-07
3.45031e-07
3.45033e-07
3.44926e-07
3.44884e-07
3.44882e-07
3.44873e-07
3.44904e-07
3.4494e-07
3.44924e-07
3.44948e-07
3.44941e-07
3.44934e-07
3.44945e-07
3.44948e-07
3.44941e-07
3.44953e-07
3.44967e-07
3.44967e-07
3.44971e-07
3.4498e-07
3.44989e-07
3.44994e-07
3.45002e-07
3.45003e-07
3.45009e-07
3.4501e-07
3.45017e-07
3.45015e-07
3.45032e-07
3.45034e-07
3.45048e-07
3.45051e-07
3.45061e-07
3.45067e-07
3.45071e-07
3.4508e-07
3.45075e-07
3.45093e-07
3.45086e-07
3.45115e-07
3.45108e-07
3.45129e-07
3.45075e-07
3.45135e-07
3.45011e-07
3.45125e-07
3.4498e-07
3.45064e-07
3.44931e-07
3.45055e-07
3.4491e-07
3.45048e-07
3.44922e-07
3.45046e-07
3.44914e-07
3.4503e-07
3.44902e-07
3.45014e-07
3.44894e-07
3.45e-07
3.44886e-07
3.44988e-07
3.44882e-07
3.44978e-07
3.44878e-07
3.44968e-07
3.44878e-07
3.44961e-07
3.44881e-07
3.44956e-07
3.44888e-07
3.44955e-07
3.44906e-07
3.44966e-07
3.44937e-07
3.44998e-07
3.44954e-07
3.44972e-07
3.44953e-07
3.45021e-07
3.4498e-07
3.45072e-07
3.44966e-07
3.44897e-07
3.44869e-07
3.44851e-07
3.44885e-07
3.44927e-07
3.44916e-07
3.44927e-07
3.44933e-07
3.4493e-07
3.44938e-07
3.44947e-07
3.44947e-07
3.44963e-07
3.44967e-07
3.44968e-07
3.44972e-07
3.44981e-07
3.44993e-07
3.45002e-07
3.45003e-07
3.45003e-07
3.45012e-07
3.45024e-07
3.45035e-07
3.45045e-07
3.45056e-07
3.45067e-07
3.45075e-07
3.45085e-07
3.45092e-07
3.45098e-07
3.451e-07
3.45105e-07
3.45109e-07
3.4512e-07
3.45128e-07
3.45138e-07
3.45119e-07
3.45096e-07
3.45122e-07
3.45021e-07
3.45166e-07
3.44919e-07
3.45129e-07
3.44901e-07
3.45084e-07
3.44893e-07
3.4506e-07
3.44894e-07
3.45052e-07
3.44887e-07
3.45038e-07
3.4488e-07
3.45023e-07
3.44872e-07
3.45009e-07
3.44867e-07
3.44996e-07
3.44863e-07
3.44985e-07
3.44861e-07
3.44975e-07
3.4486e-07
3.44966e-07
3.44862e-07
3.44958e-07
3.44867e-07
3.44954e-07
3.44883e-07
3.44959e-07
3.44918e-07
3.44995e-07
3.44962e-07
3.44984e-07
3.44966e-07
3.44967e-07
3.44969e-07
3.4495e-07
3.45033e-07
3.44962e-07
3.44895e-07
3.44853e-07
3.44834e-07
3.44867e-07
3.44909e-07
3.44909e-07
3.44923e-07
3.44924e-07
3.44919e-07
3.44924e-07
3.44931e-07
3.44937e-07
3.44964e-07
3.44962e-07
3.44968e-07
3.44977e-07
3.44997e-07
3.45005e-07
3.45005e-07
3.44999e-07
3.45013e-07
3.45036e-07
3.45059e-07
3.45069e-07
3.45081e-07
3.4509e-07
3.45102e-07
3.45106e-07
3.45114e-07
3.45114e-07
3.45118e-07
3.4512e-07
3.45129e-07
3.45135e-07
3.45144e-07
3.45145e-07
3.45128e-07
3.45111e-07
3.45125e-07
3.4505e-07
3.45181e-07
3.4493e-07
3.45148e-07
3.44926e-07
3.45093e-07
3.4491e-07
3.45063e-07
3.44896e-07
3.45046e-07
3.44886e-07
3.45029e-07
3.44878e-07
3.45013e-07
3.44871e-07
3.45e-07
3.44867e-07
3.44987e-07
3.44863e-07
3.44976e-07
3.44861e-07
3.44965e-07
3.44858e-07
3.44955e-07
3.44858e-07
3.44945e-07
3.4486e-07
3.4494e-07
3.44872e-07
3.44941e-07
3.44902e-07
3.44969e-07
3.44956e-07
3.44984e-07
3.44973e-07
3.44963e-07
3.44974e-07
3.44901e-07
3.44887e-07
3.4495e-07
3.44927e-07
3.44887e-07
3.44848e-07
3.44831e-07
3.44856e-07
3.44894e-07
3.44909e-07
3.44915e-07
3.44919e-07
3.44908e-07
3.44923e-07
3.4492e-07
3.44937e-07
3.44956e-07
3.44968e-07
3.44975e-07
3.44994e-07
3.45003e-07
3.45001e-07
3.44997e-07
3.45014e-07
3.45052e-07
3.45076e-07
3.45096e-07
3.45102e-07
3.45112e-07
3.45115e-07
3.45117e-07
3.45116e-07
3.45114e-07
3.45115e-07
3.45112e-07
3.45122e-07
3.45118e-07
3.45134e-07
3.45121e-07
3.45129e-07
3.4511e-07
3.45123e-07
3.45072e-07
3.45167e-07
3.44971e-07
3.45153e-07
3.44961e-07
3.45099e-07
3.44941e-07
3.45066e-07
3.44921e-07
3.4504e-07
3.44907e-07
3.45018e-07
3.44897e-07
3.44999e-07
3.44891e-07
3.44983e-07
3.44886e-07
3.4497e-07
3.44881e-07
3.44958e-07
3.44876e-07
3.44947e-07
3.44872e-07
3.44936e-07
3.44868e-07
3.44926e-07
3.44866e-07
3.44919e-07
3.4487e-07
3.4492e-07
3.44892e-07
3.44944e-07
3.44942e-07
3.44975e-07
3.44976e-07
3.44961e-07
3.44979e-07
3.44978e-07
3.44836e-07
3.44809e-07
3.44854e-07
3.44874e-07
3.44868e-07
3.44847e-07
3.44838e-07
3.44856e-07
3.44892e-07
3.44891e-07
3.44914e-07
3.44897e-07
3.4491e-07
3.44921e-07
3.44936e-07
3.44945e-07
3.44968e-07
3.44972e-07
3.44979e-07
3.44999e-07
3.44992e-07
3.44999e-07
3.45015e-07
3.45072e-07
3.45089e-07
3.45121e-07
3.45113e-07
3.45117e-07
3.45094e-07
3.45105e-07
3.45083e-07
3.45089e-07
3.45075e-07
3.45074e-07
3.45073e-07
3.45058e-07
3.45077e-07
3.4505e-07
3.45097e-07
3.4507e-07
3.45093e-07
3.45074e-07
3.45108e-07
3.45005e-07
3.45098e-07
3.45002e-07
3.45059e-07
3.44988e-07
3.4503e-07
3.44973e-07
3.45004e-07
3.4496e-07
3.44981e-07
3.4495e-07
3.44962e-07
3.44943e-07
3.44947e-07
3.44937e-07
3.44935e-07
3.4493e-07
3.44923e-07
3.44922e-07
3.44913e-07
3.44913e-07
3.44903e-07
3.44904e-07
3.44895e-07
3.44896e-07
3.44889e-07
3.44892e-07
3.44891e-07
3.44901e-07
3.44914e-07
3.4494e-07
3.44962e-07
3.44982e-07
3.44969e-07
3.44981e-07
3.44976e-07
3.44991e-07
3.44788e-07
3.44739e-07
3.44762e-07
3.44801e-07
3.4483e-07
3.44842e-07
3.44848e-07
3.44872e-07
3.44887e-07
3.449e-07
3.44892e-07
3.44892e-07
3.44895e-07
3.44923e-07
3.44948e-07
3.44947e-07
3.44967e-07
3.44963e-07
3.44987e-07
3.44977e-07
3.44993e-07
3.45014e-07
3.45082e-07
3.45093e-07
3.45114e-07
3.4509e-07
3.45082e-07
3.45055e-07
3.45071e-07
3.4504e-07
3.45061e-07
3.45033e-07
3.45046e-07
3.45028e-07
3.45015e-07
3.45015e-07
3.44978e-07
3.45018e-07
3.44983e-07
3.45038e-07
3.45051e-07
3.45046e-07
3.45049e-07
3.45008e-07
3.45012e-07
3.44975e-07
3.45023e-07
3.44956e-07
3.45016e-07
3.44934e-07
3.45011e-07
3.44917e-07
3.45002e-07
3.44904e-07
3.44995e-07
3.44894e-07
3.44988e-07
3.44888e-07
3.4498e-07
3.44881e-07
3.44969e-07
3.44874e-07
3.44957e-07
3.44867e-07
3.44945e-07
3.44862e-07
3.44933e-07
3.44858e-07
3.44924e-07
3.44862e-07
3.44924e-07
3.44885e-07
3.44951e-07
3.44943e-07
3.44998e-07
3.44979e-07
3.44993e-07
3.44963e-07
3.44988e-07
3.44983e-07
3.44757e-07
3.4469e-07
3.44695e-07
3.44734e-07
3.44774e-07
3.44809e-07
3.44836e-07
3.4486e-07
3.44873e-07
3.44872e-07
3.4487e-07
3.44871e-07
3.44881e-07
3.44914e-07
3.44934e-07
3.4496e-07
3.44954e-07
3.44968e-07
3.44967e-07
3.44988e-07
3.45023e-07
3.45088e-07
3.45114e-07
3.45114e-07
3.45094e-07
3.45071e-07
3.45059e-07
3.4506e-07
3.45057e-07
3.45068e-07
3.45057e-07
3.45072e-07
3.4507e-07
3.45069e-07
3.45065e-07
3.4504e-07
3.45027e-07
3.44993e-07
3.4496e-07
3.44991e-07
3.44945e-07
3.45079e-07
3.44981e-07
3.4506e-07
3.44903e-07
3.45002e-07
3.44883e-07
3.45022e-07
3.44867e-07
3.45006e-07
3.44866e-07
3.45e-07
3.44856e-07
3.44993e-07
3.4485e-07
3.44987e-07
3.44847e-07
3.4498e-07
3.44845e-07
3.44972e-07
3.44843e-07
3.44962e-07
3.44841e-07
3.44951e-07
3.44839e-07
3.4494e-07
3.44839e-07
3.44932e-07
3.44845e-07
3.44932e-07
3.44867e-07
3.44957e-07
3.44927e-07
3.45013e-07
3.4499e-07
3.4503e-07
3.4498e-07
3.45003e-07
3.4498e-07
3.45011e-07
3.44754e-07
3.44667e-07
3.44652e-07
3.44683e-07
3.44729e-07
3.44777e-07
3.4482e-07
3.44852e-07
3.44868e-07
3.44854e-07
3.44861e-07
3.44848e-07
3.4487e-07
3.44892e-07
3.44926e-07
3.44939e-07
3.44947e-07
3.44961e-07
3.44983e-07
3.45021e-07
3.45078e-07
3.45121e-07
3.45105e-07
3.45079e-07
3.45044e-07
3.45041e-07
3.45039e-07
3.45043e-07
3.45032e-07
3.4504e-07
3.45061e-07
3.45077e-07
3.45093e-07
3.45108e-07
3.45121e-07
3.45127e-07
3.45143e-07
3.45173e-07
3.45141e-07
3.44959e-07
3.45019e-07
3.4493e-07
3.45103e-07
3.45007e-07
3.45088e-07
3.44855e-07
3.44978e-07
3.44835e-07
3.44971e-07
3.44814e-07
3.44974e-07
3.448e-07
3.44966e-07
3.44798e-07
3.44946e-07
3.44801e-07
3.44936e-07
3.44807e-07
3.44934e-07
3.44808e-07
3.44929e-07
3.4481e-07
3.44922e-07
3.44813e-07
3.44916e-07
3.4482e-07
3.44913e-07
3.4483e-07
3.4492e-07
3.44854e-07
3.44947e-07
3.4491e-07
3.45009e-07
3.44995e-07
3.45071e-07
3.45024e-07
3.4505e-07
3.44979e-07
3.45022e-07
3.44992e-07
3.44757e-07
3.44664e-07
3.44633e-07
3.44651e-07
3.4469e-07
3.44742e-07
3.44795e-07
3.44834e-07
3.4485e-07
3.44843e-07
3.44842e-07
3.44846e-07
3.44865e-07
3.4488e-07
3.44916e-07
3.44942e-07
3.44964e-07
3.44971e-07
3.45009e-07
3.45059e-07
3.45117e-07
3.45106e-07
3.45067e-07
3.45031e-07
3.45037e-07
3.45044e-07
3.45039e-07
3.45022e-07
3.45069e-07
3.45052e-07
3.45049e-07
3.45062e-07
3.45088e-07
3.45115e-07
3.45139e-07
3.45159e-07
3.45181e-07
3.45196e-07
3.45165e-07
3.45121e-07
3.45137e-07
3.45056e-07
3.44961e-07
3.45125e-07
3.45086e-07
3.45128e-07
3.44851e-07
3.44944e-07
3.44781e-07
3.44923e-07
3.44789e-07
3.44882e-07
3.44791e-07
3.44883e-07
3.44767e-07
3.44879e-07
3.44763e-07
3.44887e-07
3.44765e-07
3.44889e-07
3.44774e-07
3.44886e-07
3.44779e-07
3.44881e-07
3.44791e-07
3.44883e-07
3.44808e-07
3.44895e-07
3.44835e-07
3.44925e-07
3.44888e-07
3.44986e-07
3.44979e-07
3.45067e-07
3.45032e-07
3.45058e-07
3.44949e-07
3.44962e-07
3.44867e-07
3.44896e-07
3.44762e-07
3.4467e-07
3.44628e-07
3.44634e-07
3.44665e-07
3.44711e-07
3.44764e-07
3.4481e-07
3.44828e-07
3.44826e-07
3.4483e-07
3.44849e-07
3.44881e-07
3.44898e-07
3.44916e-07
3.44937e-07
3.44946e-07
3.44979e-07
3.45035e-07
3.45101e-07
3.45102e-07
3.4506e-07
3.45023e-07
3.45032e-07
3.45046e-07
3.45026e-07
3.44976e-07
3.44966e-07
3.45e-07
3.45007e-07
3.45013e-07
3.45032e-07
3.45059e-07
3.45091e-07
3.45119e-07
3.45143e-07
3.45173e-07
3.45193e-07
3.45195e-07
3.45179e-07
3.4515e-07
3.45069e-07
3.44989e-07
3.45066e-07
3.45063e-07
3.45082e-07
3.45136e-07
3.44915e-07
3.44912e-07
3.44785e-07
3.44909e-07
3.44769e-07
3.44897e-07
3.44769e-07
3.44854e-07
3.44733e-07
3.44827e-07
3.44727e-07
3.44841e-07
3.44751e-07
3.4485e-07
3.44765e-07
3.44849e-07
3.44774e-07
3.44849e-07
3.44792e-07
3.44864e-07
3.4482e-07
3.44893e-07
3.44865e-07
3.44948e-07
3.44943e-07
3.45017e-07
3.44987e-07
3.45006e-07
3.44896e-07
3.44869e-07
3.44746e-07
3.44743e-07
3.447e-07
3.4478e-07
3.44688e-07
3.44636e-07
3.44629e-07
3.4465e-07
3.44689e-07
3.44739e-07
3.44783e-07
3.44807e-07
3.44811e-07
3.4482e-07
3.44852e-07
3.44894e-07
3.44911e-07
3.44922e-07
3.44946e-07
3.44969e-07
3.45014e-07
3.45069e-07
3.4509e-07
3.45055e-07
3.45017e-07
3.45025e-07
3.45047e-07
3.45013e-07
3.44912e-07
3.44858e-07
3.4489e-07
3.44939e-07
3.44963e-07
3.44984e-07
3.45006e-07
3.45033e-07
3.45062e-07
3.45089e-07
3.45115e-07
3.45141e-07
3.45166e-07
3.45179e-07
3.45182e-07
3.45163e-07
3.45122e-07
3.4509e-07
3.45108e-07
3.45036e-07
3.44914e-07
3.44848e-07
3.45136e-07
3.45057e-07
3.449e-07
3.44871e-07
3.449e-07
3.44812e-07
3.44872e-07
3.44829e-07
3.4483e-07
3.44726e-07
3.44745e-07
3.44745e-07
3.44788e-07
3.44783e-07
3.44812e-07
3.44797e-07
3.44818e-07
3.44809e-07
3.44832e-07
3.44828e-07
3.4485e-07
3.44854e-07
3.44888e-07
3.44901e-07
3.44946e-07
3.44936e-07
3.44965e-07
3.44896e-07
3.44874e-07
3.44792e-07
3.4473e-07
3.44777e-07
3.44889e-07
3.44792e-07
3.44709e-07
3.44649e-07
3.44633e-07
3.44647e-07
3.44676e-07
3.4472e-07
3.44765e-07
3.44791e-07
3.44801e-07
3.44816e-07
3.44852e-07
3.44905e-07
3.44927e-07
3.4492e-07
3.44931e-07
3.44966e-07
3.45027e-07
3.45073e-07
3.45061e-07
3.45026e-07
3.45024e-07
3.45048e-07
3.45012e-07
3.44866e-07
3.44813e-07
3.4482e-07
3.44866e-07
3.44907e-07
3.44936e-07
3.44959e-07
3.44982e-07
3.45007e-07
3.45034e-07
3.4506e-07
3.45085e-07
3.4511e-07
3.45134e-07
3.45149e-07
3.45158e-07
3.45155e-07
3.4514e-07
3.45126e-07
3.45124e-07
3.45086e-07
3.45011e-07
3.44962e-07
3.45059e-07
3.45071e-07
3.45033e-07
3.44975e-07
3.44928e-07
3.44837e-07
3.44966e-07
3.45088e-07
3.45071e-07
3.44848e-07
3.447e-07
3.44716e-07
3.44771e-07
3.44743e-07
3.44822e-07
3.44787e-07
3.44843e-07
3.44804e-07
3.44851e-07
3.44814e-07
3.4486e-07
3.44825e-07
3.44869e-07
3.44872e-07
3.44904e-07
3.44962e-07
3.44983e-07
3.45004e-07
3.44942e-07
3.44865e-07
3.44972e-07
3.4518e-07
3.454e-07
3.44817e-07
3.44734e-07
3.44668e-07
3.44643e-07
3.44647e-07
3.44671e-07
3.4471e-07
3.4475e-07
3.44782e-07
3.44799e-07
3.44814e-07
3.44847e-07
3.449e-07
3.44935e-07
3.4494e-07
3.44962e-07
3.45009e-07
3.45053e-07
3.45057e-07
3.45028e-07
3.45022e-07
3.45041e-07
3.45035e-07
3.44855e-07
3.44781e-07
3.44787e-07
3.44821e-07
3.44858e-07
3.44887e-07
3.44913e-07
3.44935e-07
3.44957e-07
3.44982e-07
3.45006e-07
3.45034e-07
3.45056e-07
3.45081e-07
3.45101e-07
3.4512e-07
3.4513e-07
3.45135e-07
3.45131e-07
3.45125e-07
3.45116e-07
3.45096e-07
3.45058e-07
3.45029e-07
3.45032e-07
3.45031e-07
3.45013e-07
3.44999e-07
3.4491e-07
3.44824e-07
3.44926e-07
3.45145e-07
3.45542e-07
3.45013e-07
3.44794e-07
3.4478e-07
3.4466e-07
3.44767e-07
3.44714e-07
3.44817e-07
3.44782e-07
3.44836e-07
3.44784e-07
3.44838e-07
3.4478e-07
3.44831e-07
3.44803e-07
3.44856e-07
3.44914e-07
3.45018e-07
3.45136e-07
3.45138e-07
3.4506e-07
3.45006e-07
3.45111e-07
3.4545e-07
3.45614e-07
3.44839e-07
3.44764e-07
3.44692e-07
3.44658e-07
3.44656e-07
3.44671e-07
3.44702e-07
3.44743e-07
3.44777e-07
3.44801e-07
3.4482e-07
3.44839e-07
3.44878e-07
3.44915e-07
3.44926e-07
3.44947e-07
3.44999e-07
3.45039e-07
3.45042e-07
3.45037e-07
3.45043e-07
3.45035e-07
3.44908e-07
3.44775e-07
3.44774e-07
3.44786e-07
3.44823e-07
3.44848e-07
3.44872e-07
3.4489e-07
3.44911e-07
3.44933e-07
3.44955e-07
3.44981e-07
3.45004e-07
3.4503e-07
3.45052e-07
3.45075e-07
3.45091e-07
3.45105e-07
3.45111e-07
3.45115e-07
3.45111e-07
3.45104e-07
3.45089e-07
3.45068e-07
3.45043e-07
3.45028e-07
3.45011e-07
3.44992e-07
3.44965e-07
3.4491e-07
3.44832e-07
3.44699e-07
3.44693e-07
3.4513e-07
3.45315e-07
3.4504e-07
3.44764e-07
3.4476e-07
3.44671e-07
3.44683e-07
3.44686e-07
3.44783e-07
3.44753e-07
3.44745e-07
3.4473e-07
3.44757e-07
3.44761e-07
3.44794e-07
3.44827e-07
3.44906e-07
3.44977e-07
3.45091e-07
3.45159e-07
3.45183e-07
3.45007e-07
3.45046e-07
3.4521e-07
3.45321e-07
3.44862e-07
3.44788e-07
3.44715e-07
3.44676e-07
3.44666e-07
3.44676e-07
3.44701e-07
3.44736e-07
3.44775e-07
3.44808e-07
3.4483e-07
3.44841e-07
3.44854e-07
3.44888e-07
3.44928e-07
3.44974e-07
3.45033e-07
3.45063e-07
3.4505e-07
3.45026e-07
3.45015e-07
3.45003e-07
3.44786e-07
3.44787e-07
3.44784e-07
3.44786e-07
3.44821e-07
3.44842e-07
3.44858e-07
3.44871e-07
3.44889e-07
3.44906e-07
3.44931e-07
3.44953e-07
3.44978e-07
3.45003e-07
3.45026e-07
3.45047e-07
3.45067e-07
3.4508e-07
3.4509e-07
3.45096e-07
3.45096e-07
3.4509e-07
3.4508e-07
3.45065e-07
3.45046e-07
3.45026e-07
3.45006e-07
3.44984e-07
3.44946e-07
3.44906e-07
3.44799e-07
3.44748e-07
3.44678e-07
3.44866e-07
3.45009e-07
3.44992e-07
3.4487e-07
3.44843e-07
3.44796e-07
3.4476e-07
3.44738e-07
3.44714e-07
3.44776e-07
3.4477e-07
3.44741e-07
3.44731e-07
3.44729e-07
3.44742e-07
3.44777e-07
3.44823e-07
3.44871e-07
3.4492e-07
3.45027e-07
3.45005e-07
3.44952e-07
3.44991e-07
3.45082e-07
3.45118e-07
3.44889e-07
3.44822e-07
3.44741e-07
3.44695e-07
3.44682e-07
3.44683e-07
3.447e-07
3.44733e-07
3.44773e-07
3.44815e-07
3.4485e-07
3.44855e-07
3.44844e-07
3.44861e-07
3.44916e-07
3.44979e-07
3.45041e-07
3.45068e-07
3.45042e-07
3.4502e-07
3.45091e-07
3.4489e-07
3.44809e-07
3.44828e-07
3.44803e-07
3.44785e-07
3.44818e-07
3.44837e-07
3.44847e-07
3.44859e-07
3.44868e-07
3.44888e-07
3.44904e-07
3.44928e-07
3.44952e-07
3.44977e-07
3.45e-07
3.45022e-07
3.45042e-07
3.45057e-07
3.45069e-07
3.45076e-07
3.45079e-07
3.45077e-07
3.45071e-07
3.4506e-07
3.45045e-07
3.45026e-07
3.45006e-07
3.44981e-07
3.44949e-07
3.44904e-07
3.44825e-07
3.44735e-07
3.44719e-07
3.44835e-07
3.4488e-07
3.44884e-07
3.44855e-07
3.44836e-07
3.44823e-07
3.44804e-07
3.44781e-07
3.44748e-07
3.44813e-07
3.4482e-07
3.44787e-07
3.44753e-07
3.44737e-07
3.44738e-07
3.44761e-07
3.44796e-07
3.44839e-07
3.44876e-07
3.44918e-07
3.44908e-07
3.44916e-07
3.44962e-07
3.45015e-07
3.45044e-07
3.44903e-07
3.44847e-07
3.44767e-07
3.44717e-07
3.44695e-07
3.44692e-07
3.44703e-07
3.44728e-07
3.44771e-07
3.44822e-07
3.44868e-07
3.44885e-07
3.44862e-07
3.44858e-07
3.44927e-07
3.45016e-07
3.45077e-07
3.45076e-07
3.4502e-07
3.45076e-07
3.45066e-07
3.4481e-07
3.44879e-07
3.44882e-07
3.44838e-07
3.44794e-07
3.44812e-07
3.44828e-07
3.44838e-07
3.44844e-07
3.44855e-07
3.44864e-07
3.44885e-07
3.44905e-07
3.44928e-07
3.44952e-07
3.44973e-07
3.44997e-07
3.45017e-07
3.45033e-07
3.45046e-07
3.45057e-07
3.45062e-07
3.45064e-07
3.45061e-07
3.45053e-07
3.45041e-07
3.45025e-07
3.45007e-07
3.44983e-07
3.44957e-07
3.44918e-07
3.4487e-07
3.44819e-07
3.4482e-07
3.44858e-07
3.4486e-07
3.44857e-07
3.44838e-07
3.44827e-07
3.44818e-07
3.44811e-07
3.44802e-07
3.44792e-07
3.4482e-07
3.44822e-07
3.44805e-07
3.44785e-07
3.44774e-07
3.44774e-07
3.44788e-07
3.44811e-07
3.44842e-07
3.4487e-07
3.44885e-07
3.44885e-07
3.44899e-07
3.44929e-07
3.44976e-07
3.45008e-07
3.4493e-07
3.44873e-07
3.44787e-07
3.44732e-07
3.44712e-07
3.44704e-07
3.44705e-07
3.44727e-07
3.44768e-07
3.44826e-07
3.44886e-07
3.44918e-07
3.44908e-07
3.44899e-07
3.44964e-07
3.45067e-07
3.45102e-07
3.45065e-07
3.45096e-07
3.45245e-07
3.44933e-07
3.4487e-07
3.44954e-07
3.44949e-07
3.44888e-07
3.44816e-07
3.44803e-07
3.44811e-07
3.44826e-07
3.44832e-07
3.44839e-07
3.44848e-07
3.44862e-07
3.44882e-07
3.44902e-07
3.44926e-07
3.44948e-07
3.44971e-07
3.44992e-07
3.45009e-07
3.45024e-07
3.45036e-07
3.45044e-07
3.45049e-07
3.45049e-07
3.45045e-07
3.45035e-07
3.45022e-07
3.45006e-07
3.44987e-07
3.44963e-07
3.44937e-07
3.44904e-07
3.44879e-07
3.44874e-07
3.44875e-07
3.44865e-07
3.44853e-07
3.44837e-07
3.44825e-07
3.44815e-07
3.44808e-07
3.44801e-07
3.44804e-07
3.44812e-07
3.44815e-07
3.44812e-07
3.44809e-07
3.44809e-07
3.44814e-07
3.44824e-07
3.44839e-07
3.44858e-07
3.44875e-07
3.4488e-07
3.4488e-07
3.44887e-07
3.44911e-07
3.44944e-07
3.44975e-07
3.44967e-07
3.44905e-07
3.44811e-07
3.4475e-07
3.44723e-07
3.44713e-07
3.44712e-07
3.44722e-07
3.44763e-07
3.4483e-07
3.44897e-07
3.44945e-07
3.44957e-07
3.44958e-07
3.45005e-07
3.45078e-07
3.45072e-07
3.45069e-07
3.45228e-07
3.45126e-07
3.44791e-07
3.44972e-07
3.45021e-07
3.44998e-07
3.44935e-07
3.44846e-07
3.44799e-07
3.4481e-07
3.44807e-07
3.44826e-07
3.44823e-07
3.4483e-07
3.44843e-07
3.44859e-07
3.44878e-07
3.449e-07
3.44923e-07
3.44945e-07
3.44967e-07
3.44985e-07
3.45002e-07
3.45014e-07
3.45026e-07
3.45032e-07
3.45036e-07
3.45033e-07
3.45029e-07
3.45019e-07
3.45006e-07
3.44989e-07
3.44969e-07
3.44946e-07
3.44925e-07
3.44904e-07
3.44894e-07
3.44881e-07
3.4487e-07
3.44854e-07
3.44842e-07
3.44825e-07
3.44818e-07
3.44804e-07
3.44803e-07
3.44801e-07
3.44806e-07
3.44809e-07
3.44817e-07
3.44822e-07
3.44831e-07
3.44839e-07
3.4485e-07
3.44861e-07
3.44873e-07
3.44879e-07
3.4488e-07
3.44878e-07
3.44884e-07
3.44898e-07
3.44923e-07
3.44944e-07
3.44982e-07
3.44917e-07
3.44823e-07
3.4476e-07
3.44737e-07
3.44726e-07
3.44715e-07
3.4472e-07
3.44757e-07
3.44829e-07
3.44907e-07
3.44958e-07
3.4499e-07
3.45006e-07
3.45036e-07
3.4509e-07
3.45114e-07
3.45228e-07
3.45353e-07
3.44903e-07
3.4481e-07
3.45027e-07
3.45041e-07
3.45022e-07
3.44959e-07
3.44865e-07
3.44816e-07
3.44812e-07
3.44823e-07
3.44811e-07
3.44816e-07
3.44818e-07
3.44828e-07
3.4484e-07
3.44858e-07
3.44877e-07
3.449e-07
3.44921e-07
3.44943e-07
3.44963e-07
3.44979e-07
3.44994e-07
3.45006e-07
3.45017e-07
3.4502e-07
3.45023e-07
3.4502e-07
3.45015e-07
3.45004e-07
3.44991e-07
3.44971e-07
3.44954e-07
3.44934e-07
3.44919e-07
3.44901e-07
3.44889e-07
3.44872e-07
3.44861e-07
3.44843e-07
3.44834e-07
3.44818e-07
3.4481e-07
3.44803e-07
3.44803e-07
3.44802e-07
3.44811e-07
3.44818e-07
3.4483e-07
3.4484e-07
3.44851e-07
3.44863e-07
3.44872e-07
3.44879e-07
3.44881e-07
3.44879e-07
3.44877e-07
3.4488e-07
3.4489e-07
3.44906e-07
3.44923e-07
3.44992e-07
3.44919e-07
3.44823e-07
3.44762e-07
3.44737e-07
3.44731e-07
3.44722e-07
3.44714e-07
3.44746e-07
3.44828e-07
3.44916e-07
3.44966e-07
3.44993e-07
3.45029e-07
3.45049e-07
3.45073e-07
3.45146e-07
3.45307e-07
3.45131e-07
3.44695e-07
3.44916e-07
3.45045e-07
3.45036e-07
3.45023e-07
3.44957e-07
3.44903e-07
3.44854e-07
3.44845e-07
3.44823e-07
3.44817e-07
3.44811e-07
3.44812e-07
3.44816e-07
3.44826e-07
3.4484e-07
3.44859e-07
3.44878e-07
3.44899e-07
3.44919e-07
3.44941e-07
3.44959e-07
3.44973e-07
3.44988e-07
3.44997e-07
3.45006e-07
3.4501e-07
3.45011e-07
3.45008e-07
3.45002e-07
3.4499e-07
3.44977e-07
3.44959e-07
3.44944e-07
3.44926e-07
3.44913e-07
3.44894e-07
3.44882e-07
3.44865e-07
3.44854e-07
3.44838e-07
3.44827e-07
3.44816e-07
3.4481e-07
3.44804e-07
3.44805e-07
3.44809e-07
3.44821e-07
3.44832e-07
3.44844e-07
3.44856e-07
3.44867e-07
3.44877e-07
3.44881e-07
3.44881e-07
3.44879e-07
3.44879e-07
3.44879e-07
3.44885e-07
3.44896e-07
3.44912e-07
3.44978e-07
3.44914e-07
3.44824e-07
3.44763e-07
3.44742e-07
3.44739e-07
3.44728e-07
3.44713e-07
3.44731e-07
3.4482e-07
3.44929e-07
3.4498e-07
3.44991e-07
3.4501e-07
3.45037e-07
3.45097e-07
3.45254e-07
3.45336e-07
3.44819e-07
3.44595e-07
3.44993e-07
3.45026e-07
3.45027e-07
3.45019e-07
3.44938e-07
3.44882e-07
3.44905e-07
3.44882e-07
3.44845e-07
3.44825e-07
3.44812e-07
3.44806e-07
3.44807e-07
3.44815e-07
3.44826e-07
3.44841e-07
3.44858e-07
3.44876e-07
3.44897e-07
3.44916e-07
3.44937e-07
3.44954e-07
3.44967e-07
3.4498e-07
3.44989e-07
3.44997e-07
3.44999e-07
3.45e-07
3.44996e-07
3.4499e-07
3.44979e-07
3.44966e-07
3.4495e-07
3.44935e-07
3.44919e-07
3.44904e-07
3.44888e-07
3.44874e-07
3.4486e-07
3.44846e-07
3.44834e-07
3.44821e-07
3.44815e-07
3.4481e-07
3.4481e-07
3.44816e-07
3.44822e-07
3.44832e-07
3.44844e-07
3.44856e-07
3.44867e-07
3.44874e-07
3.44878e-07
3.44877e-07
3.44878e-07
3.44875e-07
3.44877e-07
3.4488e-07
3.4489e-07
3.44903e-07
3.44939e-07
3.4488e-07
3.44806e-07
3.44758e-07
3.44738e-07
3.44737e-07
3.44733e-07
3.44711e-07
3.44712e-07
3.44799e-07
3.44934e-07
3.45011e-07
3.45001e-07
3.45e-07
3.45054e-07
3.45142e-07
3.45312e-07
3.45153e-07
3.44614e-07
3.44702e-07
3.45014e-07
3.44991e-07
3.44998e-07
3.45008e-07
3.44982e-07
3.44837e-07
3.44921e-07
3.44892e-07
3.44856e-07
3.44825e-07
3.44812e-07
3.44803e-07
3.44803e-07
3.44807e-07
3.44816e-07
3.44827e-07
3.4484e-07
3.44857e-07
3.44874e-07
3.44895e-07
3.44912e-07
3.44932e-07
3.44947e-07
3.44961e-07
3.44972e-07
3.4498e-07
3.44985e-07
3.44989e-07
3.44989e-07
3.44986e-07
3.44979e-07
3.4497e-07
3.44956e-07
3.44943e-07
3.44928e-07
3.44914e-07
3.44899e-07
3.44883e-07
3.44869e-07
3.44854e-07
3.44839e-07
3.44828e-07
3.44818e-07
3.44816e-07
3.44814e-07
3.4482e-07
3.44826e-07
3.44835e-07
3.44844e-07
3.44855e-07
3.44864e-07
3.44872e-07
3.44874e-07
3.44874e-07
3.44874e-07
3.44874e-07
3.44875e-07
3.44881e-07
3.44888e-07
3.44902e-07
3.44926e-07
3.44856e-07
3.4479e-07
3.44754e-07
3.44742e-07
3.44744e-07
3.4474e-07
3.44716e-07
3.44696e-07
3.44765e-07
3.44923e-07
3.45038e-07
3.45047e-07
3.45021e-07
3.45067e-07
3.45213e-07
3.45251e-07
3.4479e-07
3.4446e-07
3.44886e-07
3.45008e-07
3.44935e-07
3.44895e-07
3.45026e-07
3.44988e-07
3.44937e-07
3.44893e-07
3.44865e-07
3.44835e-07
3.44816e-07
3.44806e-07
3.44801e-07
3.44799e-07
3.44802e-07
3.44808e-07
3.44817e-07
3.44828e-07
3.44841e-07
3.44858e-07
3.44875e-07
3.44894e-07
3.44911e-07
3.44927e-07
3.44939e-07
3.44955e-07
3.44962e-07
3.4497e-07
3.44975e-07
3.4498e-07
3.44979e-07
3.44979e-07
3.44971e-07
3.44963e-07
3.44951e-07
3.44939e-07
3.44925e-07
3.4491e-07
3.44897e-07
3.44879e-07
3.44865e-07
3.44849e-07
3.44835e-07
3.44825e-07
3.44822e-07
3.4482e-07
3.44825e-07
3.44829e-07
3.44837e-07
3.44845e-07
3.44856e-07
3.44864e-07
3.44871e-07
3.44872e-07
3.44875e-07
3.44875e-07
3.44877e-07
3.44879e-07
3.44884e-07
3.44893e-07
3.44902e-07
3.44923e-07
3.44859e-07
3.44795e-07
3.4476e-07
3.4474e-07
3.44737e-07
3.44743e-07
3.44719e-07
3.44681e-07
3.44724e-07
3.44884e-07
3.45046e-07
3.45109e-07
3.45065e-07
3.45127e-07
3.45209e-07
3.45119e-07
3.44649e-07
3.44532e-07
3.45031e-07
3.44991e-07
3.44857e-07
3.44836e-07
3.44948e-07
3.4503e-07
3.44945e-07
3.44868e-07
3.44839e-07
3.44819e-07
3.44809e-07
3.44802e-07
3.44798e-07
3.44795e-07
3.44797e-07
3.44802e-07
3.44809e-07
3.44818e-07
3.4483e-07
3.44843e-07
3.4486e-07
3.44877e-07
3.44895e-07
3.44909e-07
3.44924e-07
3.44936e-07
3.44946e-07
3.44953e-07
3.44962e-07
3.44968e-07
3.44974e-07
3.44974e-07
3.44973e-07
3.44967e-07
3.44958e-07
3.44948e-07
3.44934e-07
3.44923e-07
3.44905e-07
3.44894e-07
3.44876e-07
3.44861e-07
3.44844e-07
3.44836e-07
3.44829e-07
3.4483e-07
3.44831e-07
3.44836e-07
3.44841e-07
3.44849e-07
3.44858e-07
3.44867e-07
3.44873e-07
3.44878e-07
3.44879e-07
3.44882e-07
3.44884e-07
3.44887e-07
3.44892e-07
3.44898e-07
3.44909e-07
3.44913e-07
3.44866e-07
3.44822e-07
3.44795e-07
3.4477e-07
3.44752e-07
3.44748e-07
3.44728e-07
3.44673e-07
3.44676e-07
3.44829e-07
3.45022e-07
3.45134e-07
3.45155e-07
3.45121e-07
3.45183e-07
3.44934e-07
3.44631e-07
3.44796e-07
3.45116e-07
3.4497e-07
3.44814e-07
3.44854e-07
3.4491e-07
3.44945e-07
3.44892e-07
3.44853e-07
3.44829e-07
3.44816e-07
3.44806e-07
3.44799e-07
3.44794e-07
3.44792e-07
3.44794e-07
3.44798e-07
3.44804e-07
3.44812e-07
3.44822e-07
3.44834e-07
3.44847e-07
3.44864e-07
3.44879e-07
3.44893e-07
3.44905e-07
3.44919e-07
3.44928e-07
3.44939e-07
3.44948e-07
3.44959e-07
3.44966e-07
3.4497e-07
3.4497e-07
3.44967e-07
3.44962e-07
3.44953e-07
3.44944e-07
3.44931e-07
3.44918e-07
3.44904e-07
3.44889e-07
3.44873e-07
3.44858e-07
3.44847e-07
3.44841e-07
3.44839e-07
3.44841e-07