/*--------------------------------*- C++ -*----------------------------------*\
  =========                 |
  \\      /  F ield         | OpenFOAM: The Open Source CFD Toolbox
   \\    /   O peration     | Website:  https://openfoam.org
    \\  /    A nd           | Version:  7
     \\/     M anipulation  |
\*---------------------------------------------------------------------------*/
FoamFile
{
    version     2.0;
    format      ascii;
    class       volScalarField;
    location    "5";
    object      p;
}
// * * * * * * * * * * * * * * * * * * * * * * * * * * * * * * * * * * * * * //

dimensions      [1 -1 -2 0 0 0 0];

internalField   nonuniform List<scalar> 
49920
(
108499
108684
108828
108925
108969
108966
109018
109040
109054
109034
109023
109013
108957
108843
108680
108500
108493
108493
108493
108493
108493
108493
108493
108493
108493
108494
108494
108494
108494
108494
108494
108494
108494
108494
108495
108495
108495
108495
108495
108495
108495
108496
108496
108496
108496
108496
108496
108496
108496
108496
108496
108497
108497
108497
108497
108497
108497
108497
108497
108497
108497
108497
108497
108497
108497
108497
108497
108497
108497
108497
108497
108497
108497
108497
108497
108497
108497
108497
108497
108497
108492
108576
108643
108718
108785
108824
108845
108845
108840
108855
108847
108813
108756
108671
108578
108492
108492
108493
108493
108493
108493
108493
108493
108493
108493
108494
108494
108494
108494
108494
108494
108494
108494
108494
108495
108495
108495
108495
108495
108495
108495
108496
108496
108496
108496
108496
108496
108496
108496
108496
108496
108497
108497
108497
108497
108497
108497
108497
108497
108497
108497
108497
108497
108497
108497
108497
108497
108497
108497
108497
108497
108497
108497
108497
108497
108497
108497
108497
108497
108497
108492
108493
108494
108576
108622
108678
108683
108690
108683
108704
108705
108679
108640
108576
108495
108492
108492
108493
108493
108493
108493
108493
108493
108493
108493
108494
108494
108494
108494
108494
108494
108494
108494
108494
108495
108495
108495
108495
108495
108495
108495
108496
108496
108496
108496
108496
108496
108496
108496
108496
108496
108497
108497
108497
108497
108497
108497
108497
108497
108497
108497
108497
108497
108497
108497
108497
108497
108497
108497
108497
108497
108497
108497
108497
108497
108497
108497
108497
108497
108497
108492
108492
108492
108493
108493
108494
108493
108493
108495
108572
108576
108574
108557
108493
108493
108493
108493
108493
108493
108493
108493
108493
108493
108493
108493
108494
108494
108494
108494
108494
108494
108494
108494
108494
108495
108495
108495
108495
108495
108495
108495
108496
108496
108496
108496
108496
108496
108496
108496
108496
108496
108497
108497
108497
108497
108497
108497
108497
108497
108497
108497
108497
108497
108497
108497
108497
108497
108497
108497
108497
108497
108497
108497
108497
108497
108497
108497
108497
108497
108497
108492
108492
108492
108492
108492
108492
108492
108492
108492
108492
108493
108493
108493
108492
108493
108493
108493
108493
108493
108493
108493
108493
108493
108493
108493
108493
108494
108494
108494
108494
108494
108494
108494
108494
108495
108495
108495
108495
108495
108495
108496
108496
108496
108496
108496
108496
108496
108496
108496
108496
108497
108497
108497
108497
108497
108497
108497
108497
108497
108497
108497
108497
108497
108497
108497
108497
108497
108497
108497
108497
108497
108497
108497
108497
108497
108497
108497
108497
108497
108497
108492
108493
108493
108493
108493
108493
108493
108493
108493
108492
108492
108493
108493
108493
108493
108493
108493
108493
108493
108493
108493
108493
108493
108493
108493
108493
108494
108494
108494
108494
108494
108494
108494
108494
108495
108495
108495
108495
108495
108495
108496
108496
108496
108496
108496
108496
108496
108496
108496
108496
108497
108497
108497
108497
108497
108497
108497
108497
108497
108497
108497
108497
108497
108497
108497
108497
108497
108497
108497
108497
108497
108497
108497
108497
108497
108497
108497
108497
108497
108497
108493
108493
108493
108493
108493
108493
108493
108493
108493
108493
108493
108493
108493
108493
108493
108493
108493
108493
108493
108493
108493
108493
108493
108493
108493
108493
108493
108494
108494
108494
108494
108494
108494
108494
108495
108495
108495
108495
108495
108495
108496
108496
108496
108496
108496
108496
108496
108496
108496
108496
108497
108497
108497
108497
108497
108497
108497
108497
108497
108497
108497
108497
108497
108497
108497
108497
108497
108497
108497
108497
108497
108497
108497
108497
108497
108497
108497
108497
108497
108497
108493
108493
108493
108493
108493
108493
108493
108493
108493
108493
108493
108493
108493
108493
108493
108493
108493
108493
108493
108493
108493
108493
108493
108493
108493
108493
108493
108493
108494
108494
108494
108494
108494
108494
108495
108495
108495
108495
108495
108495
108496
108496
108496
108496
108496
108496
108496
108496
108496
108497
108497
108497
108497
108497
108497
108497
108497
108497
108497
108497
108497
108497
108497
108497
108497
108497
108497
108497
108497
108497
108497
108497
108497
108497
108497
108497
108497
108497
108497
108497
108493
108493
108493
108493
108493
108493
108493
108493
108493
108493
108493
108493
108493
108493
108493
108493
108493
108493
108493
108493
108493
108493
108493
108493
108493
108493
108493
108493
108493
108493
108494
108494
108494
108494
108495
108495
108495
108495
108495
108496
108496
108496
108496
108496
108496
108496
108496
108496
108496
108497
108497
108497
108497
108497
108497
108497
108497
108497
108497
108497
108497
108497
108497
108497
108497
108497
108497
108497
108497
108497
108497
108497
108497
108497
108497
108497
108497
108497
108497
108497
108493
108493
108493
108493
108493
108493
108493
108493
108493
108493
108493
108493
108493
108493
108493
108493
108493
108493
108493
108493
108493
108493
108493
108493
108493
108493
108493
108493
108493
108493
108494
108494
108494
108494
108494
108495
108495
108495
108495
108496
108496
108496
108496
108496
108496
108496
108496
108496
108497
108497
108497
108497
108497
108497
108497
108497
108497
108497
108497
108497
108497
108497
108497
108497
108497
108497
108497
108497
108497
108497
108497
108497
108497
108497
108497
108497
108497
108497
108497
108498
108493
108493
108493
108493
108493
108493
108493
108493
108493
108493
108493
108493
108493
108493
108493
108493
108493
108493
108493
108493
108493
108493
108493
108493
108493
108492
108492
108492
108492
108493
108493
108494
108494
108494
108494
108495
108495
108495
108495
108496
108496
108496
108496
108496
108496
108496
108496
108496
108497
108497
108497
108497
108497
108497
108497
108497
108497
108497
108497
108497
108497
108497
108497
108497
108497
108497
108497
108497
108497
108497
108497
108497
108497
108497
108497
108497
108497
108497
108497
108498
108493
108493
108493
108493
108493
108493
108493
108493
108493
108493
108493
108493
108493
108493
108493
108493
108493
108493
108493
108493
108493
108493
108492
108492
108492
108492
108492
108492
108492
108492
108493
108494
108494
108494
108494
108494
108494
108495
108495
108496
108496
108496
108496
108496
108496
108496
108496
108497
108497
108497
108497
108497
108497
108497
108497
108497
108497
108497
108497
108497
108497
108497
108497
108497
108497
108497
108497
108497
108497
108497
108497
108497
108497
108497
108497
108497
108497
108497
108497
108498
108493
108493
108493
108493
108493
108493
108493
108493
108493
108493
108493
108493
108493
108493
108493
108493
108493
108493
108493
108493
108492
108492
108492
108492
108492
108492
108491
108491
108491
108490
108493
108494
108494
108494
108495
108495
108493
108496
108496
108496
108496
108496
108496
108496
108496
108496
108496
108497
108497
108497
108497
108497
108497
108497
108497
108497
108497
108497
108497
108497
108497
108497
108497
108497
108497
108497
108497
108497
108497
108497
108497
108497
108497
108497
108497
108497
108497
108497
108497
108498
108493
108493
108493
108493
108493
108493
108493
108493
108493
108493
108493
108493
108493
108493
108493
108493
108493
108493
108493
108492
108492
108492
108492
108492
108492
108491
108491
108491
108493
108489
108487
108488
108488
108488
108488
108487
108486
108488
108495
108495
108496
108496
108496
108496
108496
108496
108496
108497
108497
108497
108497
108497
108497
108497
108497
108497
108497
108497
108497
108497
108497
108497
108497
108497
108497
108497
108497
108497
108497
108497
108497
108497
108497
108497
108497
108497
108497
108497
108497
108498
108493
108493
108493
108493
108493
108493
108493
108493
108493
108493
108493
108493
108493
108493
108493
108493
108493
108492
108492
108492
108492
108492
108492
108492
108492
108491
108491
108489
108487
108484
108482
108480
108479
108477
108478
108478
108477
108478
108481
108482
108486
108496
108496
108497
108497
108497
108497
108497
108497
108497
108497
108497
108497
108497
108497
108497
108497
108497
108497
108497
108497
108497
108497
108497
108497
108497
108497
108497
108497
108497
108497
108497
108497
108497
108497
108497
108497
108497
108497
108498
108493
108493
108493
108493
108493
108493
108493
108493
108493
108493
108493
108493
108493
108493
108493
108493
108492
108492
108492
108492
108492
108492
108492
108492
108492
108492
108491
108488
108484
108480
108477
108473
108470
108469
108468
108467
108467
108467
108469
108471
108472
108476
108478
108482
108496
108496
108496
108497
108497
108497
108497
108497
108497
108497
108497
108497
108497
108497
108497
108497
108497
108497
108497
108497
108497
108497
108497
108497
108497
108497
108497
108497
108497
108497
108497
108497
108497
108497
108498
108498
108493
108493
108493
108493
108493
108493
108493
108493
108493
108493
108493
108493
108493
108493
108493
108492
108492
108492
108492
108492
108492
108492
108492
108492
108492
108492
108492
108486
108481
108476
108472
108467
108464
108462
108458
108456
108456
108455
108455
108458
108458
108460
108462
108465
108472
108477
108480
108485
108496
108497
108497
108497
108497
108497
108497
108497
108497
108497
108497
108497
108497
108497
108497
108497
108497
108497
108497
108497
108497
108497
108497
108497
108497
108497
108497
108497
108497
108497
108497
108498
108493
108493
108493
108493
108493
108493
108493
108493
108493
108493
108493
108493
108493
108493
108493
108492
108492
108492
108492
108492
108492
108492
108492
108492
108492
108492
108492
108485
108479
108473
108466
108461
108457
108453
108450
108446
108445
108442
108439
108441
108442
108444
108446
108450
108453
108455
108460
108465
108472
108479
108497
108497
108497
108497
108497
108497
108497
108497
108497
108497
108497
108497
108497
108497
108497
108497
108497
108497
108497
108497
108497
108497
108497
108497
108497
108497
108497
108498
108498
108498
108493
108493
108493
108493
108493
108493
108493
108493
108493
108493
108493
108493
108493
108493
108492
108492
108492
108492
108492
108492
108492
108492
108492
108492
108492
108492
108492
108483
108476
108468
108461
108455
108450
108445
108440
108435
108432
108428
108425
108425
108424
108425
108428
108432
108432
108433
108436
108442
108446
108454
108471
108497
108497
108497
108497
108497
108497
108497
108497
108497
108497
108497
108497
108497
108497
108497
108497
108497
108497
108497
108497
108497
108497
108497
108497
108497
108497
108497
108497
108498
108493
108493
108493
108493
108493
108493
108493
108493
108493
108493
108493
108493
108493
108493
108492
108492
108492
108492
108492
108492
108492
108492
108492
108492
108492
108492
108492
108481
108472
108465
108457
108449
108441
108434
108429
108424
108419
108415
108412
108409
108407
108406
108407
108406
108407
108412
108414
108418
108419
108422
108432
108446
108456
108464
108464
108474
108497
108497
108497
108497
108497
108497
108497
108497
108497
108497
108497
108497
108497
108497
108497
108497
108497
108497
108497
108497
108475
108468
108463
108460
108493
108493
108493
108493
108493
108493
108493
108493
108493
108493
108493
108493
108493
108492
108492
108492
108492
108492
108492
108492
108492
108492
108492
108492
108492
108492
108492
108480
108469
108461
108453
108443
108433
108426
108419
108412
108406
108400
108398
108395
108392
108390
108386
108384
108386
108389
108389
108387
108387
108387
108391
108396
108400
108416
108426
108436
108444
108448
108450
108452
108455
108458
108464
108497
108497
108497
108458
108443
108440
108441
108442
108440
108437
108437
108443
108444
108438
108432
108424
108417
108493
108493
108493
108493
108493
108493
108493
108493
108493
108493
108493
108493
108493
108492
108492
108492
108492
108492
108492
108492
108492
108492
108492
108492
108492
108492
108492
108479
108467
108458
108449
108436
108425
108417
108407
108398
108391
108384
108381
108379
108376
108372
108367
108365
108366
108366
108361
108358
108357
108355
108352
108352
108356
108369
108386
108389
108390
108396
108404
108408
108411
108407
108406
108411
108415
108412
108402
108397
108395
108392
108386
108381
108372
108371
108375
108385
108389
108380
108369
108365
108493
108493
108493
108493
108493
108493
108493
108493
108493
108493
108493
108493
108492
108492
108492
108492
108492
108492
108492
108492
108492
108492
108492
108492
108492
108492
108492
108477
108466
108457
108444
108426
108415
108405
108393
108384
108376
108370
108365
108359
108353
108350
108346
108341
108341
108338
108334
108333
108331
108329
108324
108323
108327
108329
108335
108338
108339
108343
108348
108350
108350
108344
108347
108348
108340
108335
108344
108350
108349
108342
108332
108324
108320
108323
108324
108322
108320
108314
108312
108315
108493
108493
108493
108493
108493
108493
108493
108493
108493
108493
108493
108493
108492
108492
108492
108492
108492
108492
108492
108492
108492
108492
108492
108492
108492
108492
108492
108475
108463
108452
108435
108417
108405
108393
108379
108371
108363
108356
108347
108336
108328
108323
108318
108314
108310
108303
108306
108307
108304
108303
108298
108296
108298
108291
108287
108288
108287
108287
108284
108286
108287
108281
108290
108291
108281
108282
108287
108293
108293
108283
108274
108267
108272
108278
108276
108270
108268
108267
108267
108265
108493
108493
108493
108493
108493
108493
108493
108493
108493
108493
108493
108492
108492
108492
108492
108492
108492
108492
108492
108492
108492
108492
108492
108492
108492
108492
108492
108474
108458
108440
108422
108407
108395
108380
108368
108359
108348
108337
108325
108315
108305
108295
108289
108287
108280
108275
108274
108274
108270
108265
108262
108262
108258
108250
108244
108240
108238
108236
108234
108241
108242
108241
108241
108233
108227
108227
108230
108233
108233
108230
108224
108220
108222
108220
108216
108217
108221
108227
108229
108225
108493
108493
108493
108493
108493
108493
108493
108493
108493
108493
108493
108492
108492
108492
108492
108492
108492
108492
108492
108492
108492
108492
108492
108492
108492
108492
108492
108471
108449
108430
108412
108396
108381
108367
108355
108343
108330
108317
108304
108294
108283
108272
108265
108257
108250
108247
108241
108237
108236
108232
108229
108227
108220
108214
108211
108207
108204
108203
108205
108206
108205
108204
108196
108188
108185
108183
108179
108179
108179
108183
108178
108177
108175
108172
108170
108175
108181
108190
108192
108188
108493
108493
108493
108493
108493
108493
108493
108493
108493
108493
108492
108492
108492
108492
108492
108492
108492
108492
108492
108492
108492
108492
108492
108492
108492
108492
108492
108466
108442
108422
108401
108384
108370
108357
108342
108325
108310
108296
108282
108270
108256
108249
108240
108230
108222
108219
108213
108207
108202
108199
108194
108187
108180
108180
108178
108175
108171
108171
108175
108165
108160
108156
108151
108151
108150
108149
108143
108138
108133
108132
108132
108132
108130
108130
108133
108137
108140
108143
108139
108142
108493
108493
108493
108493
108493
108493
108493
108493
108493
108493
108492
108492
108492
108492
108492
108492
108492
108492
108492
108492
108492
108492
108492
108492
108492
108492
108492
108460
108434
108414
108393
108373
108358
108343
108324
108306
108292
108275
108260
108245
108232
108223
108211
108199
108188
108188
108182
108172
108161
108154
108148
108141
108138
108140
108137
108135
108132
108125
108118
108115
108113
108111
108108
108111
108108
108108
108105
108098
108091
108086
108086
108085
108083
108082
108088
108089
108086
108081
108083
108086
108493
108493
108493
108493
108493
108493
108493
108493
108492
108492
108492
108492
108492
108492
108492
108492
108492
108492
108492
108492
108492
108492
108492
108492
108492
108492
108473
108450
108423
108401
108380
108359
108339
108321
108302
108286
108269
108251
108237
108220
108208
108196
108183
108172
108165
108159
108145
108130
108119
108110
108105
108101
108096
108096
108094
108091
108087
108078
108072
108070
108066
108065
108063
108064
108066
108063
108056
108049
108042
108037
108040
108043
108041
108037
108036
108034
108031
108029
108035
108039
108493
108493
108493
108492
108492
108492
108492
108492
108492
108492
108492
108492
108492
108492
108492
108492
108492
108492
108492
108492
108492
108492
108492
108492
108492
108492
108459
108432
108407
108384
108362
108337
108317
108300
108283
108265
108245
108228
108213
108194
108180
108166
108157
108149
108143
108124
108103
108091
108082
108073
108068
108065
108062
108059
108052
108043
108041
108038
108034
108027
108021
108019
108018
108017
108019
108013
108004
107997
107985
107987
107991
107998
107998
107995
107988
107985
107983
107980
107983
107992
108492
108492
108492
108492
108492
108492
108492
108492
108492
108492
108492
108492
108492
108492
108492
108492
108492
108492
108492
108492
108492
108492
108492
108492
108492
108466
108435
108410
108388
108364
108341
108317
108299
108283
108264
108245
108225
108208
108190
108168
108152
108141
108130
108116
108101
108081
108067
108058
108047
108039
108035
108032
108030
108021
108009
108000
107998
107996
107989
107977
107972
107972
107970
107965
107960
107953
107947
107945
107941
107940
107938
107937
107936
107939
107936
107932
107930
107932
107937
107941
108492
108492
108492
108492
108492
108492
108492
108492
108492
108492
108492
108492
108492
108492
108492
108492
108492
108492
108492
108492
108492
108492
108492
108492
108471
108437
108405
108386
108367
108341
108320
108300
108282
108265
108244
108226
108203
108183
108160
108139
108122
108114
108099
108081
108061
108046
108036
108023
108009
108001
107996
107994
107983
107970
107962
107956
107947
107941
107931
107924
107919
107915
107910
107910
107904
107895
107895
107894
107896
107890
107885
107880
107878
107882
107886
107884
107883
107889
107895
107895
108492
108492
108492
108492
108492
108492
108492
108492
108492
108492
108492
108492
108492
108492
108492
108492
108492
108492
108492
108492
108492
108492
108492
108492
108451
108411
108381
108365
108349
108325
108304
108282
108261
108239
108221
108203
108176
108152
108132
108110
108094
108081
108064
108043
108024
108011
107999
107979
107970
107961
107951
107941
107930
107922
107916
107906
107889
107884
107880
107876
107865
107856
107853
107855
107850
107844
107840
107828
107819
107824
107825
107825
107826
107828
107833
107834
107834
107840
107845
107848
108492
108492
108492
108492
108492
108492
108492
108492
108492
108492
108492
108492
108492
108492
108492
108492
108492
108492
108492
108492
108492
108492
108492
108492
108439
108383
108364
108351
108333
108309
108280
108253
108234
108214
108195
108170
108145
108123
108104
108077
108061
108044
108025
108000
107982
107968
107953
107940
107929
107916
107906
107894
107882
107875
107867
107852
107839
107830
107825
107821
107809
107805
107805
107801
107796
107792
107780
107767
107762
107763
107764
107770
107775
107775
107772
107772
107773
107774
107784
107796
108492
108492
108492
108492
108492
108492
108492
108492
108492
108492
108492
108492
108492
108492
108492
108492
108492
108492
108492
108492
108492
108492
108492
108460
108417
108374
108353
108335
108312
108285
108255
108231
108208
108180
108155
108134
108112
108089
108062
108037
108020
108003
107980
107958
107942
107929
107916
107904
107888
107874
107867
107854
107843
107833
107816
107798
107789
107778
107770
107765
107761
107758
107754
107736
107731
107732
107724
107717
107716
107710
107707
107713
107720
107717
107714
107714
107715
107715
107722
107736
108492
108492
108492
108492
108492
108492
108492
108492
108492
108492
108492
108492
108492
108492
108492
108492
108492
108492
108492
108492
108492
108492
108461
108435
108396
108361
108338
108315
108290
108264
108238
108207
108176
108152
108130
108108
108083
108055
108022
107998
107980
107962
107942
107923
107906
107891
107879
107864
107849
107839
107830
107817
107806
107790
107765
107748
107737
107724
107715
107705
107705
107697
107683
107672
107666
107666
107664
107661
107662
107653
107651
107649
107644
107642
107646
107651
107656
107655
107659
107667
108492
108492
108492
108492
108492
108492
108492
108492
108492
108492
108492
108492
108492
108492
108492
108492
108492
108492
108492
108492
108492
108465
108443
108419
108379
108348
108322
108294
108267
108245
108219
108180
108153
108132
108106
108079
108049
108015
107986
107967
107950
107930
107909
107888
107871
107858
107842
107821
107807
107797
107783
107767
107747
107726
107706
107696
107682
107670
107656
107641
107629
107622
107621
107618
107613
107607
107604
107604
107601
107597
107597
107589
107581
107585
107589
107594
107598
107596
107594
107596
108492
108492
108492
108492
108492
108492
108492
108492
108492
108492
108492
108492
108492
108492
108492
108492
108492
108492
108492
108492
108481
108458
108429
108394
108360
108329
108302
108278
108254
108228
108190
108151
108128
108106
108077
108045
108009
107983
107960
107940
107918
107896
107874
107858
107843
107826
107803
107784
107768
107754
107738
107717
107693
107672
107657
107646
107634
107624
107609
107593
107581
107576
107570
107561
107558
107548
107545
107545
107541
107542
107539
107531
107526
107532
107534
107535
107539
107545
107545
107545
108492
108492
108492
108492
108492
108492
108492
108492
108492
108492
108492
108492
108492
108492
108492
108492
108492
108492
108492
108492
108473
108448
108412
108376
108340
108310
108284
108259
108230
108198
108162
108127
108102
108077
108045
108009
107980
107957
107930
107903
107880
107860
107841
107827
107807
107784
107765
107750
107731
107712
107690
107665
107644
107625
107607
107592
107580
107572
107557
107541
107534
107528
107508
107496
107492
107489
107489
107485
107479
107483
107480
107475
107474
107474
107473
107470
107475
107485
107494
107497
108492
108492
108492
108492
108492
108492
108492
108492
108492
108492
108492
108492
108492
108492
108492
108492
108492
108492
108492
108492
108467
108435
108397
108360
108323
108292
108265
108236
108203
108172
108140
108103
108075
108050
108019
107983
107954
107926
107897
107874
107856
107835
107815
107794
107765
107741
107720
107706
107676
107656
107634
107612
107596
107575
107560
107544
107532
107516
107498
107488
107479
107465
107452
107443
107432
107432
107435
107432
107426
107423
107420
107418
107423
107417
107414
107414
107414
107414
107425
107433
108492
108492
108492
108492
108492
108492
108492
108492
108492
108492
108492
108492
108492
108492
108492
108492
108492
108492
108492
108492
108460
108419
108379
108342
108309
108276
108245
108213
108177
108149
108115
108078
108052
108027
107994
107958
107923
107892
107869
107851
107833
107809
107783
107750
107715
107689
107670
107650
107624
107605
107586
107570
107552
107530
107520
107502
107488
107467
107452
107443
107429
107414
107407
107398
107388
107379
107376
107379
107379
107371
107367
107365
107370
107362
107355
107352
107349
107353
107358
107368
108492
108492
108492
108492
108492
108492
108492
108492
108492
108492
108492
108492
108492
108492
108492
108492
108492
108492
108493
108492
108452
108405
108361
108326
108296
108261
108226
108190
108159
108129
108090
108054
108026
107996
107961
107925
107886
107857
107838
107817
107792
107760
107726
107690
107664
107644
107623
107595
107573
107555
107538
107526
107503
107490
107475
107453
107435
107417
107403
107395
107381
107370
107361
107351
107340
107321
107306
107311
107319
107315
107314
107312
107311
107305
107296
107287
107286
107290
107288
107297
108492
108492
108492
108492
108492
108492
108492
108492
108492
108492
108492
108492
108492
108492
108492
108492
108492
108492
108493
108492
108441
108394
108351
108313
108275
108240
108210
108175
108136
108099
108061
108026
107994
107962
107926
107889
107854
107827
107802
107770
107743
107710
107676
107647
107624
107597
107568
107539
107521
107503
107486
107471
107455
107444
107413
107396
107380
107366
107353
107340
107324
107315
107301
107285
107276
107266
107257
107251
107251
107252
107250
107246
107245
107239
107234
107230
107227
107227
107220
107218
108492
108492
108492
108492
108492
108492
108492
108492
108492
108492
108492
108492
108492
108492
108492
108492
108492
108492
108493
108469
108433
108386
108338
108297
108256
108222
108193
108152
108107
108069
108034
107997
107965
107931
107895
107860
107824
107791
107756
107728
107700
107660
107632
107606
107577
107540
107511
107488
107468
107443
107422
107401
107384
107362
107336
107325
107310
107300
107292
107270
107253
107246
107235
107224
107220
107213
107207
107191
107181
107182
107174
107167
107162
107156
107158
107166
107167
107166
107158
107152
108492
108492
108492
108492
108492
108492
108492
108492
108492
108492
108492
108492
108492
108492
108492
108492
108492
108492
108492
108463
108426
108373
108327
108285
108241
108204
108171
108131
108083
108042
108011
107978
107941
107903
107868
107828
107784
107750
107718
107683
107643
107614
107591
107559
107518
107483
107460
107440
107415
107384
107356
107337
107319
107294
107265
107240
107213
107212
107207
107192
107183
107176
107163
107158
107155
107145
107132
107119
107107
107102
107094
107085
107075
107072
107066
107074
107085
107083
107083
107082
108492
108492
108492
108492
108492
108492
108492
108492
108492
108492
108492
108492
108492
108492
108492
108492
108492
108492
108492
108458
108418
108368
108319
108269
108222
108189
108156
108112
108063
108022
107989
107960
107927
107877
107831
107788
107747
107710
107671
107632
107598
107569
107539
107500
107459
107432
107413
107392
107362
107330
107309
107291
107269
107240
107211
107184
107167
107154
107129
107109
107107
107099
107087
107084
107081
107070
107057
107046
107039
107030
107020
107015
107008
107002
106994
106994
106998
107004
107010
107012
108492
108492
108492
108492
108492
108492
108492
108492
108492
108492
108492
108492
108492
108492
108492
108492
108492
108492
108492
108452
108405
108358
108311
108257
108210
108178
108142
108094
108048
108001
107962
107931
107890
107837
107786
107741
107700
107666
107630
107590
107551
107519
107487
107446
107410
107385
107363
107339
107306
107283
107266
107243
107213
107191
107162
107133
107118
107092
107067
107049
107041
107025
107010
106997
106983
106967
106974
106966
106955
106945
106933
106930
106926
106922
106920
106922
106926
106930
106937
106937
108492
108492
108492
108492
108492
108492
108492
108492
108492
108492
108492
108492
108492
108492
108492
108492
108492
108492
108492
108449
108397
108348
108300
108246
108202
108166
108121
108073
108025
107968
107929
107893
107846
107793
107738
107694
107659
107628
107590
107541
107503
107475
107442
107405
107374
107343
107316
107288
107261
107240
107220
107193
107165
107134
107086
107058
107046
107027
107004
106985
106960
106937
106923
106906
106886
106874
106879
106872
106863
106855
106846
106841
106833
106829
106835
106840
106843
106840
106838
106841
108492
108492
108492
108492
108492
108492
108492
108492
108492
108492
108492
108492
108492
108492
108492
108492
108492
108492
108492
108441
108388
108334
108281
108231
108190
108152
108104
108054
107999
107943
107897
107851
107807
107754
107693
107652
107617
107580
107532
107494
107463
107433
107401
107364
107327
107295
107270
107241
107214
107186
107168
107138
107103
107050
107014
106999
106983
106958
106929
106907
106881
106861
106845
106832
106817
106810
106802
106793
106792
106786
106777
106773
106760
106754
106759
106756
106750
106752
106752
106755
108492
108492
108492
108492
108492
108492
108492
108492
108492
108492
108492
108492
108492
108492
108492
108492
108492
108492
108492
108435
108375
108320
108269
108218
108176
108131
108077
108024
107968
107909
107857
107807
107761
107704
107647
107608
107572
107530
107489
107454
107419
107386
107350
107305
107269
107242
107214
107178
107144
107115
107081
107042
107009
106982
106959
106942
106911
106882
106854
106829
106807
106788
106772
106761
106745
106740
106725
106717
106713
106703
106694
106692
106682
106678
106676
106667
106664
106665
106669
106671
108492
108492
108492
108492
108492
108492
108492
108492
108492
108492
108492
108492
108492
108492
108492
108492
108492
108492
108492
108432
108362
108306
108253
108204
108162
108110
108046
107990
107930
107877
107827
107763
107702
107652
107611
107570
107530
107490
107448
107408
107366
107329
107283
107239
107207
107177
107143
107110
107080
107046
106994
106965
106938
106911
106876
106854
106824
106796
106771
106747
106731
106713
106698
106679
106659
106649
106637
106628
106607
106584
106576
106576
106577
106576
106566
106565
106565
106562
106567
106568
108448
108492
108492
108492
108492
108492
108492
108492
108492
108492
108492
108492
108492
108492
108492
108492
108492
108492
108492
108424
108352
108298
108243
108196
108149
108085
108023
107969
107907
107847
107783
107717
107667
107629
107586
107535
107494
107446
107392
107344
107300
107258
107214
107178
107142
107105
107070
107036
106995
106943
106909
106884
106849
106814
106788
106768
106741
106716
106695
106677
106660
106640
106618
106595
106576
106561
106545
106529
106507
106493
106484
106474
106468
106462
106455
106456
106453
106457
106460
106473
108434
108492
108492
108492
108492
108492
108492
108492
108492
108492
108492
108492
108492
108492
108492
108492
108492
108492
108492
108424
108353
108298
108244
108189
108134
108066
107998