/*--------------------------------*- C++ -*----------------------------------*\
  =========                 |
  \\      /  F ield         | OpenFOAM: The Open Source CFD Toolbox
   \\    /   O peration     | Website:  https://openfoam.org
    \\  /    A nd           | Version:  7
     \\/     M anipulation  |
\*---------------------------------------------------------------------------*/
FoamFile
{
    version     2.0;
    format      ascii;
    class       surfaceScalarField;
    location    "5";
    object      phi;
}
// * * * * * * * * * * * * * * * * * * * * * * * * * * * * * * * * * * * * * //

dimensions      [0 3 -1 0 0 0 0];

internalField   nonuniform List<scalar> 
99520
(
-6.76479e-09
2.82726e-10
1.3845e-08
-4.49506e-09
5.09324e-09
-2.38082e-09
5.24876e-09
-1.26754e-09
6.24971e-09
1.05403e-10
5.99006e-09
-2.30113e-09
9.76953e-09
-5.52229e-10
5.6141e-09
-2.89179e-10
7.09995e-09
6.09965e-10
6.46385e-09
4.5457e-10
7.51839e-09
3.04206e-10
7.51336e-09
1.46516e-09
6.20204e-09
2.70852e-09
6.11963e-09
4.89134e-09
5.18019e-09
7.32419e-09
4.93015e-09
1.42929e-08
3.94316e-10
1.05346e-08
1.11213e-08
5.69908e-09
1.21984e-08
2.17546e-09
1.08864e-08
5.05111e-10
9.03311e-09
-1.7042e-10
8.03833e-09
-5.06969e-10
7.69937e-09
-7.24327e-10
7.58031e-09
-8.99908e-10
7.53855e-09
-1.06215e-09
7.52544e-09
-1.2208e-09
7.52188e-09
-1.37743e-09
7.52008e-09
-1.53026e-09
7.51626e-09
-1.67566e-09
7.50884e-09
-1.80962e-09
7.49736e-09
-1.92849e-09
7.48203e-09
-2.02906e-09
7.46363e-09
-2.10882e-09
7.44263e-09
-2.16564e-09
7.41971e-09
-2.19817e-09
7.39532e-09
-2.20582e-09
7.37046e-09
-2.18924e-09
7.34614e-09
-2.15012e-09
7.32365e-09
-2.09127e-09
7.30392e-09
-2.01608e-09
7.28765e-09
-1.92832e-09
7.2751e-09
-1.83162e-09
7.26623e-09
-1.72937e-09
7.26071e-09
-1.62445e-09
7.25804e-09
-1.51927e-09
7.2577e-09
-1.41558e-09
7.25913e-09
-1.3148e-09
7.26189e-09
-1.21743e-09
7.26586e-09
-1.12503e-09
7.2705e-09
-1.03735e-09
7.27633e-09
-9.56372e-10
7.28137e-09
-8.79833e-10
7.28783e-09
-8.10489e-10
7.29271e-09
-7.45474e-10
7.29906e-09
-6.87408e-10
7.30343e-09
-6.3263e-10
7.30949e-09
-5.84036e-10
7.31353e-09
-5.38713e-10
7.31871e-09
-4.98684e-10
7.32208e-09
-4.61199e-10
7.32648e-09
-4.28169e-10
7.32907e-09
-3.96961e-10
7.33273e-09
-3.6957e-10
7.33459e-09
-3.43249e-10
7.33761e-09
-3.20077e-10
7.33886e-09
-2.97478e-10
7.3413e-09
-2.77549e-10
7.34201e-09
-2.57669e-10
7.34395e-09
-2.3993e-10
7.34425e-09
-2.21934e-10
7.34576e-09
-2.05703e-10
7.3457e-09
-1.88874e-10
7.34685e-09
-1.73336e-10
7.34652e-09
-1.57017e-10
7.34731e-09
-1.41626e-10
7.34676e-09
-1.25308e-10
7.34718e-09
-1.09436e-10
7.34649e-09
-9.25768e-11
7.34651e-09
-7.56441e-11
7.34568e-09
7.34518e-09
-5.76271e-11
-3.93337e-09
-1.34224e-09
5.55864e-09
-2.90445e-09
4.06441e-09
-2.48708e-09
4.83137e-09
-2.19784e-09
5.96048e-09
-2.1828e-09
5.97502e-09
-1.18899e-09
8.77573e-09
-1.68322e-11
4.44194e-09
2.24061e-10
6.85906e-09
-5.85523e-10
7.27344e-09
3.70569e-10
6.56229e-09
1.43054e-09
6.45338e-09
1.98256e-09
5.65001e-09
3.06102e-09
5.04118e-09
4.42244e-09
3.81877e-09
4.69628e-09
4.65631e-09
5.09333e-09
-2.66129e-12
8.92482e-09
7.28989e-09
6.3529e-09
1.47702e-08
2.87522e-09
1.43639e-08
5.25693e-10
1.13824e-08
-8.39577e-10
9.40335e-09
-1.68302e-09
8.54265e-09
-2.30188e-09
8.19905e-09
-2.8344e-09
8.07117e-09
-3.33808e-09
8.02927e-09
-3.83261e-09
8.01682e-09
-4.31944e-09
8.00733e-09
-4.79037e-09
7.98772e-09
-5.23318e-09
7.9521e-09
-5.635e-09
7.8994e-09
-5.98442e-09
7.83173e-09
-6.27269e-09
7.75179e-09
-6.49291e-09
7.66284e-09
-6.64057e-09
7.56713e-09
-6.71303e-09
7.46764e-09
-6.71074e-09
7.3678e-09
-6.63715e-09
7.27225e-09
-6.49912e-09
7.18529e-09
-6.30579e-09
7.11031e-09
-6.06779e-09
7.04949e-09
-5.79615e-09
7.00327e-09
-5.50123e-09
6.97131e-09
-5.19249e-09
6.95183e-09
-4.87767e-09
6.94326e-09
-4.56333e-09
6.94313e-09
-4.2543e-09
6.9499e-09
-3.95422e-09
6.96165e-09
-3.66561e-09
6.97783e-09
-3.39041e-09
6.99665e-09
-3.13188e-09
7.0169e-09
-2.88841e-09
7.03939e-09
-2.66331e-09
7.06093e-09
-2.45327e-09
7.08467e-09
-2.26182e-09
7.10586e-09
-2.08417e-09
7.12786e-09
-1.92337e-09
7.14738e-09
-1.77503e-09
7.16702e-09
-1.64153e-09
7.18396e-09
-1.51851e-09
7.20065e-09
-1.40807e-09
7.21459e-09
-1.30575e-09
7.22835e-09
-1.21396e-09
7.23939e-09
-1.12822e-09
7.25038e-09
-1.051e-09
7.25882e-09
-9.77955e-10
7.26737e-09
-9.11808e-10
7.27353e-09
-8.48316e-10
7.27995e-09
-7.90198e-10
7.28421e-09
-7.33407e-10
7.28885e-09
-6.80779e-10
7.29152e-09
-6.28466e-10
7.29462e-09
-5.7913e-10
7.29597e-09
-5.29198e-10
7.29775e-09
-4.81214e-10
7.29795e-09
-4.31961e-10
7.29848e-09
-3.83568e-10
7.29765e-09
-3.33349e-10
7.29696e-09
-2.82825e-10
7.29517e-09
-2.30034e-10
7.29312e-09
7.29025e-09
-1.75658e-10
-1.77422e-09
-2.02613e-09
2.45723e-09
-7.64136e-11
2.36663e-09
-3.39102e-09
8.14601e-09
-2.11116e-09
4.6806e-09
-2.25223e-09
6.11611e-09
-1.72358e-10
6.69586e-09
-1.97536e-10
4.46712e-09
2.89539e-10
6.37199e-09
-1.03579e-09
8.59877e-09
-1.77354e-11
5.54424e-09
1.16069e-09
5.27495e-09
2.01819e-09
4.79252e-09
3.06597e-09
3.9934e-09
3.89772e-09
2.98702e-09
1.61606e-10
8.39241e-09
1.08041e-10
5.09401e-11
1.36322e-09
6.03472e-09
1.74744e-09
1.43859e-08
5.6851e-10
1.55426e-08
-9.29408e-10
1.288e-08
-2.23168e-09
1.07054e-08
-3.28962e-09
9.6004e-09
-4.21631e-09
9.12572e-09
-5.0949e-09
8.94983e-09
-5.96281e-09
8.89751e-09
-6.82783e-09
8.88221e-09
-7.67863e-09
8.85871e-09
-8.4931e-09
8.80259e-09
-9.24534e-09
8.70455e-09
-9.91127e-09
8.56566e-09
-1.04726e-08
8.3931e-09
-1.09164e-08
8.19571e-09
-1.12352e-08
7.98154e-09
-1.14251e-08
7.757e-09
-1.14861e-08
7.52853e-09
-1.14226e-08
7.30407e-09
-1.12441e-08
7.09356e-09
-1.09647e-08
6.90568e-09
-1.06016e-08
6.74722e-09
-1.01734e-08
6.62101e-09
-9.6976e-09
6.52777e-09
-9.19126e-09
6.46479e-09
-8.66792e-09
6.42886e-09
-8.13991e-09
6.41498e-09
-7.61582e-09
6.41912e-09
-7.10335e-09
6.43684e-09
-6.60618e-09
6.46591e-09
-6.12966e-09
6.50161e-09
-5.67611e-09
6.54397e-09
-5.2481e-09
6.58941e-09
-4.84811e-09
6.6378e-09
-4.47344e-09
6.68844e-09
-4.12854e-09
6.7379e-09
-3.80949e-09
6.78705e-09
-3.51672e-09
6.83476e-09
-3.24811e-09
6.87966e-09
-3.00324e-09
6.92198e-09
-2.7794e-09
6.96086e-09
-2.5759e-09
6.99673e-09
-2.38973e-09
7.02908e-09
-2.2203e-09
7.05844e-09
-2.06472e-09
7.08439e-09
-1.92255e-09
7.10764e-09
-1.79098e-09
7.12781e-09
-1.66981e-09
7.14563e-09
-1.55651e-09
7.1607e-09
-1.45104e-09
7.17384e-09
-1.35103e-09
7.18461e-09
-1.25662e-09
7.19381e-09
-1.16573e-09
7.20093e-09
-1.07856e-09
7.2068e-09
-9.93177e-10
7.21084e-09
-9.09831e-10
7.21383e-09
-8.26798e-10
7.2151e-09
-7.44248e-10
7.21544e-09
-6.60683e-10
7.21412e-09
-5.76052e-10
7.21192e-09
-4.89284e-10
7.20811e-09
-3.99902e-10
7.20329e-09
7.19722e-09
-3.0672e-10
-1.8829e-10
-1.91807e-09
8.02341e-11
-7.17571e-10
2.8958e-09
-1.55305e-09
8.98155e-09
-5.42462e-11
3.18178e-09
-6.50149e-12
6.0683e-09
1.81529e-11
6.67118e-09
-1.17111e-11
4.49695e-09
-7.7371e-11
6.43761e-09
-2.95072e-09
1.14721e-08
-1.88069e-10
2.78158e-09
1.05192e-10
4.98168e-09
7.46505e-10
4.1512e-09
2.3107e-09
2.4292e-09
2.03024e-09
3.26748e-09
9.77617e-10
9.44489e-09
-1.6125e-09
2.6411e-09
-2.43042e-09
6.85248e-09
-2.09412e-09
1.40494e-08
-2.29337e-09
1.57415e-08
-3.12479e-09
1.37111e-08
-4.21266e-09
1.17929e-08
-5.36817e-09
1.07557e-08
-6.56366e-09
1.03211e-08
-7.79916e-09
1.01855e-08
-9.06723e-09
1.01658e-08
-1.03445e-08
1.01602e-08
-1.15933e-08
1.01078e-08
-1.27668e-08
9.97648e-09
-1.38201e-08
9.75769e-09
-1.47176e-08
9.46327e-09
-1.54373e-08
9.11261e-09
-1.59684e-08
8.72713e-09
-1.63097e-08
8.32269e-09
-1.64642e-08
7.91172e-09
-1.64391e-08
7.50321e-09
-1.62454e-08
7.1106e-09
-1.59015e-08
6.74944e-09
-1.54303e-08
6.43472e-09
-1.48581e-08
6.17501e-09
-1.42108e-08
5.97396e-09
-1.35127e-08
5.82985e-09
-1.27849e-08
5.7372e-09
-1.20447e-08
5.68882e-09
-1.1306e-08
5.67621e-09
-1.05791e-08
5.69226e-09
-9.87072e-09
5.72969e-09
-9.18829e-09
5.78267e-09
-8.53315e-09
5.8488e-09
-7.91237e-09
5.92189e-09
-7.3254e-09
6.00367e-09
-6.77563e-09
6.08822e-09
-6.26285e-09
6.17561e-09
-5.78846e-09
6.26242e-09
-5.34941e-09
6.34882e-09
-4.94663e-09
6.43111e-09
-4.57602e-09
6.51027e-09
-4.2381e-09
6.5833e-09
-3.9281e-09
6.65201e-09
-3.64616e-09
6.71394e-09
-3.38727e-09
6.7713e-09
-3.15165e-09
6.82188e-09
-2.93437e-09
6.86819e-09
-2.73586e-09
6.90813e-09
-2.55135e-09
6.94435e-09
-2.38159e-09
6.97481e-09
-2.22205e-09
7.00216e-09
-2.07374e-09
7.02441e-09
-1.93237e-09
7.04419e-09
-1.79922e-09
7.0595e-09
-1.6703e-09
7.07289e-09
-1.54701e-09
7.08235e-09
-1.4256e-09
7.09026e-09
-1.3075e-09
7.09464e-09
-1.18925e-09
7.09758e-09
-1.07211e-09
7.0973e-09
-9.52959e-10
7.0955e-09
-8.32743e-10
7.09078e-09
-7.09032e-10
7.0843e-09
-5.81736e-10
7.07537e-09
7.06457e-09
-4.4915e-10
-9.73251e-10
-1.10357e-09
1.58608e-10
-1.82404e-10
2.10463e-09
2.29335e-09
6.50575e-09
1.98372e-09
3.4913e-09
1.56215e-09
6.4897e-09
1.07265e-09
7.16048e-09
7.63775e-10
4.80561e-09
-3.14797e-10
7.51594e-09
-1.13473e-09
1.22917e-08
-6.03876e-11
1.70713e-09
1.0189e-11
4.91097e-09
2.15093e-11
4.13975e-09
5.29568e-10
1.92103e-09
-2.66535e-10
4.06337e-09
-2.77369e-10
9.45566e-09
-2.7924e-09
5.15569e-09
-4.67843e-09
8.73829e-09
-4.87055e-09
1.4241e-08
-4.88442e-09
1.57549e-08
-5.4756e-09
1.43018e-08
-6.53128e-09
1.28482e-08
-7.87059e-09
1.20947e-08
-9.39568e-09
1.18461e-08
-1.10471e-08
1.18368e-08
-1.27702e-08
1.18894e-08
-1.45014e-08
1.18915e-08
-1.61646e-08
1.17716e-08
-1.76821e-08
1.14934e-08
-1.89863e-08
1.10621e-08
-2.00365e-08
1.05127e-08
-2.08156e-08
9.89219e-09
-2.13283e-08
9.23932e-09
-2.15876e-08
8.58257e-09
-2.16126e-08
7.93639e-09
-2.14191e-08
7.31018e-09
-2.10263e-08
6.71774e-09
-2.04595e-08
6.183e-09
-1.97521e-08
5.72745e-09
-1.89387e-08
5.36175e-09
-1.80521e-08
5.08779e-09
-1.71222e-08
4.89983e-09
-1.61722e-08
4.78772e-09
-1.52218e-08
4.73799e-09
-1.42835e-08
4.73911e-09
-1.33684e-08
4.7771e-09
-1.24825e-08
4.84416e-09
-1.16302e-08
4.93137e-09
-1.08171e-08
5.03427e-09
-1.00426e-08
5.15018e-09
-9.31387e-09
5.27374e-09
-8.62906e-09
5.40398e-09
-7.9912e-09
5.53721e-09
-7.39863e-09
5.67044e-09
-6.85179e-09
5.80127e-09
-6.34725e-09
5.92732e-09
-5.88454e-09
6.04701e-09
-5.4595e-09
6.1591e-09
-5.07106e-09
6.26301e-09
-4.71459e-09
6.3583e-09
-4.38891e-09
6.44501e-09
-4.08934e-09
6.52313e-09
-3.81488e-09
6.59306e-09
-3.56103e-09
6.65504e-09
-3.32704e-09
6.70966e-09
-3.10869e-09
6.75719e-09
-2.90556e-09
6.79829e-09
-2.71373e-09
6.83323e-09
-2.53306e-09
6.86276e-09
-2.35998e-09
6.88702e-09
-2.19462e-09
6.90677e-09
-2.03373e-09
6.92198e-09
-1.87754e-09
6.93334e-09
-1.72308e-09
6.94061e-09
-1.57054e-09
6.94441e-09
-1.41725e-09
6.94424e-09
-1.26309e-09
6.94081e-09
-1.10595e-09
6.93348e-09
-9.45215e-10
6.92299e-09
-7.79119e-10
6.90882e-09
6.89168e-09
-6.0653e-10
-1.53497e-09
-1.11868e-10
5.43181e-10
-1.07686e-09
1.64645e-09
1.12458e-09
4.3041e-09
1.02428e-09
3.59144e-09
1.35497e-09
6.15889e-09
1.55594e-09
6.95931e-09
1.03167e-09
5.32971e-09
7.63116e-10
7.78424e-09
1.72706e-09
1.13274e-08
2.33416e-10
3.20038e-09
-8.11817e-10
5.95581e-09
-1.69876e-09
5.02633e-09
-2.50736e-09
2.72933e-09
-3.03735e-09
4.59312e-09
-1.83789e-09
8.25577e-09
-4.25936e-09
7.5769e-09
-6.41731e-09
1.08957e-08
-7.00012e-09
1.48233e-08
-7.17087e-09
1.59251e-08
-7.86265e-09
1.4993e-08
-9.12274e-09
1.41078e-08
-1.07998e-08
1.37714e-08
-1.27639e-08
1.381e-08
-1.49116e-08
1.39847e-08
-1.71417e-08
1.41196e-08
-1.93427e-08
1.4093e-08
-2.13977e-08
1.38265e-08
-2.31943e-08
1.32902e-08
-2.46487e-08
1.25159e-08
-2.57234e-08
1.15875e-08
-2.64269e-08
1.05953e-08
-2.6791e-08
9.60376e-09
-2.68574e-08
8.64876e-09
-2.66633e-08
7.74259e-09
-2.62351e-08
6.88198e-09
-2.55913e-08
6.07418e-09
-2.47607e-08
5.35261e-09
-2.37865e-08
4.75331e-09
-2.27128e-08
4.28838e-09
-2.1579e-08
3.95386e-09
-2.04182e-08
3.73923e-09
-1.92563e-08
3.6256e-09
-1.81101e-08
3.59309e-09
-1.69942e-08
3.62207e-09
-1.59132e-08
3.69807e-09
-1.48744e-08
3.80396e-09
-1.38775e-08
3.93586e-09
-1.29262e-08
4.08366e-09
-1.20227e-08
4.24716e-09
-1.11706e-08
4.42085e-09
-1.03696e-08
4.6042e-09
-9.62326e-09
4.78989e-09
-8.92897e-09
4.97719e-09
-8.28779e-09
5.15907e-09
-7.69517e-09
5.33581e-09
-7.15094e-09
5.50184e-09
-6.64972e-09
5.65904e-09
-6.19077e-09
5.80312e-09
-5.76831e-09
5.93701e-09
-5.38146e-09
6.05719e-09
-5.02444e-09
6.16727e-09
-4.69657e-09
6.26417e-09
-4.39224e-09
6.35188e-09
-4.11111e-09
6.42745e-09
-3.8478e-09
6.49504e-09
-3.60235e-09
6.55169e-09
-3.36965e-09
6.60169e-09
-3.15011e-09
6.64202e-09
-2.939e-09
6.67703e-09
-2.73707e-09
6.7036e-09
-2.53991e-09
6.72591e-09
-2.34847e-09
6.74066e-09
-2.15858e-09
6.75176e-09
-1.97121e-09
6.75576e-09
-1.78232e-09
6.7563e-09
-1.5927e-09
6.75004e-09
-1.39876e-09
6.74004e-09
-1.20076e-09
6.7239e-09
-9.95633e-10
6.70357e-09
6.67835e-09
-7.82606e-10
-1.42487e-09
7.34162e-10
5.78694e-10
-1.34366e-09
1.56515e-09
-2.38066e-10
3.19829e-09
-2.05865e-10
3.55909e-09
4.15116e-10
5.53774e-09
9.92928e-10
6.38136e-09
3.44103e-10
5.97836e-09
4.09834e-10
7.7183e-09
1.99188e-09
9.74516e-09
-7.61029e-12
5.19964e-09
-6.20378e-10
6.56833e-09
-1.09711e-09
5.50281e-09
-2.46181e-09
4.09377e-09
-3.48688e-09
5.61796e-09
-3.64584e-09
8.41453e-09
-5.89721e-09
9.82793e-09
-7.93542e-09
1.29336e-08
-8.79882e-09
1.56863e-08
-9.32512e-09
1.6451e-08
-1.03667e-08
1.60343e-08
-1.20357e-08
1.57765e-08
-1.41993e-08
1.59348e-08
-1.67053e-08
1.63159e-08
-1.94089e-08
1.66883e-08
-2.21586e-08
1.68694e-08
-2.47961e-08
1.67307e-08
-2.71681e-08
1.61987e-08
-2.91369e-08
1.52587e-08
-3.06036e-08
1.39825e-08
-3.15486e-08
1.25323e-08
-3.20257e-08
1.10724e-08
-3.21147e-08
9.6926e-09
-3.18911e-08
8.4252e-09
-3.14151e-08
7.26657e-09
-3.0717e-08
6.184e-09
-2.97999e-08
5.15705e-09
-2.8682e-08
4.23476e-09
-2.74225e-08
3.49375e-09
-2.60806e-08
2.94642e-09
-2.46993e-08
2.57219e-09
-2.33167e-08
2.35682e-09
-2.19591e-08
2.2687e-09
-2.06425e-08
2.27538e-09
-1.93735e-08
2.35515e-09
-1.81599e-08
2.48152e-09
-1.69944e-08
2.64308e-09
-1.58833e-08
2.82242e-09
-1.48203e-08
3.02305e-09
-1.38124e-08
3.23756e-09
-1.28577e-08
3.46849e-09
-1.19633e-08
3.7078e-09
-1.1126e-08
3.95482e-09
-1.03502e-08
4.19933e-09
-9.62968e-09
4.44071e-09
-8.96637e-09
4.67044e-09
-8.3526e-09
4.89031e-09
-7.78962e-09
5.09399e-09
-7.26922e-09
5.28499e-09
-6.79246e-09
5.45814e-09
-6.35091e-09
5.61795e-09
-5.94578e-09
5.75999e-09
-5.56876e-09
5.88948e-09
-5.22143e-09
6.00232e-09
-4.89564e-09
6.10403e-09
-4.59338e-09
6.1905e-09
-4.3067e-09
6.2674e-09
-4.03798e-09
6.33062e-09
-3.77959e-09
6.38601e-09
-3.53435e-09
6.42943e-09
-3.29506e-09
6.46665e-09
-3.06487e-09
6.49333e-09
-2.8369e-09
6.51496e-09
-2.61439e-09
6.52689e-09
-2.39067e-09
6.53419e-09
-2.16866e-09
6.53218e-09
-1.94226e-09
6.52521e-09
-1.71333e-09
6.50959e-09
-1.47736e-09
6.48809e-09
-1.23397e-09
6.45945e-09
6.42489e-09
-9.80384e-10
-1.10448e-09
1.40282e-09
4.35809e-10
-1.17426e-09
1.63485e-09
-6.71414e-10
2.69529e-09
-6.51872e-10
3.53942e-09
-1.81661e-10
5.0674e-09
1.74196e-10
6.02538e-09
-2.55562e-10
6.408e-09
-1.69083e-10
7.63167e-09
7.52526e-10
8.82336e-09
-5.0113e-10
6.45316e-09
-6.50347e-10
6.71734e-09
-1.07854e-09
5.93087e-09
-2.53818e-09
5.55329e-09
-4.05136e-09
7.13101e-09
-5.3482e-09
9.71118e-09
-7.52155e-09
1.20012e-08
-9.37261e-09
1.47845e-08
-1.04716e-08
1.67852e-08
-1.14893e-08
1.74686e-08
-1.30766e-08
1.76215e-08
-1.53201e-08
1.80198e-08
-1.8082e-08
1.86968e-08
-2.11855e-08
1.94192e-08
-2.44454e-08
1.99484e-08
-2.7668e-08
2.00919e-08
-3.06605e-08
1.97233e-08
-3.32506e-08
1.87886e-08
-3.52832e-08
1.72914e-08
-3.66311e-08
1.53301e-08
-3.72886e-08
1.31897e-08
-3.73903e-08
1.11736e-08
-3.70918e-08
9.39418e-09
-3.65079e-08
7.8409e-09
-3.57188e-08
6.47751e-09
-3.47547e-08
5.2196e-09
-3.35781e-08
3.98046e-09
-3.21637e-08
2.81997e-09
-3.06017e-08
1.9317e-09
-2.89839e-08
1.32808e-09
-2.73532e-08
9.41613e-10
-2.57583e-08
7.62277e-10
-2.42284e-08
7.37995e-10
-2.2766e-08
8.14884e-10
-2.13798e-08
9.65572e-10
-2.00606e-08
1.16775e-09
-1.88094e-08
1.3883e-09
-1.76105e-08
1.62656e-09
-1.6467e-08
1.87773e-09
-1.53757e-08
2.14881e-09
-1.4345e-08
2.43569e-09
-1.33743e-08
2.73963e-09
-1.24708e-08
3.04905e-09
-1.16292e-08
3.36021e-09
-1.08523e-08
3.66147e-09
-1.01316e-08
3.95222e-09
-9.46839e-09
4.22482e-09
-8.85388e-09
4.48194e-09
-8.28918e-09
4.71796e-09
-7.76536e-09
4.93683e-09
-7.28358e-09
5.13382e-09
-6.83492e-09
5.31388e-09
-6.42092e-09
5.47305e-09
-6.03289e-09
5.61689e-09
-5.67281e-09
5.74148e-09
-5.33211e-09
5.85245e-09
-5.01311e-09
5.94585e-09
-4.70739e-09
6.02759e-09
-4.41777e-09
6.09381e-09
-4.13624e-09
6.1506e-09
-3.86622e-09
6.19398e-09
-3.60005e-09
6.22985e-09
-3.34149e-09
6.25376e-09
-3.08305e-09
6.27112e-09
-2.82839e-09
6.27708e-09
-2.57034e-09
6.27628e-09
-2.3114e-09
6.2645e-09
-2.0461e-09
6.24475e-09
-1.77437e-09
6.2153e-09
-1.49272e-09
6.17764e-09
6.13171e-09
-1.19978e-09
-8.14375e-10
2.0039e-09
2.13195e-10
-1.01346e-09
1.83387e-09
-8.51515e-10
2.53323e-09
-7.92689e-10
3.48048e-09
-5.34178e-10
4.80878e-09
-3.73814e-10
5.86491e-09
-5.93639e-10
6.62774e-09
-6.16284e-10
7.65417e-09
-1.69433e-10
8.37642e-09
-8.11812e-10
7.09539e-09
-1.07291e-09
6.97835e-09
-1.77188e-09
6.6298e-09
-3.2682e-09
7.04948e-09
-5.0427e-09
8.90544e-09
-6.86563e-09
1.15341e-08
-8.98873e-09
1.41242e-08
-1.07702e-08
1.65659e-08
-1.21803e-08
1.81952e-08
-1.37968e-08
1.90851e-08
-1.60558e-08
1.98803e-08
-1.89674e-08
2.09314e-08
-2.2366e-08
2.20952e-08
-2.60477e-08
2.31011e-08
-2.98035e-08
2.3704e-08
-3.34216e-08
2.37102e-08
-3.66895e-08
2.29907e-08
-3.94136e-08
2.15128e-08
-4.14318e-08
1.93087e-08
-4.25671e-08
1.64655e-08
-4.27838e-08
1.34053e-08
-4.2345e-08
1.07351e-08
-4.15556e-08
8.60388e-09
-4.05656e-08
6.85124e-09
-3.94659e-08
5.37704e-09
-3.82865e-08
4.04044e-09
-3.69355e-08
2.62885e-09
-3.52422e-08
1.1267e-09
-3.3316e-08
5.2402e-12
-3.13909e-08
-5.97084e-10
-2.95077e-08
-9.41293e-10
-2.7708e-08
-1.03804e-09
-2.60293e-08
-9.39027e-10
-2.44551e-08
-7.62336e-10
-2.29764e-08
-5.0824e-10
-2.15983e-08
-2.13802e-10
-2.02915e-08
8.42642e-11
-1.90421e-08
3.75746e-10
-1.78397e-08
6.77761e-10
-1.66918e-08
9.99057e-10
-1.56003e-08
1.34649e-09
-1.45777e-08
1.71507e-09
-1.36233e-08
2.09683e-09
-1.27411e-08
2.47609e-09
-1.1923e-08
2.84552e-09
-1.11685e-08
3.19574e-09
-1.04684e-08
3.52684e-09
-9.82287e-09
3.83437e-09
-9.22325e-09
4.12054e-09
-8.67013e-09
4.38162e-09
-8.15466e-09
4.62059e-09
-7.67763e-09
4.83472e-09
-7.23051e-09
5.02823e-09
-6.81477e-09
5.19897e-09
-6.42213e-09
5.3512e-09
-6.05432e-09
5.48242e-09
-5.70296e-09
5.59691e-09
-5.37008e-09
5.69243e-09
-5.04761e-09
5.77379e-09
-4.73831e-09
5.83899e-09
-4.43466e-09
5.89283e-09
-4.14007e-09
5.93293e-09
-3.84732e-09
5.96353e-09
-3.55995e-09
5.98157e-09
-3.27096e-09
5.99028e-09
-2.98277e-09
5.98646e-09
-2.68968e-09
5.97198e-09
-2.39145e-09
5.94533e-09
-2.08423e-09
5.90774e-09
-1.76618e-09
5.85924e-09
5.80051e-09
-1.43481e-09
-5.53214e-10
2.60834e-09
-5.12685e-11
-8.73032e-10
2.15367e-09
-9.2805e-10
2.58819e-09
-9.31821e-10
3.48417e-09
-8.12736e-10
4.68961e-09
-7.53704e-10
5.8058e-09
-8.75223e-10
6.74915e-09
-8.81721e-10
7.66061e-09
-6.81123e-10
8.17571e-09
-1.13951e-09
7.55373e-09
-1.6306e-09
7.46951e-09
-2.60926e-09
7.60832e-09
-4.22804e-09
8.66838e-09
-6.17611e-09
1.08533e-08
-8.22975e-09
1.35877e-08
-1.03253e-08
1.62196e-08
-1.21946e-08
1.84351e-08
-1.40431e-08
2.00435e-08
-1.6338e-08
2.13799e-08
-1.9317e-08
2.28594e-08
-2.29015e-08
2.45157e-08
-2.6891e-08
2.60848e-08
-3.10636e-08
2.72732e-08
-3.52053e-08
2.78458e-08
-3.91142e-08
2.76182e-08
-4.25702e-08
2.64467e-08
-4.53548e-08
2.42961e-08
-4.73383e-08
2.12923e-08
-4.83102e-08
1.74357e-08
-4.78683e-08
1.2964e-08
-4.65229e-08
9.38836e-09
-4.50392e-08
7.12115e-09
-4.35856e-08
5.39639e-09
-4.22191e-08
4.01134e-09
-4.09626e-08
2.78317e-09
-3.97136e-08
1.38029e-09
-3.79152e-08
-6.71837e-10
-3.53766e-08
-2.53335e-09
-3.32031e-08
-2.77054e-09
-3.11387e-08
-3.0056e-09
-2.91218e-08
-3.05424e-09
-2.73328e-08
-2.72951e-09
-2.56845e-08
-2.40767e-09
-2.41584e-08
-2.03636e-09
-2.27584e-08
-1.61246e-09
-2.14434e-08
-1.23091e-09
-2.01714e-08
-8.95152e-10
-1.89357e-08
-5.58348e-10
-1.7744e-08
-1.91711e-10
-1.66095e-08
2.11367e-10
-1.55462e-08
6.5269e-10
-1.45632e-08
1.11307e-09
-1.36568e-08
1.57063e-09
-1.28222e-08
2.01012e-09
-1.20494e-08
2.42385e-09
-1.13341e-08
2.81074e-09
-1.06697e-08
3.1708e-09
-1.0054e-08
3.504e-09
-9.48089e-09
3.80945e-09
-8.94806e-09
4.08694e-09
-8.44928e-09
4.33688e-09
-7.98287e-09
4.56095e-09
-7.54358e-09
4.76065e-09
-7.13038e-09
4.93716e-09
-6.73786e-09
5.0909e-09
-6.36464e-09
5.22282e-09
-6.00522e-09
5.33403e-09
-5.65877e-09
5.42649e-09
-5.32063e-09
5.50189e-09
-4.9909e-09
5.56226e-09
-4.66567e-09
5.60877e-09
-4.3455e-09
5.64265e-09
-4.02683e-09
5.66386e-09
-3.70957e-09
5.67256e-09
-3.39038e-09
5.66734e-09
-3.0673e-09
5.64811e-09
-2.73698e-09
5.61431e-09
-2.39683e-09
5.56693e-09
-2.04408e-09
5.50646e-09
5.43298e-09
-1.67662e-09
-2.84687e-10
3.23659e-09
-3.43686e-10
-6.98843e-10
2.5678e-09
-9.01373e-10
2.79065e-09
-9.97005e-10
3.57971e-09
-9.97981e-10
4.69048e-09
-1.01714e-09
5.82489e-09
-1.11053e-09
6.8425e-09
-1.14188e-09
7.69186e-09
-1.11805e-09
8.15186e-09
-1.55151e-09
7.98716e-09
-2.23468e-09
8.15267e-09
-3.44741e-09
8.82109e-09
-5.21612e-09
1.0437e-08
-7.29533e-09
1.29325e-08
-9.46192e-09
1.57542e-08
-1.16056e-08
1.83632e-08
-1.37227e-08
2.05521e-08
-1.61165e-08
2.24373e-08
-1.91087e-08
2.43719e-08
-2.27593e-08
2.65098e-08
-2.69073e-08
2.86636e-08
-3.13292e-08
3.05063e-08
-3.58099e-08
3.17538e-08
-4.01707e-08
3.22058e-08
-4.42646e-08
3.17118e-08
-4.79069e-08
3.00879e-08
-5.07421e-08
2.7131e-08
-5.24087e-08
2.29578e-08
-5.28467e-08
1.78741e-08
-5.0695e-08
1.08114e-08
-4.73793e-08
6.07408e-09
-4.48201e-08
4.56092e-09
-4.27974e-08
3.37488e-09
-4.12898e-08
2.50289e-09
-4.0215e-08
1.70909e-09
-3.97149e-08
8.80022e-10
-3.85141e-08
-1.8724e-09
-3.57644e-08
-5.28309e-09
-3.36946e-08
-4.83974e-09
-3.18131e-08
-4.88767e-09
-2.96151e-08
-5.25163e-09
-2.78994e-08
-4.44491e-09
-2.63631e-08
-3.94331e-09
-2.48639e-08
-3.53607e-09
-2.35224e-08
-2.95251e-09
-2.22696e-08
-2.48462e-09
-2.10167e-08
-2.14661e-09
-1.97611e-08
-1.81491e-09
-1.85347e-08
-1.41684e-09
-1.73591e-08
-9.65305e-10
-1.62651e-08
-4.40093e-10
-1.52682e-08
1.15064e-10
-1.43604e-08
6.63906e-10
-1.353e-08
1.17871e-09
-1.27607e-08
1.65563e-09
-1.20464e-08
2.09532e-09
-1.13802e-08
2.50567e-09
-1.07613e-08
2.88402e-09
-1.01832e-08
3.23247e-09
-9.64385e-09
3.54646e-09
-9.13581e-09
3.82992e-09
-8.65803e-09
4.08208e-09
-8.20533e-09
4.30908e-09
-7.77784e-09
4.50855e-09
-7.36955e-09
4.68379e-09
-6.97934e-09
4.83148e-09
-6.60064e-09
4.95658e-09
-6.23316e-09
5.05785e-09
-5.87158e-09
5.14161e-09
-5.51707e-09
5.2066e-09
-5.16536e-09
5.25847e-09
-4.81843e-09
5.29462e-09
-4.47221e-09
5.31907e-09
-4.12821e-09
5.32739e-09
-3.78155e-09
5.3212e-09
-3.43097e-09
5.29611e-09
-3.07147e-09
5.25422e-09
-2.7008e-09
5.19577e-09
-2.31647e-09
5.12186e-09
5.03236e-09
-1.91572e-09
8.85953e-12
3.89539e-09
-6.67681e-10
-4.80803e-10
3.05746e-09
-7.87202e-10
3.09703e-09
-9.7049e-10
3.76295e-09
-1.07196e-09
4.79187e-09
-1.16288e-09
5.91573e-09
-1.27449e-09
6.954e-09
-1.36824e-09
7.78556e-09
-1.50356e-09
8.28692e-09
-2.00513e-09
8.48882e-09
-2.87905e-09
9.0264e-09
-4.28997e-09
1.02323e-08
-6.18997e-09
1.23368e-08
-8.35863e-09
1.51013e-08
-1.06079e-08
1.80033e-08
-1.29024e-08
2.06577e-08
-1.5397e-08
2.30466e-08
-1.83808e-08
2.54209e-08
-2.20127e-08
2.80038e-08
-2.62157e-08
3.07126e-08
-3.07885e-08
3.32362e-08
-3.55257e-08
3.52433e-08
-4.02396e-08
3.64674e-08
-4.47141e-08
3.66798e-08
-4.86395e-08
3.56369e-08
-5.15717e-08
3.30194e-08
-5.28213e-08
2.83807e-08
-5.12725e-08
2.14093e-08
-4.86904e-08
1.52927e-08
-4.47339e-08
6.85602e-09
-3.88857e-08
2.2598e-10
-3.4548e-08
2.23667e-10
-3.14625e-08
2.89324e-10
-2.93352e-08
3.75881e-10
-2.807e-08
4.43919e-10
-2.7569e-08
3.79191e-10
-2.95484e-08
1.07078e-10
-2.93047e-08
-5.52658e-09
-2.87546e-08
-5.39088e-09
-2.8754e-08
-4.88643e-09
-2.75168e-08
-6.48987e-09
-2.67351e-08
-5.22445e-09
-2.59311e-08
-4.74867e-09
-2.46781e-08
-4.78684e-09
-2.36433e-08
-3.98918e-09
-2.26847e-08
-3.44075e-09
-2.15874e-08
-3.24613e-09
-2.03208e-08
-3.07918e-09
-1.90595e-08
-2.68037e-09
-1.78309e-08
-2.19168e-09
-1.67102e-08
-1.563e-09
-1.57154e-08
-8.7752e-10
-1.48347e-08
-2.19078e-10
-1.40344e-08
3.80495e-10
-1.32933e-08
9.12334e-10
-1.25953e-08
1.39942e-09
-1.19439e-08
1.85205e-09
-1.13334e-08
2.27566e-09
-1.07656e-08
2.66238e-09
-1.023e-08
3.01303e-09
-9.7255e-09
3.32313e-09
-9.24323e-09
3.60203e-09
-8.78718e-09
3.85072e-09
-8.35106e-09
4.07475e-09
-7.93684e-09
4.26721e-09
-7.53449e-09
4.43154e-09
-7.14473e-09
4.56442e-09
-6.75866e-09
4.67428e-09
-6.37958e-09
4.7601e-09
-6.00069e-09
4.83028e-09
-5.6271e-09
4.88251e-09
-5.25313e-09
4.9232e-09
-4.88405e-09
4.94777e-09
-4.5142e-09
4.95946e-09
-4.1456e-09
4.95049e-09
-3.77018e-09
4.9209e-09
-3.38537e-09
4.86806e-09
-2.98755e-09
4.79742e-09
-2.57527e-09
4.70929e-09
4.60294e-09
-2.14598e-09
3.2462e-10
4.58934e-09
-1.01858e-09
-2.25946e-10
3.60803e-09
-6.12799e-10
3.48386e-09
-8.74214e-10
4.02432e-09
-1.0561e-09
4.9737e-09
-1.21118e-09
6.07075e-09
-1.3691e-09
7.11186e-09
-1.54606e-09
7.96236e-09
-1.83551e-09
8.57636e-09
-2.46636e-09
9.11938e-09
-3.53026e-09
1.00905e-08
-5.11106e-09
1.18128e-08
-7.11623e-09
1.43421e-08
-9.35664e-09
1.73414e-08
-1.17166e-08
2.03635e-08
-1.42621e-08
2.32028e-08
-1.72077e-08
2.59923e-08
-2.07559e-08
2.89691e-08
-2.49167e-08
3.21646e-08
-2.95205e-08
3.53165e-08
-3.43183e-08
3.80341e-08
-3.89961e-08
3.99209e-08
-4.30773e-08
4.05484e-08
-4.57925e-08
3.93951e-08
-4.604e-08
3.5884e-08
-4.26208e-08
2.96014e-08
-3.50181e-08
2.07788e-08
-2.18687e-08
8.26052e-09
-6.92999e-09
3.54775e-10
-1.26392e-10
5.27439e-11
-3.39388e-11
1.33614e-10
-2.65146e-11
2.16273e-10
-2.99382e-11
2.92777e-10
-2.85506e-11
3.74519e-10
-1.49067e-11
4.30254e-10
4.86404e-11
3.15686e-10
-9.39955e-11
2.49754e-10
-5.79703e-09
1.76072e-10
-1.19248e-08
7.37991e-10
-1.72096e-08
3.97867e-10
-1.96827e-08
-4.01495e-09
-2.12934e-08
-3.61426e-09
-2.24436e-08
-3.59631e-09
-2.21967e-08
-5.03519e-09
-2.21565e-08
-4.02673e-09
-2.21525e-08
-3.44681e-09
-2.16856e-08
-3.71018e-09
-2.04828e-08
-4.28441e-09
-1.92534e-08
-3.90735e-09
-1.79736e-08
-3.47386e-09
-1.682e-08
-2.71452e-09
-1.58627e-08
-1.83717e-09
-1.50486e-08
-1.03103e-09
-1.43249e-08
-3.45613e-10
-1.36375e-08
2.2713e-10
-1.29773e-08
7.36749e-10
-1.23492e-08
1.22615e-09
-1.17638e-08
1.68788e-09
-1.12153e-08
2.11613e-09
-1.07012e-08
2.49647e-09
-1.02068e-08
2.83111e-09
-9.73243e-09
3.12513e-09
-9.27512e-09
3.39586e-09
-8.84257e-09
3.63966e-09
-8.4261e-09
3.85328e-09
-8.02441e-09
4.02727e-09
-7.62517e-09
4.16782e-09
-7.23014e-09
4.27663e-09
-6.83186e-09
4.36452e-09
-6.43571e-09
4.4315e-09
-6.03682e-09
4.48627e-09
-5.64208e-09
4.52591e-09
-5.2475e-09
4.55559e-09
-4.85931e-09
4.56885e-09
-4.47068e-09
4.5632e-09
-4.0781e-09
4.52614e-09
-3.67074e-09
4.46064e-09
-3.24974e-09
4.37521e-09
-2.81418e-09
4.27334e-09
4.15201e-09
-2.36333e-09
6.7189e-10
5.31466e-09
-1.39729e-09
6.49947e-11
4.21492e-09
-3.91532e-10
3.94035e-09
-7.23047e-10
4.35578e-09
-9.73716e-10
5.22431e-09
-1.19083e-09
6.28779e-09
-1.4125e-09
7.33345e-09
-1.68716e-09
8.2369e-09
-2.12662e-09
9.01567e-09
-2.91315e-09
9.90588e-09
-4.15297e-09
1.13302e-08
-5.87409e-09
1.35339e-08
-7.96758e-09
1.64356e-08
-1.02922e-08
1.9666e-08
-1.28206e-08
2.28919e-08
-1.56906e-08
2.60731e-08
-1.91015e-08
2.94031e-08
-2.3137e-08
3.30046e-08
-2.76772e-08
3.6705e-08
-3.24346e-08
4.0074e-08
-3.69537e-08
4.25533e-08
-4.0512e-08
4.34794e-08
-4.20364e-08
4.2073e-08
-4.02119e-08
3.75707e-08
-3.38852e-08
2.95582e-08
-2.25873e-08
1.83044e-08
-8.27084e-09
6.46285e-09
-6.00503e-11
5.00416e-11
1.13851e-10
1.80792e-10
3.37462e-11
1.32847e-10
-8.22784e-12
1.75606e-10
1.81843e-11
1.89858e-10
5.17588e-12
3.05793e-10
2.93207e-11
3.50338e-10
5.40134e-11
4.05598e-10
4.6224e-11
3.23436e-10
-6.63617e-11
3.6238e-10
-2.30349e-10
3.40028e-10
1.57434e-11
4.91799e-10
-4.98749e-11
4.63596e-10
-4.3377e-09
2.72791e-10
-8.95046e-09
9.998e-10
-1.30191e-08
4.72376e-10
-1.51605e-08
-2.89143e-09
-1.69655e-08
-2.22274e-09
-1.87858e-08
-1.6233e-09
-1.98739e-08
-2.62366e-09
-1.93469e-08
-4.8088e-09
-1.87913e-08
-4.46516e-09
-1.75662e-08
-4.69688e-09
-1.64174e-08
-3.86575e-09
-1.55762e-08
-2.67629e-09
-1.49337e-08
-1.67601e-09
-1.43674e-08
-9.09659e-10
-1.37867e-08
-3.56107e-10
-1.31758e-08
1.28053e-10
-1.25839e-08
6.31755e-10
-1.20307e-08
1.13689e-09
-1.15229e-08
1.60576e-09
-1.10427e-08
2.01864e-09
-1.05769e-08
2.3628e-09
-1.01112e-08
2.66182e-09
-9.66153e-09
2.94361e-09
-9.23446e-09
3.21513e-09
-8.83139e-09
3.44761e-09
-8.43514e-09
3.63369e-09
-8.03938e-09
3.76939e-09
-7.63435e-09
3.87433e-09
-7.22507e-09
3.95254e-09
-6.80689e-09
4.01601e-09
-6.3884e-09
4.0651e-09
-5.9674e-09
4.10739e-09
-5.55316e-09
4.13873e-09
-5.1453e-09
4.16302e-09
-4.74817e-09
4.16353e-09
-4.34397e-09
4.12297e-09
-3.91906e-09
4.03368e-09
-3.47642e-09
3.93242e-09
-3.02239e-09
3.81841e-09
3.69091e-09
-2.56132e-09
1.04898e-09
6.06859e-09
-1.80296e-09
3.90337e-10
4.87353e-09
-1.29014e-10
4.45965e-09
-5.25006e-10
4.7517e-09
-8.39604e-10
5.53883e-09
-1.12105e-09
6.56914e-09
-1.41837e-09
7.63066e-09
-1.8001e-09
8.61852e-09
-2.38516e-09
9.6006e-09
-3.32819e-09
1.08488e-08
-4.72079e-09
1.27227e-08
-6.55657e-09
1.53697e-08
-8.73462e-09
1.86137e-08
-1.11756e-08
2.2107e-08
-1.39302e-08
2.56465e-08
-1.71633e-08
2.93063e-08
-2.10077e-08
3.32477e-08
-2.54156e-08
3.74127e-08
-3.01078e-08
4.13972e-08
-3.45534e-08
4.45199e-08
-3.78988e-08
4.58988e-08
-3.89481e-08
4.45291e-08
-3.64108e-08
3.95358e-08
-2.94625e-08
3.06229e-08
-1.846e-08
1.85562e-08
-6.36487e-09
6.20984e-09
8.52749e-11
1.27532e-11
8.69351e-11
4.83885e-11
1.45561e-10
1.22209e-10
1.14187e-10
1.64207e-10
6.0978e-11
2.2886e-10
6.61788e-11
1.84642e-10
7.10891e-11
3.00898e-10
-9.02122e-12
4.30454e-10
3.8241e-11
3.58312e-10
4.04339e-11
3.21303e-10
-4.06495e-11
4.43393e-10
-1.31075e-10
4.30531e-10
-3.99673e-11
4.00708e-10
-1.45129e-10
5.68774e-10
-3.38791e-10
4.66465e-10
6.11633e-12
6.54943e-10
-2.7028e-11
5.05738e-10
-3.28748e-09
3.68891e-10
-6.71697e-09
1.20863e-09
-9.38655e-09
1.0464e-09
-1.26187e-08
6.09972e-10
-1.43649e-08
-3.06424e-09
-1.62034e-08
-2.62465e-09
-1.56889e-08
-5.21306e-09
-1.49512e-08
-4.60148e-09
-1.4508e-08
-3.12155e-09
-1.42796e-08
-1.90246e-09
-1.40639e-08
-1.12759e-09
-1.36868e-08
-7.31246e-10