/*--------------------------------*- C++ -*----------------------------------*\
  =========                 |
  \\      /  F ield         | OpenFOAM: The Open Source CFD Toolbox
   \\    /   O peration     | Website:  https://openfoam.org
    \\  /    A nd           | Version:  7
     \\/     M anipulation  |
\*---------------------------------------------------------------------------*/
FoamFile
{
    version     2.0;
    format      ascii;
    class       volVectorField;
    location    "5";
    object      U;
}
// * * * * * * * * * * * * * * * * * * * * * * * * * * * * * * * * * * * * * //

dimensions      [0 1 -1 0 0 0 0];

internalField   nonuniform List<vector> 
49920
(
(-0.00645977 0.000412867 -1.0265e-29)
(-0.0133604 0.00493481 7.44739e-30)
(-0.00523057 0.00462906 4.35024e-29)
(-0.00348203 0.00615727 -6.11413e-29)
(-0.000737484 0.00601076 -4.36995e-29)
(-0.001895 0.00883211 -6.69088e-29)
(-0.00166674 0.00617344 -4.23433e-29)
(-0.000108268 0.00391044 0)
(0.000924531 0.00481906 -6.0923e-29)
(0.00272794 0.00739657 -1.72523e-29)
(0.00218736 0.00655831 1.6657e-28)
(0.00284674 0.00482921 0)
(0.00588144 0.00436643 2.77743e-28)
(0.00673199 0.00218257 9.0022e-36)
(0.0143009 0.000203404 0)
(0.00788577 -0.00196942 -2.04576e-28)
(0.0467622 0.00102552 -2.43014e-28)
(0.0234177 0.0109728 1.9435e-29)
(0.0110405 0.0139833 0)
(0.0079796 0.0138046 6.58886e-30)
(0.00612899 0.0138813 -1.58754e-30)
(0.00545118 0.0140074 -3.56663e-30)
(0.00524088 0.0140725 0)
(0.00516243 0.0141223 1.23182e-29)
(0.005134 0.0141704 -4.72466e-32)
(0.00512396 0.0142218 1.47529e-35)
(0.00512235 0.0142776 1.85819e-29)
(0.00512929 0.0143356 0)
(0.00514949 0.0143919 0)
(0.00518931 0.0144412 0)
(0.00525484 0.0144779 0)
(0.0053512 0.0144969 0)
(0.00548209 0.0144931 0)
(0.00565004 0.0144618 2.91488e-29)
(0.00585632 0.0143987 3.05031e-29)
(0.00610083 0.0143005 -4.68875e-31)
(0.00638179 0.0141652 -3.03262e-29)
(0.0066957 0.0139925 -2.94063e-29)
(0.00703746 0.0137839 -6.30667e-31)
(0.00740081 0.0135423 -9.30419e-38)
(0.00777905 0.0132718 -8.96242e-38)
(0.0081655 0.0129767 7.13825e-31)
(0.00855422 0.0126616 2.42554e-29)
(0.0089399 0.0123308 2.36386e-29)
(0.00931842 0.0119882 7.06907e-31)
(0.00968652 0.0116369 -2.16121e-29)
(0.0100419 0.0112798 -1.89234e-29)
(0.0103835 0.010919 0)
(0.0107099 0.0105561 0)
(0.0110213 0.0101936 0)
(0.011315 0.00983189 0)
(0.0115941 0.0094734 0)
(0.0118554 0.00911668 0)
(0.0121031 0.00876484 -1.20329e-29)
(0.0123338 0.00841559 -1.08343e-32)
(0.0125529 0.00807133 -9.68514e-31)
(0.0127566 0.00772918 9.95904e-30)
(0.0129493 0.00739181 0)
(0.0131283 0.00705696 4.42229e-30)
(0.0132974 0.00672604 8.38166e-30)
(0.0134541 0.00639707 3.98162e-30)
(0.0136023 0.00607117 0)
(0.0137391 0.00574668 0)
(0.0138684 0.00542447 -3.46446e-30)
(0.0139873 0.00510293 -3.32771e-30)
(0.0140993 0.00478296 0)
(0.0142016 0.00446327 -1.86327e-37)
(0.0142976 0.00414452 3.92176e-31)
(0.0143844 0.00382551 0)
(0.0144653 0.0035069 1.94197e-31)
(0.0145373 0.00318782 -1.44141e-30)
(0.0146036 0.00286868 -1.39517e-30)
(0.0146615 0.00254867 0)
(0.0147135 0.00222817 -1.30565e-30)
(0.0147574 0.00190665 -1.26185e-30)
(0.0147952 0.00158435 5.54375e-31)
(0.0148253 0.00126077 4.7588e-31)
(0.014849 0.000936106 -1.95916e-31)
(0.0148652 0.000609913 -1.43284e-31)
(0.0148745 0.000282276 1.09844e-31)
(-0.00340525 0.000363571 0)
(-0.00763853 0.0103009 0)
(-0.00420734 0.0114419 7.11769e-29)
(-0.00380162 0.0115852 -2.92675e-29)
(-0.00247639 0.0118539 -1.65608e-28)
(-0.00226981 0.0230049 -3.36085e-28)
(0.000656983 0.0104682 -1.47029e-28)
(0.00301663 0.0185876 5.58373e-30)
(0.00196974 0.0139757 0)
(0.00226657 0.0134938 -1.59101e-28)
(0.00504678 0.0143234 3.19307e-28)
(0.00586059 0.0109323 -2.9792e-28)
(0.00715774 0.00908649 5.23524e-28)
(0.00926577 0.00812412 3.47221e-28)
(0.0127005 0.00723018 -2.56458e-28)
(0.00434282 -0.000886373 0)
(0.0268283 0.0117485 0)
(0.0246778 0.0202902 2.28851e-29)
(0.0158612 0.0210489 -1.11889e-29)
(0.010142 0.017701 -7.20255e-30)
(0.006106 0.0160064 -2.89872e-30)
(0.00407753 0.015619 0)
(0.00297847 0.0157019 0)
(0.0022243 0.0159839 0)
(0.00161196 0.0163577 -1.15699e-30)
(0.00105764 0.0167823 1.65047e-29)
(0.0005344 0.0172355 1.84702e-29)
(4.35419e-05 0.017698 -8.65407e-31)
(-0.000400103 0.018151 7.14781e-31)
(-0.000777033 0.0185764 5.30665e-31)
(-0.00106842 0.0189579 0)
(-0.00125951 0.0192816 2.70636e-29)
(-0.0013401 0.019535 2.82032e-29)
(-0.00130442 0.019707 0)
(-0.00115031 0.0197883 3.1235e-29)
(-0.000879291 0.0197735 3.10185e-29)
(-0.000496993 0.0196615 2.98952e-29)
(-1.35899e-05 0.0194566 2.80072e-29)
(0.000556418 0.0191665 1.51766e-37)
(0.001196 0.0188021 -4.81702e-38)
(0.00188652 0.0183751 -4.64375e-38)
(0.00261007 0.017898 1.36087e-37)
(0.00334974 0.0173816 -2.25037e-29)
(0.00409147 0.0168366 -2.34533e-29)
(0.00482313 0.0162714 -2.42678e-29)
(0.00553594 0.0156936 -2.50875e-29)
(0.006223 0.0151091 0)
(0.00688091 0.0145235 -1.82157e-29)
(0.00750574 0.01394 -1.69729e-29)
(0.00809508 0.0133636 0)
(0.00864826 0.0127972 1.70481e-30)
(0.00916448 0.0122422 1.63515e-30)
(0.00964597 0.0117017 -1.5357e-30)
(0.0100917 0.011175 -1.20603e-29)
(0.0105043 0.010664 1.13512e-29)
(0.0108858 0.0101674 1.35274e-30)
(0.0112375 0.00968598 0)
(0.0115615 0.00921833 0)
(0.0118598 0.00876438 0)
(0.0121341 0.00832257 -5.6668e-31)
(0.0123866 0.0078922 -5.48562e-31)
(0.0126188 0.00747174 3.81529e-30)
(0.0128325 0.00706048 4.16995e-30)
(0.013029 0.00665691 0)
(0.0132096 0.00626019 0)
(0.0133755 0.00586909 -3.22563e-30)
(0.0135275 0.0054829 -2.19127e-30)
(0.0136668 0.00510047 9.05903e-31)
(0.0137938 0.00472105 -4.47598e-31)
(0.0139095 0.00434378 -2.36326e-30)
(0.0140139 0.00396806 -3.15902e-30)
(0.0141079 0.00359307 0)
(0.0141914 0.00321817 1.26914e-30)
(0.0142651 0.00284269 2.23578e-30)
(0.0143285 0.00246617 9.64574e-31)
(0.0143826 0.00208786 5.62971e-31)
(0.0144264 0.0017074 5.37887e-31)
(0.0144608 0.00132395 1.15559e-31)
(0.0144845 0.000937234 0)
(0.0144986 0.000546304 0)
(-0.00525042 -0.00474668 -1.24749e-31)
(6.69498e-06 0.00360167 -8.27327e-32)
(-0.00229753 0.00470376 5.81464e-29)
(-0.00561341 0.0116802 0)
(-0.00292997 0.0115385 -7.09807e-29)
(-0.000994702 0.0131046 1.63135e-28)
(0.0007376 0.00787141 4.43054e-30)
(0.00167371 0.0113208 -1.35164e-30)
(0.00228232 0.0180646 -1.16622e-29)
(0.00137265 0.0123328 -6.26436e-28)
(0.00330159 0.0107434 -2.29342e-29)
(0.00549901 0.0103024 -7.11894e-28)
(0.00775044 0.00875005 2.48156e-28)
(0.00755806 0.00537753 3.05228e-29)
(0.00552185 0.00313883 -1.14406e-28)
(9.22338e-05 -5.35126e-05 0)
(0.00474909 0.0129318 0)
(0.0147543 0.0259736 2.05915e-36)
(0.0127462 0.0271876 2.08767e-29)
(0.00846201 0.0223809 2.30545e-29)
(0.0046093 0.0193007 1.27607e-29)
(0.00218385 0.0182259 -6.27878e-30)
(0.000522379 0.018195 -4.67899e-30)
(-0.000795843 0.0186574 -3.87738e-30)
(-0.00196396 0.0193538 -3.48222e-30)
(-0.00306845 0.0201668 0)
(-0.00413138 0.0210283 0)
(-0.00513908 0.0218868 -2.88151e-30)
(-0.00605968 0.0227004 9.37887e-37)
(-0.0068562 0.0234354 2.55425e-29)
(-0.00749644 0.0240681 2.65577e-29)
(-0.00795737 0.0245799 -1.10322e-30)
(-0.0082261 0.024958 0)
(-0.00829791 0.0251906 8.51956e-32)
(-0.00817389 0.0252711 6.82111e-31)
(-0.00785959 0.0251982 -2.14912e-37)
(-0.00736594 0.0249799 -2.90301e-29)
(-0.00671046 0.0246302 -3.34971e-29)
(-0.00591655 0.0241683 -2.53001e-29)
(-0.00501147 0.0236136 -2.41826e-29)
(-0.00402406 0.022986 2.28572e-29)
(-0.00298237 0.0223025 2.16262e-29)
(-0.00191209 0.0215789 2.75571e-29)
(-0.000835242 0.020827 2.26951e-29)
(0.000229851 0.0200577 -1.58057e-37)
(0.00126941 0.0192792 -3.51611e-30)
(0.00227406 0.0184987 -3.3541e-30)
(0.00323559 0.0177205 0)
(0.0041497 0.0169521 -3.00031e-30)
(0.00501133 0.0161959 -1.23537e-29)
(0.00582037 0.0154588 -1.16409e-29)
(0.00657572 0.0147417 5.78154e-37)
(0.0072783 0.0140467 1.48237e-29)
(0.0079268 0.013376 0)
(0.00852707 0.0127295 0)
(0.00907783 0.0121059 -1.95913e-30)
(0.00958477 0.0115063 -1.7897e-30)
(0.0100479 0.0109285 -1.70939e-30)
(0.0104729 0.0103723 -1.56732e-30)
(0.0108603 0.00983504 -8.20387e-30)
(0.0112157 0.00931617 -1.24249e-29)
(0.0115391 0.00881294 -3.73487e-30)
(0.0118358 0.00832461 2.30497e-37)
(0.0121055 0.00784851 0)
(0.0123531 0.00738384 0)
(0.0125775 0.00692818 -5.54423e-31)
(0.0127835 0.00648084 -2.52663e-30)
(0.0129696 0.00603959 -4.86381e-30)
(0.0131399 0.00560376 -6.675e-30)
(0.0132926 0.00517149 -2.76371e-30)
(0.0134315 0.00474217 3.98977e-31)
(0.0135544 0.00431415 1.29581e-30)
(0.0136648 0.00388675 -1.2494e-30)
(0.0137602 0.00345861 -1.21226e-30)
(0.0138436 0.00302899 2.30304e-31)
(0.0139126 0.00259671 0)
(0.0139696 0.00216092 0)
(0.0140124 0.00172072 1.23825e-31)
(0.0140424 0.00127511 1.17073e-31)
(0.0140584 0.000822809 9.41669e-32)
(-0.000409887 -0.00370974 4.37193e-31)
(0.000302032 0.00934 3.12621e-31)
(-0.00303424 0.0276304 2.43389e-29)
(0.000255566 0.00487129 -3.03046e-29)
(0.000555889 0.00690822 0)
(0.000631275 0.00567676 -1.86534e-38)
(0.000560532 0.00432204 0)
(0.000799226 0.00586196 0)
(-0.00162687 0.00715616 0)
(-0.00152296 0.00820039 -2.75547e-28)
(0.00155445 0.00779732 -4.02485e-28)
(0.00245101 0.00706689 -1.88014e-28)
(0.00453242 0.00483205 2.93057e-28)
(0.00242276 0.00185953 1.5073e-29)
(0.0143912 0.0244071 -1.0098e-28)
(-0.0010658 0.00143742 2.99059e-29)
(-0.001626 0.0126002 0)
(0.00625545 0.0269832 2.05358e-29)
(0.00723886 0.0297349 -1.78807e-29)
(0.00491822 0.0256446 -4.50347e-29)
(0.00201847 0.0225091 -1.50429e-29)
(-0.000327792 0.0213281 -8.07818e-30)
(-0.00229061 0.0214161 5.21868e-30)
(-0.00406005 0.0221725 6.52627e-30)
(-0.0057541 0.0232642 8.27573e-30)
(-0.00741794 0.0245108 3.68093e-29)
(-0.00904287 0.025792 -1.06493e-31)
(-0.0105856 0.0270152 -1.91903e-29)
(-0.0119859 0.0281112 -7.35258e-37)
(-0.0131838 0.0290366 -1.88862e-29)
(-0.0141343 0.0297681 6.48104e-30)
(-0.0148113 0.0302965 2.34723e-29)
(-0.0152073 0.0306186 1.37385e-30)
(-0.0153264 0.030734 -4.60318e-31)
(-0.0151794 0.0306446 -2.83114e-29)
(-0.0147789 0.0303609 -5.85284e-29)
(-0.0141417 0.0299041 -2.86168e-29)
(-0.0132927 0.0293035 -3.11807e-29)
(-0.0122638 0.0285896 -5.16597e-29)
(-0.011092 0.0277912 -2.68088e-29)
(-0.00981459 0.0269332 2.56649e-29)
(-0.00846889 0.0260346 4.42382e-29)
(-0.00708704 0.0251109 2.33107e-29)
(-0.00569793 0.0241729 2.19306e-29)
(-0.00432324 0.0232296 4.1407e-29)
(-0.00298062 0.022286 1.94524e-29)
(-0.00168254 0.021348 -4.46522e-30)
(-0.00043792 0.0204206 4.22977e-30)
(0.000746221 0.0195069 -1.97966e-29)
(0.00186682 0.0186156 7.46455e-30)
(0.00292026 0.0177467 1.73501e-29)
(0.00390671 0.0169061 6.59605e-30)
(0.00482324 0.016094 1.20199e-29)
(0.00567396 0.0153133 5.64616e-32)
(0.00645877 0.014562 -1.85442e-29)
(0.0071814 0.0138412 -1.2435e-29)
(0.0078436 0.0131486 -1.16312e-29)
(0.00845038 0.0124845 -1.09606e-29)
(0.00900404 0.0118458 -1.9489e-30)
(0.00951012 0.011232 7.94213e-30)
(0.00997071 0.0106398 1.51586e-29)
(0.0103912 0.0100683 3.64222e-30)
(0.0107732 0.00951433 -4.20528e-30)
(0.0111218 0.00897678 0)
(0.011438 0.00845264 3.19396e-30)
(0.0117262 0.00794081 -1.19756e-30)
(0.011987 0.0074386 -2.40243e-30)
(0.0122242 0.00694492 1.09847e-30)
(0.0124379 0.00645737 -5.34407e-31)
(0.0126312 0.00597497 1.67884e-30)
(0.0128039 0.00549568 2.12374e-30)
(0.0129584 0.00501849 0)
(0.0130942 0.00454159 0)
(0.013213 0.00406397 0)
(0.0133142 0.00358397 2.41326e-31)
(0.0133988 0.00310056 0)
(0.0134663 0.00261216 -5.27397e-31)
(0.0135168 0.00211794 -2.51272e-31)
(0.0135502 0.00161608 2.33915e-31)
(0.0135663 0.00110539 -1.7004e-32)
(-0.00147359 -0.00310337 1.48815e-31)
(-0.00124121 0.00430985 2.86776e-31)
(0.00179511 0.0165932 0)
(0.00616526 0.0115885 -4.44435e-31)
(0.00508383 0.0212588 0)
(0.00476772 0.0229141 1.08749e-37)
(0.00383016 0.0158172 -6.1865e-30)
(0.00460592 0.0225595 0)
(0.00295474 0.0368427 -1.25293e-28)
(0.000391482 0.00227916 -5.99494e-29)
(0.00124553 0.00629404 -1.39776e-31)
(0.00108071 0.00455287 -1.17356e-28)
(0.000530828 0.00201192 5.28367e-29)
(0.00334316 0.0110816 1.81104e-29)
(0.00609369 0.018428 0)
(-0.00025157 0.00734587 8.66948e-30)
(-0.00325402 0.0159722 -6.99301e-30)
(0.000727819 0.0275206 2.53417e-29)
(0.00236101 0.030564 5.55629e-29)
(0.00119258 0.027756 1.90971e-29)
(-0.00101544 0.0254045 -9.3939e-30)
(-0.00326553 0.0247336 -9.08524e-30)
(-0.00546694 0.0252973 8.62479e-30)
(-0.00766308 0.0265556 0)
(-0.00988917 0.028162 0)
(-0.0121316 0.0298917 8.22467e-30)
(-0.0143341 0.0315722 -8.20527e-30)
(-0.0164106 0.0330689 7.98422e-30)
(-0.0182626 0.034293 -6.02013e-30)
(-0.0198047 0.0352086 -1.61445e-29)
(-0.0209833 0.0358167 -1.91774e-29)
(-0.0217814 0.0361379 3.95898e-30)
(-0.0222082 0.0361953 5.0849e-30)
(-0.022289 0.0360092 -2.62314e-29)
(-0.0220498 0.0355932 2.48672e-31)
(-0.0215122 0.0349684 8.72128e-31)
(-0.0206955 0.0341694 0)
(-0.0196289 0.0332425 -3.12583e-29)
(-0.0183522 0.0322285 4.00406e-30)
(-0.0169106 0.0311633 3.13957e-29)
(-0.0153503 0.0300719 -3.0708e-29)
(-0.0137154 0.0289731 -5.87961e-30)
(-0.0120442 0.0278764 2.87327e-29)
(-0.0103688 0.0267894 0)
(-0.00871478 0.0257127 -1.17084e-29)
(-0.00710091 0.0246507 5.61943e-30)
(-0.005541 0.023602 2.28659e-29)
(-0.00404318 0.0225719 1.03448e-29)
(-0.0026148 0.0215626 4.78142e-30)
(-0.00125867 0.0205778 -1.87446e-29)
(1.92419e-05 0.0196232 8.86023e-30)
(0.00121942 0.0187001 2.04352e-29)
(0.00233889 0.0178104 3.77366e-30)
(0.00337997 0.0169555 -3.45713e-30)
(0.00434205 0.0161341 3.21514e-30)
(0.00522965 0.015346 0)
(0.0060439 0.0145894 0)
(0.00679085 0.0138634 2.47287e-30)
(0.00747268 0.0131656 -2.30375e-30)
(0.00809598 0.0124946 -2.09702e-30)
(0.00866303 0.0118475 -7.29309e-30)
(0.00918033 0.0112227 -1.21951e-29)
(0.00964979 0.0106175 -6.72327e-30)
(0.0100775 0.01003 7.73955e-31)
(0.0104647 0.00945743 0)
(0.010817 0.00889825 -6.79514e-31)
(0.0111349 0.00834971 3.54665e-30)
(0.0114234 0.00781033 3.42439e-30)
(0.0116824 0.00727768 -5.9138e-31)
(0.0119162 0.00675043 2.63884e-30)
(0.012124 0.00622642 2.57432e-30)
(0.0123096 0.00570436 0)
(0.0124715 0.00518232 0)
(0.0126128 0.00465895 -2.59889e-31)
(0.0127317 0.00413248 0)
(0.0128305 0.00360139 0)
(0.0129074 0.00306416 0)
(0.0129639 0.00251918 0)
(0.0129987 0.00196487 -2.31568e-31)
(0.0130124 0.00139937 -2.18415e-31)
(-0.00229361 -0.00112107 -3.39099e-31)
(-0.00316916 0.00289578 9.34699e-31)
(0.000679625 0.00797045 4.06006e-31)
(0.0029284 0.00489818 4.1333e-31)
(0.00283119 0.0103165 3.67244e-30)
(0.00395962 0.0117755 -2.2429e-29)
(0.00335285 0.007422 -7.53349e-32)
(0.00372415 0.0130625 -1.254e-29)
(0.00542574 0.023379 3.12927e-29)
(0.00411194 0.00620588 1.79096e-29)
(0.00227739 0.0175535 2.47096e-29)
(0.00136792 0.0150093 -2.58783e-29)
(-0.0023444 0.00793514 -4.9918e-30)
(-0.00323981 0.00891484 -2.30929e-29)
(0.000828652 0.0149375 -5.58916e-30)
(-0.00101582 0.0124612 -2.56737e-30)
(-0.00419768 0.0203238 3.41834e-30)
(-0.00258945 0.0288899 2.04034e-32)
(-0.00138443 0.0313115 -1.41471e-29)
(-0.00220662 0.029631 0)
(-0.00414267 0.0284092 -9.81755e-30)
(-0.00644725 0.0286429 -2.25503e-29)
(-0.00895129 0.0299745 -1.19552e-30)
(-0.0116145 0.031922 1.20964e-29)
(-0.014399 0.0341327 1.26671e-29)
(-0.0172301 0.0363367 0)
(-0.0199998 0.0383138 3.93217e-30)
(-0.0225736 0.0398955 3.00873e-29)
(-0.0248112 0.0409952 1.13786e-29)
(-0.0266006 0.0416171 0)
(-0.0278904 0.0418254 8.12363e-30)
(-0.028687 0.0416944 -2.62665e-29)
(-0.0290338 0.0412894 -2.2794e-29)
(-0.0289875 0.0406513 2.85491e-30)
(-0.0285974 0.0397995 3.12131e-30)
(-0.0278888 0.0387502 -2.15715e-31)
(-0.026874 0.0375488 -3.02607e-29)
(-0.0255779 0.036258 -3.41677e-29)
(-0.0240489 0.0349314 0)
(-0.0223413 0.033605 -5.15632e-38)
(-0.0205096 0.0323045 -4.89562e-38)
(-0.0186043 0.0310407 0)
(-0.0166693 0.029816 3.56389e-29)
(-0.0147393 0.028628 2.76448e-29)
(-0.0128414 0.0274733 -6.60053e-30)
(-0.0109946 0.0263431 1.2912e-29)
(-0.00920966 0.0252389 6.09776e-30)
(-0.00749531 0.0241545 2.15029e-29)
(-0.00585442 0.0230966 -2.01356e-29)
(-0.00429466 0.0220658 5.27873e-30)
(-0.00281604 0.0210688 4.91767e-30)
(-0.00142461 0.0201047 4.64139e-30)
(-0.000120359 0.0191779 -6.70349e-30)
(0.00109385 0.0182854 -1.43574e-29)
(0.0022212 0.0174291 0)
(0.00326133 0.0166048 -9.07767e-30)
(0.00422004 0.0158137 -8.62475e-30)
(0.00509868 0.0150515 1.09513e-29)
(0.00590451 0.0143188 5.16285e-30)
(0.00663943 0.0136112 -2.40214e-30)
(0.00731123 0.0129286 0)
(0.0079217 0.0122669 8.74178e-30)
(0.00847852 0.0116257 3.63502e-32)
(0.00898291 0.0110009 -4.4932e-30)
(0.00944206 0.0103921 7.97505e-31)
(0.00985651 0.00979536 3.65711e-30)
(0.0102328 0.00920998 5.63138e-30)
(0.010571 0.00863254 2.73854e-30)
(0.0108767 0.00806224 2.02002e-30)
(0.0111493 0.00749614 3.20198e-30)
(0.0113937 0.0069334 5.82724e-31)
(0.0116085 0.00637144 0)
(0.0117977 0.00580928 2.79807e-31)
(0.0119594 0.00524461 -1.1539e-30)
(0.0120965 0.00467613 -1.96758e-30)
(0.0122072 0.00410161 -2.1711e-30)
(0.0122932 0.00351971 -1.04421e-30)
(0.0123533 0.00292828 -4.91069e-31)
(0.0123879 0.00232574 -4.62805e-31)
(0.0123968 0.00170966 3.78947e-32)
(-0.0020225 0.000666972 -9.41867e-32)
(-0.00294857 0.00285439 3.49887e-31)
(-0.000746423 0.00609802 0)
(0.000208958 0.00586938 0)
(0.000621649 0.00914455 6.98296e-31)
(0.00269973 0.0101592 5.66602e-31)
(0.00244198 0.00879846 -7.75994e-32)
(0.00157478 0.0121578 -9.23868e-32)
(0.00513466 0.0157557 0)
(0.00363398 0.00631932 0)
(0.000410185 0.0105404 1.14586e-29)
(0.000957193 0.00857864 0)
(-0.00171822 0.00591975 0)
(-0.00329404 0.00949781 0)
(-0.00136818 0.0152172 5.57873e-30)
(-0.00280359 0.017262 -4.38849e-31)
(-0.00520042 0.0243727 -8.72153e-31)
(-0.00473606 0.0306123 -1.32695e-29)
(-0.00427872 0.0324409 -2.08351e-29)
(-0.00525011 0.0318635 -8.87357e-30)
(-0.00724686 0.0319627 1.21386e-29)
(-0.00978066 0.0333368 -2.28479e-31)
(-0.0126813 0.0356202 -8.43506e-30)
(-0.0158555 0.0383542 -1.04567e-29)
(-0.0192032 0.0411594 0)
(-0.0225958 0.0437208 2.88645e-29)
(-0.0258824 0.0457833 2.90378e-29)
(-0.0288897 0.0471658 1.76403e-29)
(-0.0314328 0.0478079 -3.78158e-29)
(-0.0333653 0.047802 0)
(-0.0346408 0.0473232 2.40662e-29)
(-0.0353107 0.0465265 2.75767e-29)
(-0.0354715 0.0455169 2.8126e-29)
(-0.0352258 0.04435 -4.72474e-30)
(-0.0346505 0.0430279 1.23111e-36)
(-0.0337679 0.0415349 -2.97608e-29)
(-0.0325611 0.0399099 -2.98798e-29)
(-0.0310381 0.0382472 -1.94758e-30)
(-0.0292594 0.0366185 0)
(-0.0272937 0.0350586 -5.29061e-30)
(-0.0252012 0.0335895 6.36594e-30)
(-0.0230441 0.032212 0)
(-0.0208725 0.0309148 7.3212e-30)
(-0.0187211 0.0296861 2.76383e-29)
(-0.0166177 0.0285094 1.89795e-29)
(-0.0145786 0.0273724 7.4053e-37)
(-0.0126111 0.026259 0)
(-0.0107203 0.0251732 -8.7186e-30)
(-0.00890644 0.0241099 -8.01042e-30)
(-0.0071733 0.023078 5.74001e-30)
(-0.00552489 0.0220777 5.43395e-30)
(-0.00396625 0.021115 6.11688e-30)
(-0.00250132 0.0201869 4.84376e-30)
(-0.00113202 0.0192955 -1.96044e-29)
(0.000141221 0.0184359 -5.17409e-30)
(0.00132071 0.017609 0)
(0.00240882 0.0168103 8.12326e-30)
(0.0034103 0.0160402 1.85661e-29)
(0.00432869 0.0152946 5.61475e-32)
(0.00516993 0.0145737 -7.03173e-30)
(0.00593791 0.0138734 0)
(0.00663894 0.0131936 4.22356e-30)
(0.00727664 0.0125306 6.21555e-30)
(0.007857 0.0118838 9.30004e-31)
(0.008383 0.0112498 8.66682e-31)
(0.00886007 0.0106276 1.60135e-30)
(0.0092906 0.0100141 0)
(0.00967939 0.00940827 0)
(0.0100282 0.00880718 0)
(0.010341 0.00820988 -6.36482e-31)
(0.0106186 0.007614 6.17297e-31)
(0.0108641 0.00701843 0)
(0.0110775 0.00642106 2.9394e-31)
(0.0112607 0.00582052 2.89934e-31)
(0.0114134 0.00521463 2.92236e-31)
(0.0115361 0.00460185 2.95042e-31)
(0.0116289 0.00397976 0)
(0.0116912 0.00334703 0)
(0.0117236 0.00270078 -3.02096e-31)
(0.0117256 0.00203921 -1.77675e-31)
(-0.00146188 0.00191617 0)
(-0.00216902 0.00284452 3.38945e-31)
(-0.0012345 0.00521179 1.95223e-31)
(-0.000643566 0.00647291 2.29888e-31)
(-7.86646e-05 0.00948457 8.72669e-32)
(0.00150981 0.0108793 -5.44909e-31)
(0.00156919 0.0110004 0)
(0.000712741 0.0135656 2.99806e-30)
(0.00365724 0.01522 0)
(0.00250147 0.0096774 0)
(0.000515418 0.0108285 -6.4416e-30)
(0.00119464 0.00916565 1.8271e-30)
(-0.000867297 0.00855581 0)
(-0.00273016 0.0120871 7.79028e-31)
(-0.00286661 0.0172259 2.34332e-30)
(-0.0044923 0.0215779 2.84605e-30)
(-0.00619184 0.0278341 -1.09168e-32)
(-0.00634354 0.0324436 -9.57938e-30)
(-0.00662595 0.0341353 -6.32285e-30)
(-0.00799727 0.0348069 -9.18038e-30)
(-0.0102876 0.0363658 1.13658e-29)
(-0.0131876 0.0390056 0)
(-0.0165398 0.042307 1.51707e-29)
(-0.020216 0.0457974 -8.33812e-30)
(-0.0240763 0.0490557 -8.42997e-30)
(-0.0279659 0.0517333 1.23108e-29)
(-0.0317166 0.0535778 4.84967e-31)
(-0.0351216 0.0544341 4.24188e-29)
(-0.0379282 0.0542815 -2.53081e-29)
(-0.0399218 0.0533251 0)
(-0.0410597 0.0519125 1.6869e-29)
(-0.0414745 0.0503063 1.25068e-29)
(-0.0413491 0.0486335 0)
(-0.0408447 0.0469466 -1.3412e-29)
(-0.0400755 0.0452048 -5.7641e-30)
(-0.0390561 0.0433063 0)
(-0.0377111 0.0412443 3.1701e-29)
(-0.0359885 0.0391893 3.17847e-29)
(-0.0339571 0.0372782 0)
(-0.0317271 0.0355226 -5.25026e-30)
(-0.0293721 0.0339348 6.64501e-30)
(-0.0269739 0.0325052 0)
(-0.0245888 0.0311987 -2.95523e-29)
(-0.0222472 0.0299902 -2.80184e-29)
(-0.0199751 0.0288561 0)
(-0.0177856 0.027762 7.29746e-30)
(-0.0156839 0.0266961 0)
(-0.0136589 0.0256467 6.67686e-30)
(-0.011711 0.0246204 6.39038e-30)
(-0.00983947 0.0236207 0)
(-0.00805112 0.0226564 0)
(-0.0063521 0.0217277 -5.46019e-30)
(-0.00475038 0.0208366 -4.79137e-30)
(-0.00324901 0.0199776 -9.28108e-32)
(-0.00184971 0.0191497 1.30815e-29)
(-0.000550341 0.0183477 8.11737e-30)
(0.000651625 0.0175713 7.73828e-30)
(0.00176032 0.0168166 3.35072e-30)
(0.00277994 0.0160836 0)
(0.00371535 0.0153688 2.7953e-30)
(0.00457165 0.0146718 0)
(0.00535395 0.0139897 -2.33855e-30)
(0.00606747 0.013322 5.8959e-30)
(0.00671678 0.012666 3.87023e-32)
(0.00730653 0.0120208 -5.57168e-30)
(0.0078407 0.0113836 -1.84883e-30)
(0.00832353 0.0107532 -3.42051e-30)
(0.00875857 0.0101272 0)
(0.00914937 0.00950422 6.91794e-31)
(0.00949872 0.00888237 -1.31521e-30)
(0.00980915 0.00826054 -6.29307e-31)
(0.0100825 0.00763703 -6.08663e-31)
(0.0103198 0.00701056 5.93488e-31)
(0.0105223 0.00637939 0)
(0.0106897 0.00574191 1.09289e-30)
(0.0108228 0.00509578 1.36022e-30)
(0.0109204 0.00443956 -5.06702e-31)
(0.0109834 0.00377033 -3.34304e-31)
(0.0110114 0.00308617 -1.42002e-31)
(0.0110045 0.00238457 0)
(-0.000934847 0.00293861 -4.75558e-32)
(-0.00160246 0.00297372 -8.40961e-32)
(-0.00134261 0.00450765 -1.79567e-31)
(-0.000954022 0.00616227 0)
(-0.000422428 0.00868771 7.25554e-31)
(0.000560533 0.0104086 4.83473e-31)
(0.000796048 0.0114681 0)
(0.000495413 0.0135096 -1.42934e-31)
(0.00228768 0.0148092 0)
(0.00168452 0.0117805 0)
(0.000664888 0.0120086 -2.76599e-30)
(0.00058278 0.0109809 -4.94893e-31)
(-0.00120664 0.0115227 1.62458e-32)
(-0.00302012 0.0150843 2.41616e-30)
(-0.00412507 0.0201654 4.30832e-30)
(-0.00573553 0.0254163 5.26646e-30)
(-0.00706607 0.0308337 9.21931e-30)
(-0.00767663 0.0345419 1.3336e-29)
(-0.00863015 0.0366385 -1.36396e-31)
(-0.0105088 0.0387152 -7.37929e-30)
(-0.0132136 0.041772 5.52028e-30)
(-0.0165319 0.0456572 -1.16598e-29)
(-0.0203174 0.0498763 -2.79626e-29)
(-0.0244357 0.0539296 1.76909e-29)
(-0.0287441 0.0573795 0)
(-0.0330786 0.0598937 0)
(-0.037247 0.0612776 -3.33434e-29)
(-0.0410176 0.0614063 1.55411e-29)
(-0.0440938 0.060197 -7.43109e-31)
(-0.0461589 0.0579132 -3.04805e-29)
(-0.0470812 0.0552669 0)
(-0.0471138 0.0527354 0)
(-0.0466041 0.0504048 -1.05435e-29)
(-0.0457891 0.0482845 -7.57584e-30)
(-0.04485 0.0462682 0)
(-0.0438114 0.0440838 0)
(-0.0424721 0.0415688 -4.07698e-29)
(-0.0405662 0.0390647 -3.44602e-29)
(-0.038163 0.0369433 -2.90454e-30)
(-0.0356311 0.0350412 -4.3191e-37)
(-0.0330062 0.0333796 -3.89785e-37)
(-0.0303616 0.03197 7.89238e-30)
(-0.02778 0.0307221 1.33091e-29)
(-0.025272 0.0295989 2.89385e-30)
(-0.0228621 0.028565 0)
(-0.020573 0.0275755 0)
(-0.0183812 0.026594 0)
(-0.0162705 0.0256179 -6.81854e-30)
(-0.0142263 0.0246538 0)
(-0.0122511 0.0237156 0)
(-0.0103489 0.0228128 1.0993e-29)
(-0.00853549 0.021951 1.13068e-31)
(-0.0068197 0.0211259 -9.45298e-30)
(-0.00521032 0.0203328 -4.9992e-30)
(-0.00370691 0.0195639 0)
(-0.0023093 0.0188162 0)
(-0.00101245 0.0180857 1.10479e-29)
(0.000185972 0.0173717 1.0185e-29)
(0.00129149 0.0166715 1.30808e-29)
(0.00230739 0.0159842 9.23593e-30)
(0.0032399 0.0153076 3.32734e-30)
(0.00409314 0.014641 4.81294e-32)
(0.00487333 0.0139829 -1.12452e-29)
(0.00558403 0.0133324 -1.09147e-29)
(0.0062306 0.0126879 -1.06164e-29)
(0.00681614 0.0120479 -1.03545e-29)
(0.00734584 0.0114105 -9.19169e-30)
(0.00782261 0.010774 -1.47502e-32)
(0.00825126 0.010137 2.42911e-30)
(0.00863382 0.00949835 -6.65645e-31)
(0.0089741 0.00885705 -6.28273e-31)
(0.00927273 0.00821205 -6.06692e-31)
(0.00953225 0.00756236 5.83052e-31)
(0.00975167 0.00690666 0)
(0.00993267 0.00624312 -1.07437e-30)
(0.0100731 0.00557025 -1.32719e-30)
(0.0101744 0.00488516 0)
(0.0102355 0.00418583 1.32306e-31)
(0.0102572 0.0034695 2.18617e-31)
(0.0102391 0.00273406 1.77448e-31)
(-0.000445431 0.00388354 0)
(-0.00116624 0.00334451 -9.89532e-32)
(-0.00129292 0.00430057 1.40517e-31)
(-0.00112822 0.00589182 -1.64411e-31)
(-0.000731857 0.00801448 1.95553e-31)
(-0.000111337 0.00984665 -2.54018e-31)
(0.000186616 0.0113501 0)
(0.000286484 0.013 0)
(0.00130101 0.0139416 -3.46594e-31)
(0.00103752 0.0124936 9.14822e-31)
(0.000354477 0.0124538 1.65727e-30)
(-0.000290656 0.0124061 -5.39315e-31)
(-0.00191598 0.0141521 -8.81448e-31)
(-0.00363367 0.0182164 -1.44667e-30)
(-0.00507175 0.0235082 1.77907e-30)
(-0.00658141 0.028891 2.28238e-30)
(-0.0078102 0.033673 -3.3427e-30)
(-0.00885355 0.0371782 4.09856e-30)
(-0.0104166 0.0401475 4.39785e-30)
(-0.0128105 0.0437057 1.06543e-29)
(-0.0159354 0.0481746 1.70823e-29)
(-0.0196231 0.0531464 1.53859e-30)
(-0.0237398 0.0580738 -2.1762e-29)
(-0.0281622 0.0624673 -3.47206e-38)
(-0.0327608 0.065923 -3.28503e-29)
(-0.0373847 0.068111 0)
(-0.0419136 0.0688088 -4.63556e-29)
(-0.0462383 0.0678703 4.26681e-29)
(-0.0499738 0.0651446 -2.5353e-29)
(-0.0522996 0.060948 4.09224e-29)
(-0.052667 0.056747 4.40561e-29)
(-0.0518136 0.0533456 0)
(-0.0505911 0.0505396 -9.76e-30)
(-0.0493038 0.0482291 0)
(-0.0482508 0.0462465 -9.01395e-30)
(-0.0474644 0.0441127 -6.33566e-29)
(-0.0464583 0.0412283 -1.32462e-29)
(-0.0444673 0.038058 -1.38201e-31)
(-0.0416543 0.0356416 -6.80178e-29)
(-0.0389541 0.0336606 -8.12834e-38)
(-0.0361054 0.0319403 -7.23028e-38)
(-0.0331714 0.0306516 4.82277e-29)
(-0.0304157 0.0295553 3.44717e-31)
(-0.0277727 0.0285755 8.39362e-29)
(-0.0252618 0.0277157 3.38116e-29)
(-0.0229117 0.0268859 -7.50852e-30)
(-0.0206875 0.0260273 0)
(-0.0185361 0.0251421 -6.67846e-30)
(-0.016436 0.0242549 -6.57238e-30)
(-0.0143834 0.0233898 -1.15514e-29)
(-0.0123907 0.022568 -1.0676e-29)
(-0.0104793 0.0217965 9.61929e-30)
(-0.0086716 0.0210666 8.91895e-30)
(-0.00697474 0.0203665 -5.1592e-30)
(-0.0053924 0.019684 0)
(-0.00391772 0.0190136 -4.35144e-30)
(-0.00254851 0.0183517 2.35782e-37)
(-0.00127806 0.0176981 -3.62951e-30)
(-0.000105247 0.0170505 -6.08823e-30)
(0.000976637 0.0164083 -2.90062e-30)
(0.00196991 0.0157689 -3.08538e-37)
(0.00288264 0.0151325 -5.45785e-30)
(0.00371736 0.014498 -5.34395e-30)
(0.00448104 0.0138658 -2.07117e-30)
(0.00517475 0.0132342 1.9224e-30)
(0.00580508 0.0126023 0)
(0.00637339 0.0119678 4.01997e-30)
(0.00688677 0.0113298 5.51456e-30)
(0.00734638 0.0106866 -7.03466e-31)
(0.00775864 0.0100384 -1.64372e-30)
(0.00812337 0.00938398 -1.64438e-30)
(0.00844545 0.00872373 0)
(0.00872281 0.00805673 0)
(0.00895849 0.00738254 0)
(0.00914903 0.00669963 2.59582e-31)
(0.00929594 0.00600597 5.20223e-31)
(0.00939743 0.00529879 4.88779e-31)
(0.00945477 0.0045755 -4.56724e-31)
(0.00946772 0.00383367 1.67601e-38)
(0.00943592 0.00307132 -2.79047e-32)
(4.05721e-05 0.00481606 3.60583e-32)
(-0.000740979 0.00388826 -1.84266e-32)
(-0.00109497 0.00444551 1.19636e-31)
(-0.00112582 0.00586494 8.02518e-31)
(-0.000897532 0.00777271 2.95007e-31)
(-0.000503873 0.00963699 1.13422e-30)
(-0.000216382 0.0112909 1.73105e-30)
(3.17891e-05 0.0127239 -1.35255e-33)
(0.000611939 0.0134474 -3.72831e-31)
(0.000467921 0.0129199 -5.96422e-33)
(-0.000133633 0.0131081 -3.39321e-31)
(-0.00103921 0.0140629 -1.83203e-30)
(-0.00256852 0.0168539 -2.4461e-31)
(-0.00421087 0.0214635 -9.29922e-31)
(-0.00571821 0.0268999 6.38238e-31)
(-0.00715076 0.0321442 5.44721e-30)
(-0.0084539 0.0366604 -1.17367e-30)
(-0.00992557 0.0405587 0)
(-0.0120144 0.0447029 0)
(-0.0148346 0.0496817 1.21561e-29)
(-0.0182634 0.0553233 -1.51612e-30)
(-0.0221582 0.0610559 0)
(-0.0264091 0.0663154 -2.51711e-29)
(-0.0309473 0.0706634 2.78117e-37)
(-0.0357478 0.0737464 -4.89873e-29)
(-0.0408042 0.0752032 -9.3441e-30)
(-0.0460358 0.0747496 0)
(-0.0510313 0.0724574 1.21427e-37)
(-0.0547316 0.068379 -6.92721e-29)
(-0.055887 0.0620017 -6.22751e-29)
(-0.0545101 0.0550446 1.27569e-28)
(-0.0520862 0.0501423 8.21765e-29)
(-0.0499318 0.0466405 8.39568e-29)
(-0.0482545 0.0440483 5.52542e-29)
(-0.0474454 0.0422327 -6.79486e-30)
(-0.0475224 0.0407264 0)
(-0.0476854 0.0380416 0)
(-0.0470618 0.0337952 -9.5829e-29)
(-0.0441054 0.0320265 -7.66763e-29)
(-0.0412831 0.0306214 -3.09957e-30)
(-0.0382814 0.0292287 9.11612e-30)
(-0.0350321 0.0283802 3.83501e-29)
(-0.0322855 0.0276677 -4.16372e-29)
(-0.0296746 0.0269234 0)
(-0.0271122 0.026348 0)
(-0.0247774 0.0257805 -7.54333e-30)
(-0.0225982 0.025085 -3.35709e-29)
(-0.0204728 0.0242864 -2.60762e-29)
(-0.0183469 0.0234715 -3.70028e-29)
(-0.0162396 0.0226753 -2.27686e-29)
(-0.014161 0.0219437 2.67502e-29)
(-0.0121614 0.021283 1.85325e-29)
(-0.0102737 0.0206769 -5.75153e-30)
(-0.00851247 0.0200969 0)
(-0.0068736 0.0195254 -7.03191e-30)
(-0.00534835 0.0189513 -1.11451e-29)
(-0.00392666 0.0183763 -2.10225e-37)
(-0.00260607 0.0177989 -3.72006e-30)
(-0.00138193 0.0172207 0)
(-0.000253133 0.0166378 -5.44957e-30)
(0.00078727 0.0160503 -5.33076e-30)
(0.00174316 0.0154558 0)
(0.00262233 0.0148572 0)
(0.00342606 0.0142538 2.77146e-30)
(0.00415945 0.0136467 8.58662e-30)
(0.0048231 0.0130325 -6.43615e-30)
(0.00542368 0.0124108 -6.22414e-30)
(0.0059633 0.0117789 5.28784e-30)
(0.00644919 0.0111373 3.84261e-30)
(0.0068826 0.0104852 2.8469e-30)
(0.00726922 0.00982398 5.95293e-31)
(0.00760823 0.00915356 -1.08997e-32)
(0.00790276 0.00847531 1.00616e-32)