/*--------------------------------*- C++ -*----------------------------------*\
  =========                 |
  \\      /  F ield         | OpenFOAM: The Open Source CFD Toolbox
   \\    /   O peration     | Website:  https://openfoam.org
    \\  /    A nd           | Version:  7
     \\/     M anipulation  |
\*---------------------------------------------------------------------------*/
FoamFile
{
    version     2.0;
    format      ascii;
    class       volVectorField;
    location    "5";
    object      UnonWetting;
}
// * * * * * * * * * * * * * * * * * * * * * * * * * * * * * * * * * * * * * //

dimensions      [0 1 -1 0 0 0 0];

internalField   nonuniform List<vector> 
49920
(
(-386.437 21.9515 1.45066e-15)
(-0.564427 0.204171 -1.24221e-18)
(-0.0116732 0.00995634 -7.24513e-20)
(-0.0134411 0.0230956 6.12764e-19)
(-0.00246493 0.0192584 -5.89787e-19)
(-0.00710541 0.0317354 -2.4719e-18)
(-0.00682036 0.0242464 4.15422e-22)
(-0.000217323 0.00618085 0)
(0.00232164 0.0120225 2.95616e-23)
(0.00901853 0.0240763 2.42548e-18)
(0.00612578 0.0181654 -1.23944e-18)
(0.006172 0.0102338 0)
(0.0203279 0.0146386 -9.91276e-22)
(0.0113765 0.00342212 8.3595e-19)
(0.072013 0.000223162 0)
(7.93081 -2.051 -5.02366e-16)
(0 0 0)
(0 0 0)
(0 0 0)
(0 0 0)
(0 0 0)
(0 0 0)
(0 0 0)
(0 0 0)
(0 0 0)
(0 0 0)
(0 0 0)
(0 0 0)
(0 0 0)
(0 0 0)
(0 0 0)
(0 0 0)
(0 0 0)
(0 0 0)
(0 0 0)
(0 0 0)
(0 0 0)
(0 0 0)
(0 0 0)
(0 0 0)
(0 0 0)
(0 0 0)
(0 0 0)
(0 0 0)
(0 0 0)
(0 0 0)
(0 0 0)
(0 0 0)
(0 0 0)
(0 0 0)
(0 0 0)
(0 0 0)
(0 0 0)
(0 0 0)
(0 0 0)
(0 0 0)
(0 0 0)
(0 0 0)
(0 0 0)
(0 0 0)
(0 0 0)
(0 0 0)
(0 0 0)
(0 0 0)
(0 0 0)
(0 0 0)
(0 0 0)
(0 0 0)
(0 0 0)
(0 0 0)
(0 0 0)
(0 0 0)
(0 0 0)
(0 0 0)
(0 0 0)
(0 0 0)
(0 0 0)
(0 0 0)
(0 0 0)
(0 0 0)
(-154.228 15.9919 0)
(-17.5385 23.7551 0)
(-0.895283 2.44635 1.99128e-17)
(-0.0200695 0.0615519 4.77878e-19)
(-0.0120334 0.0576579 -4.51011e-19)
(-0.0191248 0.196347 7.48305e-18)
(0.0021288 0.0330547 5.50081e-19)
(0.0279932 0.171924 -2.77247e-18)
(0.00619045 0.0439306 0)
(0.00942396 0.0564553 -4.82382e-18)
(0.0245845 0.0698009 5.13328e-18)
(0.0225487 0.0421368 -1.53513e-18)
(0.0153366 0.0195802 -1.16626e-21)
(0.121288 0.106866 -5.61133e-18)
(3.89871 2.23083 1.94017e-16)
(37.3416 -7.82337 0)
(0 0 0)
(0 0 0)
(0 0 0)
(0 0 0)
(0 0 0)
(0 0 0)
(0 0 0)
(0 0 0)
(0 0 0)
(0 0 0)
(0 0 0)
(0 0 0)
(0 0 0)
(0 0 0)
(0 0 0)
(0 0 0)
(0 0 0)
(0 0 0)
(0 0 0)
(0 0 0)
(0 0 0)
(0 0 0)
(0 0 0)
(0 0 0)
(0 0 0)
(0 0 0)
(0 0 0)
(0 0 0)
(0 0 0)
(0 0 0)
(0 0 0)
(0 0 0)
(0 0 0)
(0 0 0)
(0 0 0)
(0 0 0)
(0 0 0)
(0 0 0)
(0 0 0)
(0 0 0)
(0 0 0)
(0 0 0)
(0 0 0)
(0 0 0)
(0 0 0)
(0 0 0)
(0 0 0)
(0 0 0)
(0 0 0)
(0 0 0)
(0 0 0)
(0 0 0)
(0 0 0)
(0 0 0)
(0 0 0)
(0 0 0)
(0 0 0)
(0 0 0)
(0 0 0)
(0 0 0)
(0 0 0)
(0 0 0)
(0 0 0)
(0 0 0)
(0 0 0)
(2.32746 431.82 -3.48298e-15)
(-20.6998 42.4625 -5.21316e-19)
(-2.26381 4.70857 0)
(-1.40599 5.53784 5.0398e-17)
(-1.0571 13.9433 2.27317e-16)
(0.556945 5.93525 -9.23206e-17)
(1.82214 12.3195 1.9323e-16)
(0.783289 6.19719 9.86833e-17)
(0.020902 0.188059 -3.62501e-18)
(0.0494752 0.161022 -2.02992e-17)
(0.0812982 0.152247 1.0627e-20)
(0.453259 0.511204 -1.47121e-20)
(5.91344 4.20293 -5.08628e-20)
(39.275 22.336 -4.04973e-15)
(10.0431 -7.51639 0)
(0 0 0)
(0 0 0)
(0 0 0)
(0 0 0)
(0 0 0)
(0 0 0)
(0 0 0)
(0 0 0)
(0 0 0)
(0 0 0)
(0 0 0)
(0 0 0)
(0 0 0)
(0 0 0)
(0 0 0)
(0 0 0)
(0 0 0)
(0 0 0)
(0 0 0)
(0 0 0)
(0 0 0)
(0 0 0)
(0 0 0)
(0 0 0)
(0 0 0)
(0 0 0)
(0 0 0)
(0 0 0)
(0 0 0)
(0 0 0)
(0 0 0)
(0 0 0)
(0 0 0)
(0 0 0)
(0 0 0)
(0 0 0)
(0 0 0)
(0 0 0)
(0 0 0)
(0 0 0)
(0 0 0)
(0 0 0)
(0 0 0)
(0 0 0)
(0 0 0)
(0 0 0)
(0 0 0)
(0 0 0)
(0 0 0)
(0 0 0)
(0 0 0)
(0 0 0)
(0 0 0)
(0 0 0)
(0 0 0)
(0 0 0)
(0 0 0)
(0 0 0)
(0 0 0)
(0 0 0)
(0 0 0)
(0 0 0)
(0 0 0)
(0 0 0)
(0 0 0)
(0 0 0)
(0 0 0)
(2.60278 47.1949 4.41887e-23)
(4.58139 56.1133 0)
(18.1147 162.177 -9.31086e-15)
(9.76583 75.2472 0)
(19.9411 146.015 0)
(-17.5147 76.8596 0)
(-2.75336 14.8012 1.41729e-15)
(1.66541 8.34768 -4.29212e-16)
(2.41068 6.95492 4.19821e-16)
(11.2796 12.0159 -7.11127e-19)
(24.2835 18.617 -9.64861e-22)
(0 0 0)
(0 0 0)
(0 0 0)
(0 0 0)
(0 0 0)
(0 0 0)
(0 0 0)
(0 0 0)
(0 0 0)
(0 0 0)
(0 0 0)
(0 0 0)
(0 0 0)
(0 0 0)
(0 0 0)
(0 0 0)
(0 0 0)
(0 0 0)
(0 0 0)
(0 0 0)
(0 0 0)
(0 0 0)
(0 0 0)
(0 0 0)
(0 0 0)
(0 0 0)
(0 0 0)
(0 0 0)
(0 0 0)
(0 0 0)
(0 0 0)
(0 0 0)
(0 0 0)
(0 0 0)
(0 0 0)
(0 0 0)
(0 0 0)
(0 0 0)
(0 0 0)
(0 0 0)
(0 0 0)
(0 0 0)
(0 0 0)
(0 0 0)
(0 0 0)
(0 0 0)
(0 0 0)
(0 0 0)
(0 0 0)
(0 0 0)
(0 0 0)
(0 0 0)
(0 0 0)
(0 0 0)
(0 0 0)
(0 0 0)
(0 0 0)
(0 0 0)
(0 0 0)
(0 0 0)
(0 0 0)
(0 0 0)
(0 0 0)
(0 0 0)
(0 0 0)
(0 0 0)
(0 0 0)
(0 0 0)
(0 0 0)
(0 0 0)
(0 0 0)
(0 0 0)
(0 0 0)
(0 0 0)
(0 0 0)
(53.5509 308.959 1.71191e-19)
(9.52759 47.9772 6.05624e-15)
(16.8949 70.9029 -9.29437e-15)
(44.2489 167.34 -8.44854e-18)
(0 0 0)
(0 0 0)
(0 0 0)
(0 0 0)
(0 0 0)
(0 0 0)
(0 0 0)
(0 0 0)
(0 0 0)
(0 0 0)
(0 0 0)
(0 0 0)
(0 0 0)
(0 0 0)
(0 0 0)
(0 0 0)
(0 0 0)
(0 0 0)
(0 0 0)
(0 0 0)
(0 0 0)
(0 0 0)
(0 0 0)
(0 0 0)
(0 0 0)
(0 0 0)
(0 0 0)
(0 0 0)
(0 0 0)
(0 0 0)
(0 0 0)
(0 0 0)
(0 0 0)
(0 0 0)
(0 0 0)
(0 0 0)
(0 0 0)
(0 0 0)
(0 0 0)
(0 0 0)
(0 0 0)
(0 0 0)
(0 0 0)
(0 0 0)
(0 0 0)
(0 0 0)
(0 0 0)
(0 0 0)
(0 0 0)
(0 0 0)
(0 0 0)
(0 0 0)
(0 0 0)
(0 0 0)
(0 0 0)
(0 0 0)
(0 0 0)
(0 0 0)
(0 0 0)
(0 0 0)
(0 0 0)
(0 0 0)
(0 0 0)
(0 0 0)
(0 0 0)
(0 0 0)
(0 0 0)
(0 0 0)
(0 0 0)
(0 0 0)
(0 0 0)
(0 0 0)
(0 0 0)
(0 0 0)
(0 0 0)
(0 0 0)
(0 0 0)
(0 0 0)
(0 0 0)
(0 0 0)
(0 0 0)
(0 0 0)
(0 0 0)
(0 0 0)
(0 0 0)
(0 0 0)
(0 0 0)
(0 0 0)
(0 0 0)
(0 0 0)
(0 0 0)
(0 0 0)
(0 0 0)
(0 0 0)
(0 0 0)
(0 0 0)
(0 0 0)
(0 0 0)
(0 0 0)
(0 0 0)
(0 0 0)
(0 0 0)
(0 0 0)
(0 0 0)
(0 0 0)
(0 0 0)
(0 0 0)
(0 0 0)
(0 0 0)
(0 0 0)
(0 0 0)
(0 0 0)
(0 0 0)
(0 0 0)
(0 0 0)
(0 0 0)
(0 0 0)
(0 0 0)
(0 0 0)
(0 0 0)
(0 0 0)
(0 0 0)
(0 0 0)
(0 0 0)
(0 0 0)
(0 0 0)
(0 0 0)
(0 0 0)
(0 0 0)
(0 0 0)
(0 0 0)
(0 0 0)
(0 0 0)
(0 0 0)
(0 0 0)
(0 0 0)
(0 0 0)
(0 0 0)
(0 0 0)
(0 0 0)
(0 0 0)
(0 0 0)
(0 0 0)
(0 0 0)
(0 0 0)
(0 0 0)
(0 0 0)
(0 0 0)
(0 0 0)
(0 0 0)
(0 0 0)
(0 0 0)
(0 0 0)
(0 0 0)
(0 0 0)
(0 0 0)
(0 0 0)
(0 0 0)
(0 0 0)
(0 0 0)
(0 0 0)
(0 0 0)
(0 0 0)
(0 0 0)
(0 0 0)
(0 0 0)
(0 0 0)
(0 0 0)
(0 0 0)
(0 0 0)
(0 0 0)
(0 0 0)
(0 0 0)
(0 0 0)
(0 0 0)
(0 0 0)
(0 0 0)
(0 0 0)
(0 0 0)
(0 0 0)
(0 0 0)
(0 0 0)
(0 0 0)
(0 0 0)
(0 0 0)
(0 0 0)
(0 0 0)
(0 0 0)
(0 0 0)
(0 0 0)
(0 0 0)
(0 0 0)
(0 0 0)
(0 0 0)
(0 0 0)
(0 0 0)
(0 0 0)
(0 0 0)
(0 0 0)
(0 0 0)
(0 0 0)
(0 0 0)
(0 0 0)
(0 0 0)
(0 0 0)
(0 0 0)
(0 0 0)
(0 0 0)
(0 0 0)
(0 0 0)
(0 0 0)
(0 0 0)
(0 0 0)
(0 0 0)
(0 0 0)
(0 0 0)
(0 0 0)
(0 0 0)
(0 0 0)
(0 0 0)
(0 0 0)
(0 0 0)
(0 0 0)
(0 0 0)
(0 0 0)
(0 0 0)
(0 0 0)
(0 0 0)
(0 0 0)
(0 0 0)
(0 0 0)
(0 0 0)
(0 0 0)
(0 0 0)
(0 0 0)
(0 0 0)
(0 0 0)
(0 0 0)
(0 0 0)
(0 0 0)
(0 0 0)
(0 0 0)
(0 0 0)
(0 0 0)
(0 0 0)
(0 0 0)
(0 0 0)
(0 0 0)
(0 0 0)
(0 0 0)
(0 0 0)
(0 0 0)
(0 0 0)
(0 0 0)
(0 0 0)
(0 0 0)
(0 0 0)
(0 0 0)
(0 0 0)
(0 0 0)
(0 0 0)
(0 0 0)
(0 0 0)
(0 0 0)
(0 0 0)
(0 0 0)
(0 0 0)
(0 0 0)
(0 0 0)
(0 0 0)
(0 0 0)
(0 0 0)
(0 0 0)
(0 0 0)
(0 0 0)
(0 0 0)
(0 0 0)
(0 0 0)
(0 0 0)
(0 0 0)
(0 0 0)
(0 0 0)
(0 0 0)
(0 0 0)
(0 0 0)
(0 0 0)
(0 0 0)
(0 0 0)
(0 0 0)
(0 0 0)
(0 0 0)
(0 0 0)
(0 0 0)
(0 0 0)
(0 0 0)
(0 0 0)
(0 0 0)
(0 0 0)
(0 0 0)
(0 0 0)
(0 0 0)
(0 0 0)
(0 0 0)
(0 0 0)
(0 0 0)
(0 0 0)
(0 0 0)
(0 0 0)
(0 0 0)
(0 0 0)
(0 0 0)
(0 0 0)
(0 0 0)
(0 0 0)
(0 0 0)
(0 0 0)
(0 0 0)
(0 0 0)
(0 0 0)
(0 0 0)
(0 0 0)
(0 0 0)
(0 0 0)
(0 0 0)
(0 0 0)
(0 0 0)
(0 0 0)
(0 0 0)
(0 0 0)
(0 0 0)
(0 0 0)
(0 0 0)
(0 0 0)
(0 0 0)
(0 0 0)
(0 0 0)
(0 0 0)
(0 0 0)
(0 0 0)
(0 0 0)
(0 0 0)
(0 0 0)
(0 0 0)
(0 0 0)
(0 0 0)
(0 0 0)
(0 0 0)
(0 0 0)
(0 0 0)
(0 0 0)
(0 0 0)
(0 0 0)
(0 0 0)
(0 0 0)
(0 0 0)
(0 0 0)
(0 0 0)
(0 0 0)
(0 0 0)
(0 0 0)
(0 0 0)
(0 0 0)
(0 0 0)
(0 0 0)
(0 0 0)
(0 0 0)
(0 0 0)
(0 0 0)
(0 0 0)
(0 0 0)
(0 0 0)
(0 0 0)
(0 0 0)
(0 0 0)
(0 0 0)
(0 0 0)
(0 0 0)
(0 0 0)
(0 0 0)
(0 0 0)
(0 0 0)
(0 0 0)
(0 0 0)
(0 0 0)
(0 0 0)
(0 0 0)
(0 0 0)
(0 0 0)
(0 0 0)
(0 0 0)
(0 0 0)
(0 0 0)
(0 0 0)
(0 0 0)
(0 0 0)
(0 0 0)
(0 0 0)
(0 0 0)
(0 0 0)
(0 0 0)
(0 0 0)
(0 0 0)
(0 0 0)
(0 0 0)
(0 0 0)
(0 0 0)
(0 0 0)
(0 0 0)
(0 0 0)
(0 0 0)
(0 0 0)
(0 0 0)
(0 0 0)
(0 0 0)
(0 0 0)
(0 0 0)
(0 0 0)
(0 0 0)
(0 0 0)
(0 0 0)
(0 0 0)
(0 0 0)
(0 0 0)
(0 0 0)
(0 0 0)
(0 0 0)
(0 0 0)
(0 0 0)
(0 0 0)
(0 0 0)
(0 0 0)
(0 0 0)
(0 0 0)
(0 0 0)
(0 0 0)
(0 0 0)
(0 0 0)
(0 0 0)
(0 0 0)
(0 0 0)
(0 0 0)
(0 0 0)
(0 0 0)
(0 0 0)
(0 0 0)
(0 0 0)
(0 0 0)
(0 0 0)
(0 0 0)
(0 0 0)
(0 0 0)
(0 0 0)
(0 0 0)
(0 0 0)
(0 0 0)
(0 0 0)
(0 0 0)
(0 0 0)
(0 0 0)
(0 0 0)
(0 0 0)
(0 0 0)
(0 0 0)
(0 0 0)
(0 0 0)
(0 0 0)
(0 0 0)
(0 0 0)
(0 0 0)
(0 0 0)
(0 0 0)
(0 0 0)
(0 0 0)
(0 0 0)
(0 0 0)
(0 0 0)
(0 0 0)
(0 0 0)
(0 0 0)
(0 0 0)
(0 0 0)
(0 0 0)
(0 0 0)
(0 0 0)
(0 0 0)
(0 0 0)
(0 0 0)
(0 0 0)
(0 0 0)
(0 0 0)
(0 0 0)
(0 0 0)
(0 0 0)
(0 0 0)
(0 0 0)
(0 0 0)
(0 0 0)
(0 0 0)
(0 0 0)
(0 0 0)
(0 0 0)
(0 0 0)
(0 0 0)
(0 0 0)
(0 0 0)
(0 0 0)
(0 0 0)
(0 0 0)
(0 0 0)
(0 0 0)
(0 0 0)
(0 0 0)
(0 0 0)
(0 0 0)
(0 0 0)
(0 0 0)
(0 0 0)
(0 0 0)
(0 0 0)
(0 0 0)
(0 0 0)
(0 0 0)
(0 0 0)
(0 0 0)
(0 0 0)
(0 0 0)
(0 0 0)
(0 0 0)
(0 0 0)
(0 0 0)
(0 0 0)
(0 0 0)
(0 0 0)
(0 0 0)
(0 0 0)
(0 0 0)
(0 0 0)
(0 0 0)
(0 0 0)
(0 0 0)
(0 0 0)
(0 0 0)
(0 0 0)
(0 0 0)
(0 0 0)
(0 0 0)
(0 0 0)
(0 0 0)
(0 0 0)
(0 0 0)
(0 0 0)
(0 0 0)
(0 0 0)
(0 0 0)
(0 0 0)
(0 0 0)
(0 0 0)
(0 0 0)
(0 0 0)
(0 0 0)
(0 0 0)
(0 0 0)
(0 0 0)
(0 0 0)
(0 0 0)
(0 0 0)
(0 0 0)
(0 0 0)
(0 0 0)
(0 0 0)
(0 0 0)
(0 0 0)
(0 0 0)
(0 0 0)
(0 0 0)
(0 0 0)
(0 0 0)
(0 0 0)
(0 0 0)
(0 0 0)
(0 0 0)
(0 0 0)
(0 0 0)
(0 0 0)
(0 0 0)
(0 0 0)
(0 0 0)
(0 0 0)
(0 0 0)
(0 0 0)
(0 0 0)
(0 0 0)
(0 0 0)
(0 0 0)
(0 0 0)
(0 0 0)
(0 0 0)
(0 0 0)
(0 0 0)
(0 0 0)
(0 0 0)
(0 0 0)
(0 0 0)
(0 0 0)
(0 0 0)
(0 0 0)
(0 0 0)
(0 0 0)
(0 0 0)
(0 0 0)
(0 0 0)
(0 0 0)
(0 0 0)
(0 0 0)
(0 0 0)
(0 0 0)
(0 0 0)
(0 0 0)
(0 0 0)
(0 0 0)
(0 0 0)
(0 0 0)
(0 0 0)
(0 0 0)
(0 0 0)
(0 0 0)
(0 0 0)
(0 0 0)
(0 0 0)
(0 0 0)
(0 0 0)
(0 0 0)
(0 0 0)
(0 0 0)
(0 0 0)
(0 0 0)
(0 0 0)
(0 0 0)
(0 0 0)
(0 0 0)
(0 0 0)
(0 0 0)
(0 0 0)
(0 0 0)
(0 0 0)
(0 0 0)
(0 0 0)
(0 0 0)
(0 0 0)
(0 0 0)
(0 0 0)
(0 0 0)
(0 0 0)
(0 0 0)
(0 0 0)
(0 0 0)
(-0.369363 11.3194 8.96222e-14)
(-0.269141 7.54132 1.99967e-14)
(1.31097 2.57354 0)
(0.95074 1.45212 -1.02664e-14)
(0.703894 0.99215 7.0322e-15)
(0.760458 0.981695 0)
(1.48175 1.21803 0)
(2.37851 3.63935 -3.52065e-14)
(3.73755 10.5303 0)
(0 0 0)
(0 0 0)
(0 0 0)
(0 0 0)
(0 0 0)
(0 0 0)
(0 0 0)
(0 0 0)
(0 0 0)
(0 0 0)
(0 0 0)
(0 0 0)
(0 0 0)
(0 0 0)
(0 0 0)
(0 0 0)
(0 0 0)
(0 0 0)
(0 0 0)
(0 0 0)
(0 0 0)
(0 0 0)
(0 0 0)
(0 0 0)
(0 0 0)
(0 0 0)
(0 0 0)
(0 0 0)
(0 0 0)
(0 0 0)
(0 0 0)
(0 0 0)
(0 0 0)
(0 0 0)
(0 0 0)
(0 0 0)
(0 0 0)
(0 0 0)
(0 0 0)
(0 0 0)
(0 0 0)
(0 0 0)
(0 0 0)
(0 0 0)
(0 0 0)
(0 0 0)
(0 0 0)
(0 0 0)
(0 0 0)
(0 0 0)
(0 0 0)
(0 0 0)
(0 0 0)
(0 0 0)
(0 0 0)
(0 0 0)
(0 0 0)
(0 0 0)
(0 0 0)
(0 0 0)
(0 0 0)
(0 0 0)
(0 0 0)
(0 0 0)
(0 0 0)
(0 0 0)
(0 0 0)
(0 0 0)
(0 0 0)
(-0.65966 3.04466 -1.07797e-13)
(1.22904 0.468606 1.10056e-14)
(0.941651 0.208149 -8.17325e-15)
(0.389279 0.505908 3.82125e-15)
(0.227438 0.333657 1.03861e-15)
(0.175808 0.229494 6.48993e-16)
(0.151419 0.188127 -9.72625e-16)
(0.151381 0.158547 2.7538e-21)
(0.212276 0.19847 5.88536e-16)
(0.276175 0.383657 1.00317e-15)
(0.287149 1.3133 -2.27704e-15)
(0.943382 2.99493 6.78508e-15)
(6.58156 7.72733 -2.62573e-14)
(22.0734 29.671 1.28924e-13)
(0 0 0)
(0 0 0)
(0 0 0)
(0 0 0)
(0 0 0)
(0 0 0)
(0 0 0)
(0 0 0)
(0 0 0)
(0 0 0)
(0 0 0)
(0 0 0)
(0 0 0)
(0 0 0)
(0 0 0)
(0 0 0)
(0 0 0)
(0 0 0)
(0 0 0)
(0 0 0)
(0 0 0)
(0 0 0)
(0 0 0)
(0 0 0)
(0 0 0)
(0 0 0)
(0 0 0)
(0 0 0)
(0 0 0)
(0 0 0)
(0 0 0)
(0 0 0)
(0 0 0)
(0 0 0)
(0 0 0)
(0 0 0)
(0 0 0)
(0 0 0)
(0 0 0)
(0 0 0)
(0 0 0)
(0 0 0)
(0 0 0)
(0 0 0)
(0 0 0)
(0 0 0)
(0 0 0)
(0 0 0)
(0 0 0)
(0 0 0)
(0 0 0)
(0 0 0)
(0 0 0)
(0 0 0)
(0 0 0)
(0 0 0)
(0 0 0)
(0 0 0)
(0 0 0)
(0 0 0)
(0 0 0)
(0 0 0)
(0 0 0)
(0 0 0)
(0 0 0)
(3.05847 -2.40436 -8.54661e-14)
(1.07207 0.047762 6.93434e-15)
(0.424634 0.193286 3.10979e-15)
(0.150128 0.0568062 -1.74134e-20)
(0.0632108 0.0419616 -2.24338e-16)
(0.0402798 0.0354229 -1.20712e-16)
(0.0304715 0.0267642 0)
(0.0216645 0.0259784 0)
(0.020816 0.0269565 0)
(0.0300228 0.0313476 7.40659e-17)
(0.0421783 0.0507353 -1.18916e-16)
(0.075929 0.129966 -2.32684e-16)
(0.227196 0.343992 0)
(0.497381 0.775633 0)
(0.612124 2.49162 0)
(1.74401 4.90943 0)
(7.70091 7.43654 1.965e-14)
(16.1453 16.1521 -5.61708e-14)
(0 0 0)
(0 0 0)
(0 0 0)
(0 0 0)
(0 0 0)
(0 0 0)
(0 0 0)
(0 0 0)
(0 0 0)
(0 0 0)
(0 0 0)
(0 0 0)
(0 0 0)
(0 0 0)
(0 0 0)
(0 0 0)
(0 0 0)
(0 0 0)
(0 0 0)
(0 0 0)
(0 0 0)
(0 0 0)
(0 0 0)
(0 0 0)
(0 0 0)
(0 0 0)
(0 0 0)
(0 0 0)
(0 0 0)
(0 0 0)
(0 0 0)
(0 0 0)
(0 0 0)
(0 0 0)
(0 0 0)
(0 0 0)
(0 0 0)
(0 0 0)
(0 0 0)
(0 0 0)
(0 0 0)
(0 0 0)
(0 0 0)
(0 0 0)
(0 0 0)
(0 0 0)
(0 0 0)
(0 0 0)
(0 0 0)
(0 0 0)
(0 0 0)
(0 0 0)
(0 0 0)
(0 0 0)
(0 0 0)
(0 0 0)
(0 0 0)
(0 0 0)
(0 0 0)
(0 0 0)
(0 0 0)
(0 0 0)
(1.94555 -1.35963 -2.9205e-20)
(0.525023 -0.0975533 0)
(0.130235 0.00574584 -4.09293e-16)
(0.0383479 0.00729187 -2.30287e-16)
(0.0149818 0.00490539 -4.33137e-17)
(0.00850561 0.00420872 2.12138e-17)
(0.0051012 0.00359462 2.66613e-17)
(0.00372373 0.00330884 -1.06187e-17)
(0.00458507 0.00445254 0)
(0.00584075 0.00620069 1.34805e-17)
(0.0087341 0.00980496 2.07486e-17)
(0.0154094 0.0203146 3.12206e-22)
(0.0311768 0.0454974 -6.97646e-17)
(0.0583978 0.0821042 0)
(0.12122 0.177575 0)
(0.322228 0.41488 -4.8406e-16)
(0.557216 0.786115 -2.92261e-20)
(0.590349 2.05632 1.90161e-15)
(1.10714 3.34725 -4.08289e-15)
(4.25431 3.29245 0)
(7.8794 6.45367 -2.09113e-14)
(13.6979 11.7633 1.02861e-13)
(0 0 0)
(0 0 0)
(0 0 0)
(0 0 0)
(0 0 0)
(0 0 0)
(0 0 0)
(0 0 0)
(0 0 0)
(0 0 0)
(0 0 0)
(0 0 0)
(0 0 0)
(0 0 0)
(0 0 0)
(0 0 0)
(0 0 0)
(0 0 0)
(0 0 0)
(0 0 0)
(0 0 0)
(0 0 0)
(0 0 0)
(0 0 0)
(0 0 0)
(0 0 0)
(0 0 0)
(0 0 0)
(0 0 0)
(0 0 0)
(0 0 0)
(0 0 0)
(0 0 0)
(0 0 0)
(0 0 0)
(0 0 0)
(0 0 0)
(0 0 0)
(0 0 0)
(0 0 0)
(0 0 0)
(0 0 0)
(0 0 0)
(0 0 0)
(0 0 0)
(0 0 0)
(0 0 0)
(0 0 0)
(0 0 0)
(0 0 0)
(0 0 0)
(0 0 0)
(0 0 0)
(0 0 0)
(0 0 0)
(0 0 0)
(0 0 0)
(0 0 0)
(1.57146 -1.09015 2.10666e-14)
(0.356859 -0.110508 0)
(0.0640715 -0.0098109 -1.75489e-16)
(0.0159044 0.000438644 8.29486e-17)
(0.00568576 0.00114136 1.29475e-17)
(0.00248908 0.00081932 5.50927e-18)
(0.00132417 0.00072153 0)
(0.00122204 0.000721791 0)
(0.00143341 0.000951753 9.00777e-23)
(0.0017162 0.00156557 7.30491e-18)
(0.00252032 0.00246513 -5.18274e-18)
(0.00418512 0.00430842 0)
(0.00719145 0.00925076 0)
(0.0116277 0.0151233 0)
(0.0208845 0.0246283 0)
(0.0364295 0.0443288 0)
(0.0602294 0.0768357 0)
(0.0972123 0.16106 -1.79124e-16)
(0.248115 0.371273 3.21049e-16)
(0.461049 0.575652 5.68651e-16)
(0.73069 0.911769 0)
(0.930624 2.02518 0)
(1.89772 3.80395 -4.9302e-15)
(8.27377 6.26034 -1.92904e-14)
(0 0 0)
(0 0 0)
(0 0 0)
(0 0 0)
(0 0 0)
(0 0 0)
(0 0 0)
(0 0 0)
(0 0 0)
(0 0 0)
(0 0 0)
(0 0 0)
(0 0 0)
(0 0 0)
(0 0 0)
(0 0 0)
(0 0 0)
(0 0 0)
(0 0 0)
(0 0 0)
(0 0 0)
(0 0 0)
(0 0 0)
(0 0 0)
(0 0 0)
(0 0 0)
(0 0 0)
(0 0 0)
(0 0 0)
(0 0 0)
(0 0 0)
(0 0 0)
(0 0 0)
(0 0 0)
(0 0 0)
(0 0 0)
(0 0 0)
(0 0 0)
(0 0 0)
(0 0 0)
(0 0 0)
(0 0 0)
(0 0 0)
(0 0 0)
(0 0 0)
(0 0 0)
(0 0 0)
(0 0 0)
(0 0 0)
(0 0 0)
(0 0 0)
(0 0 0)
(0 0 0)
(0 0 0)
(0 0 0)
(0 0 0)
(1.67052 -1.0179 1.68417e-14)
(0.314742 -0.106697 7.51857e-16)
(0.052187 -0.00922316 0)
(0.0123778 -0.00084549 -2.37849e-17)
(0.00342384 0.000276477 -6.36554e-18)
(0.00117325 0.000296815 -4.79623e-18)
(0.000672026 0.000278444 -2.83014e-18)
(0.000670589 0.000327497 1.26392e-18)
(0.000784925 0.000411829 1.42842e-18)
(0.000962841 0.000690131 0)
(0.00129147 0.0010159 0)
(0.00190139 0.00133572 2.64568e-18)
(0.00233102 0.00226307 -3.39595e-18)
(0.00298555 0.00368282 4.57723e-18)
(0.00460046 0.005296 6.55742e-18)
(0.00713068 0.00873466 -1.00316e-17)
(0.0105178 0.0142115 -1.61943e-17)
(0.0169232 0.0224679 0)
(0.0363385 0.0403703 0)
(0.0633691 0.071661 0)
(0.100492 0.126365 1.13193e-16)
(0.181677 0.247869 -1.75923e-20)
(0.534318 0.710688 4.37406e-20)
(1.22398 2.93216 5.95572e-15)
(5.172 14.5602 1.51305e-14)
(0 0 0)
(0 0 0)
(0 0 0)
(0 0 0)
(0 0 0)
(0 0 0)
(0 0 0)
(0 0 0)
(0 0 0)
(0 0 0)
(0 0 0)
(0 0 0)
(0 0 0)
(0 0 0)
(0 0 0)
(0 0 0)
(0 0 0)
(0 0 0)
(0 0 0)
(0 0 0)
(0 0 0)
(0 0 0)
(0 0 0)
(0 0 0)
(0 0 0)
(0 0 0)
(0 0 0)
(0 0 0)
(0 0 0)
(0 0 0)
(0 0 0)
(0 0 0)
(0 0 0)
(0 0 0)
(0 0 0)
(0 0 0)
(0 0 0)
(0 0 0)
(0 0 0)
(0 0 0)
(0 0 0)
(0 0 0)
(0 0 0)
(0 0 0)
(0 0 0)
(0 0 0)
(0 0 0)
(0 0 0)
(0 0 0)
(0 0 0)
(0 0 0)
(0 0 0)
(0 0 0)
(0 0 0)
(0 0 0)
(2.29345 -1.37141 -8.87725e-15)
(0.39905 -0.140518 -1.9119e-20)
(0.0608172 -0.00896173 -7.28023e-21)
(0.0116447 -0.00130009 2.0095e-17)
(0.00278616 -0.00015015 5.00611e-18)
(0.00100523 0.000133025 1.79196e-18)
(0.000635292 0.000196012 1.07136e-18)
(0.000661678 0.000273724 -1.02593e-18)
(0.000820919 0.000362052 1.2227e-18)
(0.000989167 0.000496107 -1.44001e-18)
(0.00115112 0.000663095 1.53968e-18)
(0.00119907 0.000752287 -1.53852e-18)
(0.00104235 0.000865756 4.62726e-18)
(0.00119034 0.00118264 -1.65516e-18)
(0.00161071 0.0015681 -1.97335e-18)
(0.00205225 0.00239475 2.63095e-18)
(0.00289209 0.0040017 -3.81271e-18)
(0.00539506 0.00579997 -5.68497e-18)
(0.00916747 0.00796505 -8.31527e-18)
(0.0121544 0.0118402 1.21569e-17)
(0.0193154 0.0224947 1.98231e-17)
(0.0408073 0.0494298 -4.12477e-17)
(0.12364 0.149149 1.11835e-16)
(0.353101 0.60277 -3.47396e-16)
(1.0519 2.7829 -3.46374e-15)
(2.99979 5.61344 -4.0926e-19)
(7.39267 4.43474 1.3324e-14)
(10.6679 6.0033 -1.15194e-14)
(21.5884 12.0312 4.64467e-14)
(34.2845 18.7408 -1.56886e-13)
(0 0 0)
(0 0 0)
(0 0 0)
(0 0 0)
(0 0 0)
(0 0 0)
(0 0 0)
(0 0 0)
(0 0 0)
(0 0 0)
(0 0 0)
(0 0 0)
(0 0 0)
(0 0 0)
(0 0 0)
(0 0 0)
(0 0 0)
(0 0 0)
(0 0 0)
(0 0 0)
(36.1988 2.34155 6.20925e-15)
(21.4527 1.00383 0)
(12.4425 0.377033 7.15317e-16)
(6.82835 0.032441 0)
(0 0 0)
(0 0 0)
(0 0 0)
(0 0 0)
(0 0 0)
(0 0 0)
(0 0 0)
(0 0 0)
(0 0 0)
(0 0 0)
(0 0 0)
(0 0 0)
(0 0 0)
(0 0 0)
(0 0 0)
(0 0 0)
(0 0 0)
(0 0 0)
(0 0 0)
(0 0 0)
(0 0 0)
(0 0 0)
(0 0 0)
(0 0 0)
(0 0 0)
(0 0 0)
(3.42266 -2.03169 2.08582e-14)
(0.531382 -0.234537 -3.06252e-20)
(0.0697035 -0.0157292 -2.33056e-21)
(0.011973 -0.0020953 -2.07436e-17)
(0.00325463 -0.000548647 5.13624e-18)
(0.00130046 -4.79542e-05 1.67977e-23)
(0.000850062 0.000136606 2.26636e-18)
(0.000824525 0.000243658 -2.2417e-18)
(0.000988678 0.000413725 1.3639e-18)
(0.00122937 0.000561081 -1.58747e-18)
(0.00132851 0.000652132 -1.60196e-18)
(0.00116823 0.00071504 -1.44358e-18)
(0.000942768 0.000647593 -2.52458e-18)
(0.000960146 0.00064278 0)
(0.00096772 0.000766129 0)
(0.00106153 0.00101484 2.59986e-18)
(0.00162439 0.00147193 1.58645e-18)
(0.0023604 0.00207911 1.99555e-18)
(0.00258679 0.00276915 -2.48895e-18)
(0.00318486 0.0035958 3.2941e-18)
(0.00593576 0.00613723 -1.18773e-21)
(0.0169628 0.0158198 1.90782e-21)
(0.0504722 0.0431163 -6.84162e-17)
(0.118687 0.123153 -7.64752e-17)
(0.245018 0.303353 -1.41726e-16)
(0.576626 0.624054 4.99135e-16)
(0.933795 0.860976 -7.8489e-16)
(1.31452 0.936788 6.0606e-16)
(1.86211 1.43219 1.09555e-19)
(2.04689 3.35815 3.34121e-15)
(3.17271 4.19622 0)
(6.47887 3.09879 4.49037e-15)
(10.5546 4.73066 5.59833e-21)
(17.5206 7.39845 2.56093e-14)
(26.2904 10.5316 0)
(39.6198 15.4051 0)
(62.2203 22.8235 3.05937e-14)
(0 0 0)
(0 0 0)
(0 0 0)
(117.315 31.5259 4.73906e-14)
(115.773 28.9044 6.70973e-14)
(90.0271 20.6208 0)
(65.4164 13.701 -6.70206e-21)
(44.836 8.44951 -1.27037e-14)
(28.9379 4.88141 0)
(18.4495 2.73856 -4.75015e-15)
(11.6953 1.50463 1.50733e-15)
(6.90916 0.720093 0)
(4.49244 -1.71329 -6.25138e-16)
(3.14453 -1.44348 0)
(2.12493 -0.303473 0)
(1.49987 -0.147147 0)
(1.0277 -0.0946136 6.05314e-18)
(0 0 0)
(0 0 0)
(0 0 0)
(0 0 0)
(0 0 0)
(0 0 0)
(0 0 0)
(0 0 0)
(0 0 0)
(0 0 0)
(0 0 0)
(0 0 0)
(0 0 0)
(0 0 0)
(0 0 0)
(0 0 0)
(0 0 0)
(0 0 0)
(0 0 0)
(0 0 0)
(0 0 0)
(0 0 0)
(0 0 0)
(0 0 0)
(0 0 0)
(0 0 0)
(4.11483 -2.44004 -1.12614e-14)
(0.626818 -0.312941 -1.63422e-15)
(0.0793423 -0.0280635 3.35626e-16)
(0.0134243 -0.00342013 0)
(0.00392877 -0.000822166 -5.44942e-18)
(0.001755 -0.000179582 2.03994e-18)
(0.00109378 5.4197e-05 -1.02518e-23)
(0.00100117 0.000175734 2.55756e-18)
(0.00134776 0.000383362 -1.53935e-18)
(0.0016752 0.000597214 -1.7731e-18)
(0.00173755 0.00074454 1.7206e-22)
(0.00147244 0.000894708 1.6213e-18)
(0.00120141 0.000878755 2.84135e-18)
(0.00109792 0.000741706 -1.27214e-18)
(0.00100852 0.000691005 1.19771e-18)
(0.00119403 0.000727627 -2.39715e-18)
(0.0014267 0.000903199 -1.2587e-18)
(0.00138056 0.00121747 2.65928e-18)
(0.00128967 0.00141762 -1.39728e-18)
(0.0018866 0.00176819 -1.67388e-18)
(0.0041 0.0028281 -3.29379e-22)
(0.0107101 0.00737549 1.29138e-17)
(0.0226433 0.0165019 1.34472e-17)
(0.0347978 0.0266252 -1.94531e-17)
(0.0498671 0.0425502 0)
(0.0807561 0.0638712 -3.25235e-17)
(0.113027 0.105668 -8.9877e-17)
(0.148614 0.159187 -7.86605e-21)
(0.193368 0.190979 -9.14944e-21)
(0.328754 0.285296 2.98021e-16)
(0.637295 0.428098 -4.27509e-16)
(0.886763 0.494968 3.00694e-16)
(1.18227 0.591985 4.24227e-16)
(1.61746 0.813202 -2.48677e-19)
(2.13477 1.06931 8.29872e-16)
(2.93229 1.49565 -1.0848e-15)
(3.55566 3.58059 -7.4151e-16)
(5.49892 4.98194 1.18582e-15)
(8.00067 2.52965 3.06264e-15)
(6.38333 -1.28879 -3.06338e-15)
(6.61337 -2.0679 -9.11081e-16)
(5.4056 0.241161 -7.87799e-16)
(4.47556 0.943846 -6.64715e-16)
(3.72626 0.879592 1.08581e-15)
(3.11272 0.559279 -4.26511e-16)
(2.44751 0.287494 0)
(1.89972 0.229948 -2.2879e-16)
(1.40785 0.257553 1.68895e-16)
(1.03431 0.176982 0)
(0.723239 0.0290413 2.48792e-20)
(0.401258 -0.0339778 -1.73826e-17)
(0.292752 -0.0380023 -1.23102e-17)
(0.217291 -0.034731 1.28841e-17)
(0.150066 -0.0340447 -2.9385e-18)
(0 0 0)
(0 0 0)
(0 0 0)
(0 0 0)
(0 0 0)
(0 0 0)
(0 0 0)
(0 0 0)
(0 0 0)
(0 0 0)
(0 0 0)
(0 0 0)
(0 0 0)
(0 0 0)
(0 0 0)
(0 0 0)
(0 0 0)
(0 0 0)
(0 0 0)
(0 0 0)
(0 0 0)
(0 0 0)
(0 0 0)
(0 0 0)
(0 0 0)
(0 0 0)
(4.32435 -2.54153 0)
(0.666089 -0.304447 7.56357e-16)
(0.0773678 -0.0370476 -1.04216e-16)
(0.0137197 -0.00527113 2.03218e-17)
(0.00476671 -0.00125431 -4.22064e-22)
(0.00226801 -0.0001447 6.31929e-18)
(0.00134775 8.77191e-05 -1.38317e-18)
(0.0013645 0.000171208 1.37368e-18)
(0.00176563 0.000366828 0)
(0.00197587 0.000601892 0)
(0.00197592 0.000729681 2.4872e-22)
(0.00164224 0.000852248 -1.73121e-18)
(0.00145866 0.00106216 -1.61676e-18)
(0.00151091 0.00113672 1.5261e-18)
(0.0016507 0.00108567 -1.46731e-18)
(0.00177921 0.000973238 1.44143e-18)
(0.00170723 0.00101217 1.43165e-18)
(0.00157104 0.00130399 -2.74188e-22)
(0.00159044 0.00135294 0)
(0.00228964 0.0014479 0)
(0.00409506 0.00221294 2.44445e-18)
(0.00690135 0.00421637 -1.30531e-17)
(0.0096164 0.00618559 -5.91407e-18)
(0.0101896 0.00554294 1.15946e-17)
(0.0108269 0.00612032 0)
(0.0118653 0.00846873 5.80786e-18)
(0.0130372 0.0134967 0)
(0.0204508 0.0251658 0)
(0.035132 0.0319158 0)
(0.0592263 0.035122 0)
(0.0847892 0.0512969 2.75503e-17)
(0.109182 0.0725954 -3.59582e-17)
(0.140742 0.0860641 -9.40781e-17)
(0.191557 0.100424 -6.23925e-17)
(0.267517 0.104373 7.97139e-17)
(0.355469 0.112788 -9.52564e-17)
(0.437759 0.175212 0)
(0.721665 0.299543 -7.64049e-17)
(0.811681 0.262284 -1.58577e-16)
(0.750739 0.146067 1.37153e-16)
(0.51774 0.0606276 0)
(0.385415 0.0620874 -6.12983e-17)
(0.334018 0.0553334 1.24253e-21)
(0.312984 0.0355831 9.29317e-17)
(0.288329 0.0217372 -3.82293e-17)
(0.243767 0.00739675 0)
(0.192113 0.00931624 1.19481e-17)
(0.146575 0.0225669 -9.45666e-18)
(0.122813 0.0293878 -1.52976e-17)
(0.101098 0.0221679 1.23222e-17)
(0.0776726 0.00204819 2.39583e-18)
(0.0587501 -0.0081607 1.8052e-18)
(0.0413367 -0.00516062 1.34191e-18)
(0.027483 -0.00188227 -1.231e-19)
(0 0 0)
(0 0 0)
(0 0 0)
(0 0 0)
(0 0 0)
(0 0 0)
(0 0 0)
(0 0 0)
(0 0 0)
(0 0 0)
(0 0 0)
(0 0 0)
(0 0 0)
(0 0 0)
(0 0 0)
(0 0 0)
(0 0 0)
(0 0 0)
(0 0 0)
(0 0 0)
(0 0 0)
(0 0 0)
(0 0 0)
(0 0 0)
(0 0 0)
(0 0 0)
(4.60731 -2.69133 2.53819e-21)
(0.636454 -0.267086 -6.77031e-16)
(0.0721144 -0.0307183 9.35684e-17)
(0.0161029 -0.00558053 1.83732e-17)
(0.00625527 -0.00133292 4.92811e-18)
(0.0027014 -0.00025434 -6.03831e-18)
(0.00150723 7.41777e-05 1.36216e-18)
(0.00157247 0.000179742 -1.34575e-18)
(0.00193198 0.000339519 2.99795e-22)
(0.00190837 0.000475721 -3.29204e-18)
(0.00173019 0.000636581 1.68367e-18)
(0.0016247 0.000756977 0)
(0.0019373 0.000931502 0)
(0.00230564 0.00121435 -1.64694e-18)
(0.0023706 0.00153331 1.63232e-18)
(0.00234822 0.00155362 0)
(0.00245715 0.00143043 0)
(0.00234936 0.00158888 -1.58425e-18)
(0.00248261 0.00181573 3.09563e-18)
(0.0032663 0.00205113 -1.04134e-22)
(0.00403334 0.00245232 -4.81727e-18)
(0.0044782 0.00282599 8.86363e-18)
(0.00433248 0.00262248 -2.69973e-18)
(0.00360197 0.00175306 -2.16142e-18)
(0.00297018 0.00146298 2.45401e-22)
(0.00241005 0.00168257 -1.5211e-18)
(0.00272062 0.00207195 0)
(0.00493994 0.00363679 4.43812e-18)
(0.00863846 0.00595313 1.2474e-22)
(0.0118761 0.00698748 -3.89397e-18)
(0.0152631 0.00853644 0)
(0.0197501 0.0116897 -1.1927e-17)
(0.0274637 0.0148614 1.48338e-17)
(0.0364093 0.0160443 9.36894e-18)
(0.0470556 0.0155661 -1.13486e-17)
(0.0523619 0.0182273 1.25845e-17)
(0.0554157 0.0224831 1.47689e-17)
(0.0710947 0.0190342 -3.51109e-17)
(0.0740058 0.0144592 1.60133e-17)
(0.0692243 0.0225598 -7.9735e-18)
(0.0582307 0.0256389 1.57017e-17)
(0.0526841 0.0168136 0)
(0.0497191 0.00705266 7.04088e-18)
(0.0476667 0.0013919 -6.15342e-18)
(0.0416218 0.000272717 5.21855e-18)
(0.0349018 0.00160525 -4.35312e-18)
(0.0252144 0.00329668 -3.61004e-18)
(0.0194535 0.00331372 4.52864e-18)
(0.0177606 0.00176001 2.57319e-18)
(0.0175653 0.000855985 -1.09532e-18)
(0.0154177 -8.24783e-05 -1.80817e-18)
(0.0116077 -0.000296282 -9.05233e-23)
(0.00839381 0.00027082 2.9231e-19)
(0.00657757 0.000417202 0)
(0 0 0)
(0 0 0)
(0 0 0)
(0 0 0)
(0 0 0)
(0 0 0)
(0 0 0)
(0 0 0)
(0 0 0)
(0 0 0)
(0 0 0)
(0 0 0)
(0 0 0)
(0 0 0)
(0 0 0)
(0 0 0)
(0 0 0)
(0 0 0)
(0 0 0)
(0 0 0)
(0 0 0)
(0 0 0)
(0 0 0)
(0 0 0)
(0 0 0)
(0 0 0)
(5.30793 -3.13338 3.63847e-14)
(0.686946 -0.329414 -6.49405e-16)
(0.0866289 -0.0217028 8.8337e-17)
(0.0221338 -0.00273709 -5.12922e-17)
(0.00735825 -0.000737021 0)
(0.00251882 -0.000268019 0)
(0.00145112 -1.72954e-05 2.45248e-18)
(0.00165889 5.17488e-05 -7.19712e-18)
(0.00172421 0.000182439 2.6602e-18)
(0.00154017 0.00038953 0)
(0.00169061 0.00054149 -1.50305e-18)
(0.00204508 0.000672983 0)
(0.0025136 0.000761918 4.75607e-18)
(0.002619 0.000944824 -1.37832e-22)
(0.00247821 0.0013188 -6.26894e-18)
(0.00268131 0.00167545 1.56288e-18)
(0.00282441 0.00175608 0)
(0.00274055 0.00163047 1.60892e-18)
(0.00320631 0.00172125 0)
(0.00341971 0.00236121 5.47731e-18)
(0.00339605 0.00295952 -6.29156e-18)
(0.00324377 0.00220269 3.75938e-18)
(0.0026594 0.00162866 0)
(0.00241085 0.00130672 0)
(0.00195157 0.000969672 -9.71313e-19)
(0.00140158 0.000870331 2.25157e-18)
(0.00157629 0.000746336 -7.10881e-19)
(0.00225406 0.00085085 1.66441e-23)
(0.00296228 0.00147223 -1.01487e-18)
(0.00363005 0.00192759 2.32852e-18)
(0.0042891 0.00208595 -1.30959e-18)
(0.00524958 0.00224516 2.98994e-18)
(0.00652532 0.00289563 -3.47795e-18)
(0.00727341 0.00334175 -4.07887e-18)
(0.00827051 0.00279612 2.26462e-18)
(0.00760027 0.00321547 -2.2425e-18)
(0.00871173 0.00421787 -2.54563e-18)
(0.0116095 0.00279436 0)
(0.00973588 0.00207608 -2.45074e-18)
(0.00956954 0.00344775 -1.32162e-18)
(0.00998676 0.00390484 0)
(0.010087 0.00314157 0)
(0.0102765 0.0013384 1.23768e-18)
(0.00932328 0.000185005 -5.90264e-22)
(0.00800297 0.000202651 1.01268e-18)
(0.00662938 0.000934517 0)
(0.00539501 0.0014633 3.92739e-19)
(0.00517158 0.000897136 3.5533e-19)
(0.00507137 0.00013158 7.97793e-23)
(0.00459228 -1.68624e-05 -3.04172e-19)
(0.00383731 0.000106762 5.44266e-19)
(0.00299845 0.000114329 -2.40155e-19)
(0.00257712 3.42168e-05 -5.41236e-20)
(0.00257314 -0.000111299 0)
(0 0 0)
(0 0 0)
(0 0 0)
(0 0 0)
(0 0 0)
(0 0 0)
(0 0 0)
(0 0 0)
(0 0 0)
(0 0 0)
(0 0 0)
(0 0 0)
(0 0 0)
(0 0 0)
(0 0 0)
(0 0 0)
(0 0 0)
(0 0 0)
(0 0 0)
(0 0 0)
(0 0 0)
(0 0 0)
(0 0 0)
(0 0 0)
(0 0 0)
(0 0 0)
(6.22124 -3.67607 -1.96806e-14)
(0.878057 -0.404462 2.00968e-15)
(0.131168 -0.0284256 1.76947e-16)
(0.0282289 -0.00239286 6.63398e-17)
(0.00678056 -0.000386014 -8.4023e-18)
(0.00217015 -7.80058e-05 -1.61099e-18)
(0.00149166 1.21543e-05 0)
(0.00151105 4.59856e-05 -1.01417e-18)
(0.00144472 0.000122047 4.582e-18)
(0.00167514 0.000304901 -3.8244e-18)
(0.00205169 0.00043016 2.72677e-18)
(0.00235816 0.000604625 -1.42732e-18)
(0.00251594 0.000713368 -7.27824e-18)
(0.00237925 0.000723639 1.42567e-18)
(0.00242848 0.000767257 4.10183e-18)
(0.00250397 0.00104255 1.34809e-18)
(0.00235178 0.00148336 -4.20118e-18)
(0.00268383 0.00160248 2.94601e-18)
(0.00305366 0.00154622 -7.64484e-18)
(0.00292035 0.00186873 4.96417e-18)
(0.00324526 0.00246044 -5.15514e-18)
(0.00303704 0.00192218 0)
(0.00259119 0.00129943 1.14874e-18)
(0.0027146 0.00138356 -2.31402e-18)
(0.00219964 0.0012757 2.99635e-23)
(0.00159534 0.000868915 1.42602e-18)
(0.00159682 0.000606379 1.1809e-18)
(0.0016927 0.000531577 -1.23967e-18)
(0.00178028 0.000640294 -6.7353e-19)
(0.00189591 0.000784864 -1.61706e-22)
(0.00198225 0.000866224 2.60857e-22)
(0.00211228 0.000865897 -1.48803e-18)
(0.00202687 0.00109034 7.92769e-19)
(0.00210213 0.00120749 -8.1918e-19)
(0.00217852 0.000882377 7.8306e-19)
(0.00175126 0.000626997 -6.56503e-19)
(0.00238157 0.000601462 7.11678e-19)
(0.00309844 0.000540668 0)
(0.00256003 0.000611162 3.30784e-22)
(0.00265726 0.000858701 -7.68757e-19)
(0.00286637 0.000972172 7.59837e-19)
(0.00270556 0.000770611 0)
(0.00294994 0.000569495 -7.16606e-19)
(0.00264087 0.000254349 -7.23657e-19)
(0.0024944 0.000159228 8.26327e-23)
(0.00218477 0.000314934 0)
(0.00223825 0.000336845 -3.17122e-19)
(0.00246192 0.000174439 -1.58481e-19)
(0.00253356 0.000203783 8.00499e-23)
(0.0023071 0.000342167 0)
(0.00203261 0.000407525 -8.08449e-20)
(0.00174383 0.000289891 0)
(0.0016831 -1.29142e-05 3.83402e-20)
(0.00176478 -0.000137099 3.86347e-20)
(0 0 0)
(0 0 0)
(0 0 0)
(0 0 0)
(0 0 0)
(0 0 0)
(0 0 0)
(0 0 0)
(0 0 0)
(0 0 0)
(0 0 0)
(0 0 0)
(0 0 0)
(0 0 0)
(0 0 0)
(0 0 0)
(0 0 0)
(0 0 0)
(0 0 0)
(0 0 0)
(0 0 0)
(0 0 0)
(0 0 0)
(0 0 0)
(0 0 0)
(0 0 0)
(7.40037 -4.36152 2.57171e-21)
(1.13378 -0.436232 -6.48963e-16)
(0.15579 -0.0375435 1.7005e-16)
(0.0271289 -0.00459182 -3.13456e-17)
(0.00625318 -0.000609821 3.83794e-18)