/*--------------------------------*- C++ -*----------------------------------*\
  =========                 |
  \\      /  F ield         | OpenFOAM: The Open Source CFD Toolbox
   \\    /   O peration     | Website:  https://openfoam.org
    \\  /    A nd           | Version:  7
     \\/     M anipulation  |
\*---------------------------------------------------------------------------*/
FoamFile
{
    version     2.0;
    format      ascii;
    class       volVectorField;
    location    "5";
    object      Ur;
}
// * * * * * * * * * * * * * * * * * * * * * * * * * * * * * * * * * * * * * //

dimensions      [0 1 -1 0 0 0 0];

internalField   uniform (0 0 0);

boundaryField
{
    innerWall
    {
        type            calculated;
        value           nonuniform List<vector> 
320
(
(-0.000149669 -0.0152446 0)
(-0.000647477 -0.0219774 0)
(-0.00215692 -0.0439051 0)
(-0.00252536 -0.0366894 0)
(-0.00327359 -0.0369529 0)
(-0.00340097 -0.0313701 0)
(-0.00444965 -0.0346749 0)
(-0.00728793 -0.0491312 0)
(-0.00708607 -0.0420628 0)
(-0.00640964 -0.0339627 0)
(-0.00751045 -0.0359113 0)
(-0.00957252 -0.0416704 0)
(-0.00917626 -0.0366337 0)
(-0.0125004 -0.046049 0)
(-0.00898828 -0.0307126 0)
(-0.00497378 -0.015835 0)
(-0.00479728 -0.0142858 0)
(-0.00505352 -0.0141236 0)
(-0.00532967 -0.0140212 0)
(-0.00560393 -0.0139139 0)
(-0.00587603 -0.0138012 0)
(-0.00614586 -0.0136831 0)
(-0.00641333 -0.0135598 0)
(-0.00667832 -0.0134313 0)
(-0.00694074 -0.0132976 0)
(-0.00720048 -0.0131588 0)
(-0.00745745 -0.0130149 0)
(-0.00771154 -0.0128659 0)
(-0.00796266 -0.012712 0)
(-0.00821071 -0.0125533 0)
(-0.0084556 -0.0123896 0)
(-0.00869722 -0.0122212 0)
(-0.00893549 -0.0120481 0)
(-0.00917032 -0.0118704 0)
(-0.00940161 -0.011688 0)
(-0.00962927 -0.0115012 0)
(-0.00985323 -0.0113099 0)
(-0.0100734 -0.0111143 0)
(-0.0102897 -0.0109143 0)
(-0.010502 -0.0107102 0)
(-0.0107102 -0.010502 0)
(-0.0109143 -0.0102897 0)
(-0.0111143 -0.0100734 0)
(-0.0113099 -0.00985323 0)
(-0.0115012 -0.00962927 0)
(-0.011688 -0.00940161 0)
(-0.0118704 -0.00917032 0)
(-0.0120481 -0.00893549 0)
(-0.0122212 -0.00869722 0)
(-0.0123896 -0.0084556 0)
(-0.0125533 -0.00821071 0)
(-0.012712 -0.00796266 0)
(-0.0128659 -0.00771154 0)
(-0.0130149 -0.00745745 0)
(-0.0131588 -0.00720048 0)
(-0.0132976 -0.00694074 0)
(-0.0134313 -0.00667832 0)
(-0.0135598 -0.00641333 0)
(-0.0136831 -0.00614586 0)
(-0.0138012 -0.00587603 0)
(-0.0139139 -0.00560393 0)
(-0.0140212 -0.00532967 0)
(-0.0141232 -0.00505335 0)
(-0.0142197 -0.00477509 0)
(-0.0143107 -0.00449498 0)
(-0.0143962 -0.00421314 0)
(-0.0144761 -0.00392968 0)
(-0.0145505 -0.00364471 0)
(-0.0146192 -0.00335832 0)
(-0.0146823 -0.00307065 0)
(-0.0147398 -0.00278179 0)
(-0.0147916 -0.00249185 0)
(-0.0148376 -0.00220096 0)
(-0.014878 -0.00190922 0)
(-0.0149126 -0.00161674 0)
(-0.0149415 -0.00132364 0)
(-0.0149646 -0.00103002 0)
(-0.0149819 -0.000736016 0)
(-0.0149935 -0.000441723 0)
(-0.0149993 -0.00014726 0)
(0.0149993 -0.00014726 0)
(0.0149935 -0.000441723 0)
(0.0149819 -0.000736016 0)
(0.0149646 -0.00103002 0)
(0.0149415 -0.00132364 0)
(0.0149126 -0.00161674 0)
(0.014878 -0.00190922 0)
(0.0148376 -0.00220096 0)
(0.0147916 -0.00249185 0)
(0.0147398 -0.00278179 0)
(0.0146823 -0.00307065 0)
(0.0146192 -0.00335832 0)
(0.0145505 -0.00364471 0)
(0.0144761 -0.00392968 0)
(0.0143962 -0.00421314 0)
(0.0143107 -0.00449498 0)
(0.0142197 -0.00477509 0)
(0.0141232 -0.00505335 0)
(0.0140212 -0.00532967 0)
(0.013914 -0.00560396 0)
(0.013825 -0.00588616 0)
(0.0141124 -0.00633867 0)
(0.0223825 -0.0105861 0)
(0.0465806 -0.0231608 0)
(0.0374148 -0.0195288 0)
(0.0374637 -0.0205002 0)
(0.0380971 -0.0218294 0)
(0.0140813 -0.00844002 0)
(0.0127129 -0.00796319 0)
(0.0125533 -0.00821071 0)
(0.0123896 -0.0084556 0)
(0.0122212 -0.00869722 0)
(0.0120481 -0.00893549 0)
(0.0118704 -0.00917032 0)
(0.011688 -0.00940161 0)
(0.0115012 -0.00962927 0)
(0.0113099 -0.00985323 0)
(0.0111143 -0.0100734 0)
(0.0109143 -0.0102897 0)
(0.0107102 -0.010502 0)
(0.0105021 -0.0107104 0)
(0.0113948 -0.0120866 0)
(0.0356927 -0.0393808 0)
(0.0279848 -0.032122 0)
(0.0228244 -0.0272614 0)
(0.0207353 -0.025778 0)
(0.0242447 -0.0313831 0)
(0.0287858 -0.0388132 0)
(0.0223519 -0.0314087 0)
(0.0212334 -0.0311125 0)
(0.0183357 -0.0280333 0)
(0.0276066 -0.0440727 0)
(0.0219332 -0.0365933 0)
(0.0195815 -0.0341739 0)
(0.00773631 -0.014138 0)
(0.00694105 -0.0132982 0)
(0.00667832 -0.0134313 0)
(0.00641333 -0.0135598 0)
(0.00614586 -0.0136831 0)
(0.00587603 -0.0138012 0)
(0.00560393 -0.0139139 0)
(0.00532967 -0.0140212 0)
(0.00505335 -0.0141232 0)
(0.00477509 -0.0142197 0)
(0.00449498 -0.0143107 0)
(0.00421314 -0.0143962 0)
(0.00392968 -0.0144761 0)
(0.00364471 -0.0145505 0)
(0.00335832 -0.0146192 0)
(0.00307065 -0.0146823 0)
(0.00278179 -0.0147398 0)
(0.00249185 -0.0147916 0)
(0.00220096 -0.0148376 0)
(0.00190922 -0.014878 0)
(0.00161674 -0.0149126 0)
(0.00132364 -0.0149415 0)
(0.00103002 -0.0149646 0)
(0.000736016 -0.0149819 0)
(0.000441723 -0.0149935 0)
(0.00014726 -0.0149993 0)
(0.00014726 0.0149993 0)
(0.000441723 0.0149935 0)
(0.000736016 0.0149819 0)
(0.00103002 0.0149646 0)
(0.00132364 0.0149415 0)
(0.00161674 0.0149126 0)
(0.00190922 0.014878 0)
(0.00220096 0.0148376 0)
(0.00249303 0.0147986 0)
(0.002986 0.0158218 0)
(0.00847716 0.0405337 0)
(0.010503 0.0457208 0)
(0.00927178 0.037015 0)
(0.0108702 0.0400437 0)
(0.0131931 0.0450804 0)
(0.0112865 0.0359329 0)
(0.0129984 0.0387078 0)
(0.014083 0.0393592 0)
(0.0135322 0.0356004 0)
(0.0124234 0.0308457 0)
(0.00926876 0.0217698 0)
(0.00631773 0.0140658 0)
(0.00642575 0.0135861 0)
(0.00667836 0.0134314 0)
(0.00694074 0.0132976 0)
(0.00720048 0.0131588 0)
(0.00745745 0.0130149 0)
(0.00771154 0.0128659 0)
(0.00796266 0.012712 0)
(0.00821071 0.0125533 0)
(0.0084556 0.0123896 0)
(0.00869722 0.0122212 0)
(0.00893549 0.0120481 0)
(0.00917032 0.0118704 0)
(0.00940161 0.011688 0)
(0.00962927 0.0115012 0)
(0.00985323 0.0113099 0)
(0.0100734 0.0111143 0)
(0.0102897 0.0109143 0)
(0.010502 0.0107102 0)
(0.0107102 0.010502 0)
(0.0109143 0.0102897 0)
(0.0111143 0.0100734 0)
(0.0113099 0.00985323 0)
(0.0115012 0.00962927 0)
(0.011688 0.00940161 0)
(0.0118704 0.00917032 0)
(0.0120481 0.00893549 0)
(0.0122212 0.00869722 0)
(0.0123896 0.0084556 0)
(0.0125533 0.00821071 0)
(0.012712 0.00796266 0)
(0.0128659 0.00771154 0)
(0.0130149 0.00745745 0)
(0.0131588 0.00720048 0)
(0.0132976 0.00694074 0)
(0.0134313 0.00667832 0)
(0.0135598 0.00641333 0)
(0.0136831 0.00614586 0)
(0.0138012 0.00587603 0)
(0.0139139 0.00560393 0)
(0.0140212 0.00532967 0)
(0.0141232 0.00505335 0)
(0.0142197 0.00477509 0)
(0.0143107 0.00449498 0)
(0.0143962 0.00421314 0)
(0.0144761 0.00392968 0)
(0.0145505 0.00364471 0)
(0.0146192 0.00335832 0)
(0.0146823 0.00307065 0)
(0.0147398 0.00278179 0)
(0.0147916 0.00249185 0)
(0.0148376 0.00220096 0)
(0.014878 0.00190922 0)
(0.0149126 0.00161674 0)
(0.0149415 0.00132364 0)
(0.0149646 0.00103002 0)
(0.0149819 0.000736016 0)
(0.0149935 0.000441723 0)
(0.0149993 0.00014726 0)
(-0.0149993 0.00014726 0)
(-0.0149935 0.000441723 0)
(-0.0149819 0.000736016 0)
(-0.0149646 0.00103002 0)
(-0.0149415 0.00132364 0)
(-0.0149126 0.00161674 0)
(-0.014878 0.00190922 0)
(-0.0148376 0.00220096 0)
(-0.0147916 0.00249185 0)
(-0.0147398 0.00278179 0)
(-0.0146823 0.00307065 0)
(-0.0146192 0.00335832 0)
(-0.0145505 0.00364471 0)
(-0.0144761 0.00392968 0)
(-0.0143962 0.00421314 0)
(-0.0143107 0.00449498 0)
(-0.0142197 0.00477509 0)
(-0.0141232 0.00505335 0)
(-0.0140212 0.00532967 0)
(-0.0139139 0.00560393 0)
(-0.0138012 0.00587603 0)
(-0.0136831 0.00614586 0)
(-0.0135598 0.00641333 0)
(-0.0134313 0.00667832 0)
(-0.0132976 0.00694074 0)
(-0.0131588 0.00720048 0)
(-0.0130149 0.00745745 0)
(-0.0128659 0.00771154 0)
(-0.012712 0.00796266 0)
(-0.0125533 0.00821071 0)
(-0.0123896 0.0084556 0)
(-0.0126531 0.00900453 0)
(-0.0229878 0.017049 0)
(-0.0339487 0.0262267 0)
(-0.0269831 0.0217047 0)
(-0.0266048 0.0222747 0)
(-0.0350761 0.0305584 0)
(-0.0416515 0.0377507 0)
(-0.0241778 0.022794 0)
(-0.0304388 0.029847 0)
(-0.0261194 0.0266374 0)
(-0.0220037 0.0233396 0)
(-0.0107278 0.0118363 0)
(-0.00986468 0.011323 0)
(-0.0096294 0.0115013 0)
(-0.00940161 0.011688 0)
(-0.00917032 0.0118704 0)
(-0.00893549 0.0120481 0)
(-0.00869722 0.0122212 0)
(-0.0084556 0.0123896 0)
(-0.00821071 0.0125533 0)
(-0.00796266 0.012712 0)
(-0.00771154 0.0128659 0)
(-0.00745745 0.0130149 0)
(-0.00720048 0.0131588 0)
(-0.00694074 0.0132976 0)
(-0.00667832 0.0134313 0)
(-0.00641333 0.0135598 0)
(-0.00614586 0.0136831 0)
(-0.00587603 0.0138012 0)
(-0.00560393 0.0139139 0)
(-0.00532967 0.0140212 0)
(-0.00505335 0.0141232 0)
(-0.00477509 0.0142197 0)
(-0.00449498 0.0143107 0)
(-0.00421314 0.0143962 0)
(-0.00392968 0.0144761 0)
(-0.00364471 0.0145505 0)
(-0.00335832 0.0146192 0)
(-0.00307065 0.0146823 0)
(-0.00278179 0.0147398 0)
(-0.00249185 0.0147916 0)
(-0.00220096 0.0148376 0)
(-0.00190922 0.014878 0)
(-0.00161674 0.0149126 0)
(-0.00132364 0.0149415 0)
(-0.00103002 0.0149646 0)
(-0.000736016 0.0149819 0)
(-0.000441723 0.0149935 0)
(-0.00014726 0.0149993 0)
)
;
    }
    outerWall
    {
        type            calculated;
        value           uniform (0 0 0);
    }
    frontAndBack
    {
        type            empty;
    }
}


// ************************************************************************* //
