/*--------------------------------*- C++ -*----------------------------------*\
  =========                 |
  \\      /  F ield         | OpenFOAM: The Open Source CFD Toolbox
   \\    /   O peration     | Website:  https://openfoam.org
    \\  /    A nd           | Version:  7
     \\/     M anipulation  |
\*---------------------------------------------------------------------------*/
FoamFile
{
    version     2.0;
    format      ascii;
    class       volVectorField;
    location    "5";
    object      Us;
}
// * * * * * * * * * * * * * * * * * * * * * * * * * * * * * * * * * * * * * //

dimensions      [0 1 -1 0 0 0 0];

internalField   nonuniform List<vector> 
49920
(
(-1.15291e-10 -1.29728e-10 0)
(-7.18328e-11 -5.33939e-12 0)
(-4.92567e-11 2.99993e-11 0)
(-3.3663e-11 4.28237e-11 0)
(-1.98348e-11 4.72485e-11 0)
(-1.05606e-11 4.68676e-11 0)
(-3.71909e-12 4.68748e-11 0)
(2.23158e-12 4.60135e-11 0)
(8.01312e-12 4.77375e-11 0)
(1.57983e-11 4.97577e-11 0)
(2.50904e-11 4.87511e-11 0)
(3.64843e-11 4.36064e-11 0)
(4.90269e-11 3.19734e-11 0)
(6.00504e-11 1.09612e-11 0)
(6.11573e-11 -2.76327e-11 0)
(5.51685e-11 -1.23874e-10 0)
(-4.17442e-11 -2.29447e-10 0)
(4.00132e-09 7.11629e-09 0)
(8.13398e-08 5.32708e-08 0)
(2.65632e-07 1.22306e-07 0)
(5.35019e-07 1.91973e-07 0)
(8.58195e-07 2.48901e-07 0)
(1.20392e-06 2.85016e-07 0)
(1.54233e-06 2.95852e-07 0)
(1.84795e-06 2.81411e-07 0)
(2.10523e-06 2.47682e-07 0)
(2.31599e-06 2.07802e-07 0)
(2.50738e-06 1.82428e-07 0)
(2.73979e-06 1.99999e-07 0)
(3.11439e-06 2.98731e-07 0)
(3.77994e-06 5.31809e-07 0)
(4.93567e-06 9.74414e-07 0)
(6.82459e-06 1.72755e-06 0)
(9.71067e-06 2.91453e-06 0)
(1.38391e-05 4.67079e-06 0)
(1.93885e-05 7.12808e-06 0)
(2.64291e-05 1.03941e-05 0)
(3.48983e-05 1.45312e-05 0)
(4.4605e-05 1.95411e-05 0)
(5.52605e-05 2.53607e-05 0)
(6.65235e-05 3.18671e-05 0)
(7.80447e-05 3.88902e-05 0)
(8.94996e-05 4.62273e-05 0)
(0.000100607 5.36602e-05 0)
(0.000111136 6.09727e-05 0)
(0.000120904 6.79673e-05 0)
(0.000129769 7.44786e-05 0)
(0.00013763 8.03828e-05 0)
(0.000144423 8.56031e-05 0)
(0.000150142 9.01147e-05 0)
(0.000154845 9.39478e-05 0)
(0.00015866 9.71857e-05 0)
(0.000161766 9.9948e-05 0)
(0.000164356 0.000102363 0)
(0.000166596 0.000104539 0)
(0.000168597 0.000106543 0)
(0.000170401 0.000108396 0)
(0.000171988 0.000110073 0)
(0.000173296 0.000111525 0)
(0.000174237 0.000112687 0)
(0.000174718 0.000113499 0)
(0.000174655 0.000113911 0)
(0.000173974 0.000113887 0)
(0.0001726 0.000113394 0)
(0.000170448 0.000112398 0)
(0.000167422 0.000110858 0)
(0.000163414 0.000108727 0)
(0.000158325 0.00010596 0)
(0.000152084 0.000102524 0)
(0.000144676 9.8407e-05 0)
(0.000136159 9.36269e-05 0)
(0.000126666 8.82307e-05 0)
(0.000116395 8.22931e-05 0)
(0.000105586 7.59112e-05 0)
(9.45043e-05 6.91996e-05 0)
(8.34123e-05 6.22857e-05 0)
(7.25574e-05 5.53049e-05 0)
(6.21603e-05 4.83958e-05 0)
(5.24087e-05 4.16953e-05 0)
(4.34527e-05 3.53318e-05 0)
(-9.9069e-07 2.79705e-07 0)
(-1.86535e-10 4.81915e-11 0)
(-1.16717e-10 8.25916e-11 0)
(-8.20283e-11 1.04196e-10 0)
(-5.12421e-11 1.19227e-10 0)
(-2.56464e-11 1.20009e-10 0)
(-5.29868e-12 1.1967e-10 0)
(7.98094e-12 1.15233e-10 0)
(1.82361e-11 1.21018e-10 0)
(3.87418e-11 1.31747e-10 0)
(6.51596e-11 1.27694e-10 0)
(9.29183e-11 1.11543e-10 0)
(1.19729e-10 8.0135e-11 0)
(1.42186e-10 3.10358e-11 0)
(1.61918e-10 -3.31942e-11 0)
(1.89854e-10 -1.45642e-10 0)
(1.85017e-10 -2.2979e-10 0)
(1.54303e-07 7.80992e-08 0)
(6.53371e-07 2.90829e-07 0)
(1.4866e-06 5.75767e-07 0)
(2.53274e-06 8.43797e-07 0)
(3.67311e-06 1.0403e-06 0)
(4.81787e-06 1.14339e-06 0)
(5.90751e-06 1.15356e-06 0)
(6.91493e-06 1.08981e-06 0)
(7.85226e-06 9.90111e-07 0)
(8.78276e-06 9.13913e-07 0)
(9.83835e-06 9.45916e-07 0)
(1.12442e-05 1.20332e-06 0)
(1.33452e-05 1.84833e-06 0)
(1.66143e-05 3.10172e-06 0)
(2.16056e-05 5.24184e-06 0)
(2.88346e-05 8.56884e-06 0)
(3.86186e-05 1.33329e-05 0)
(5.09431e-05 1.96525e-05 0)
(6.54163e-05 2.74559e-05 0)
(8.13326e-05 3.64728e-05 0)
(9.7821e-05 4.6284e-05 0)
(0.000114022 5.6409e-05 0)
(0.000129229 6.63954e-05 0)
(0.000142957 7.58745e-05 0)
(0.000154948 8.45816e-05 0)
(0.000165134 9.23515e-05 0)
(0.000173588 9.91053e-05 0)
(0.000180465 0.000104835 0)
(0.000185963 0.00010959 0)
(0.000190285 0.00011346 0)
(0.000193622 0.000116565 0)
(0.000196144 0.000119039 0)
(0.000198003 0.00012102 0)
(0.00019934 0.00012264 0)
(0.000200285 0.000124015 0)
(0.000200953 0.000125234 0)
(0.000201437 0.000126352 0)
(0.000201804 0.000127391 0)
(0.000202091 0.00012835 0)
(0.000202311 0.000129211 0)
(0.000202462 0.000129953 0)
(0.000202533 0.00013056 0)
(0.000202511 0.000131026 0)
(0.000202389 0.000131354 0)
(0.000202159 0.000131555 0)
(0.000201815 0.00013164 0)
(0.000201346 0.000131618 0)
(0.000200731 0.000131488 0)
(0.000199932 0.000131241 0)
(0.00019889 0.000130853 0)
(0.000197519 0.000130284 0)
(0.000195701 0.000129479 0)
(0.00019329 0.000128364 0)
(0.000190115 0.000126855 0)
(0.000186 0.000124853 0)
(0.000180782 0.000122259 0)
(0.000174329 0.000118978 0)
(0.000166561 0.000114924 0)
(0.000157461 0.000110038 0)
(0.000147084 0.000104291 0)
(0.000135558 9.7697e-05 0)
(0.000123088 9.03184e-05 0)
(0.000109948 8.22719e-05 0)
(-6.28144e-07 1.14636e-06 0)
(1.0885e-08 8.78282e-07 0)
(-2.21908e-10 2.50953e-10 0)
(-1.2978e-10 1.74905e-10 0)
(-7.63029e-11 2.0177e-10 0)
(-3.22673e-11 2.0061e-10 0)
(3.38291e-12 2.09367e-10 0)
(1.625e-11 1.88479e-10 0)
(1.25721e-11 1.98673e-10 0)
(4.79914e-11 1.97798e-10 0)
(9.32851e-11 1.8985e-10 0)
(1.36637e-10 1.6452e-10 0)
(1.8302e-10 1.23812e-10 0)
(2.34012e-10 5.6384e-11 0)
(3.0384e-10 -1.74434e-11 0)
(3.15163e-10 -1.41577e-10 0)
(2.83015e-07 1.48329e-07 0)
(1.16586e-06 5.96243e-07 0)
(2.66653e-06 1.24799e-06 0)
(4.56441e-06 1.88497e-06 0)
(6.6267e-06 2.36224e-06 0)
(8.6965e-06 2.63497e-06 0)
(1.06917e-05 2.7179e-06 0)
(1.25929e-05 2.65923e-06 0)
(1.44415e-05 2.53477e-06 0)
(1.6349e-05 2.45326e-06 0)
(1.85178e-05 2.56779e-06 0)
(2.12697e-05 3.09217e-06 0)
(2.50745e-05 4.31883e-06 0)
(3.05475e-05 6.62403e-06 0)
(3.83667e-05 1.04318e-05 0)
(4.90807e-05 1.6114e-05 0)
(6.28621e-05 2.38461e-05 0)
(7.93339e-05 3.34879e-05 0)
(9.75789e-05 4.45577e-05 0)
(0.000116342 5.63239e-05 0)
(0.000134339 6.79828e-05 0)
(0.000150546 7.88518e-05 0)
(0.000164355 8.84914e-05 0)
(0.000175571 9.67185e-05 0)
(0.000184313 0.000103542 0)
(0.000190887 0.000109079 0)
(0.000195678 0.000113495 0)
(0.000199078 0.000116965 0)
(0.000201439 0.000119658 0)
(0.000203055 0.000121732 0)
(0.000204151 0.00012333 0)
(0.000204891 0.00012458 0)
(0.000205384 0.000125596 0)
(0.000205703 0.000126472 0)
(0.000205896 0.000127279 0)
(0.000205995 0.000128062 0)
(0.000206024 0.000128836 0)
(0.000205999 0.000129595 0)
(0.000205932 0.000130317 0)
(0.00020583 0.000130971 0)
(0.000205696 0.000131532 0)
(0.000205528 0.000131985 0)
(0.000205326 0.000132328 0)
(0.000205091 0.00013257 0)
(0.000204822 0.000132727 0)
(0.000204522 0.000132818 0)
(0.000204194 0.000132857 0)
(0.000203839 0.000132859 0)
(0.000203454 0.000132832 0)
(0.000203036 0.00013278 0)
(0.000202574 0.000132704 0)
(0.00020205 0.000132597 0)
(0.000201434 0.000132447 0)
(0.000200676 0.000132232 0)
(0.000199702 0.000131916 0)
(0.000198409 0.000131446 0)
(0.000196661 0.000130751 0)
(0.000194292 0.000129739 0)
(0.000191115 0.000128299 0)
(0.000186932 0.000126302 0)
(0.000181548 0.000123613 0)
(0.000174795 0.0001201 0)
(0.000166545 0.000115647 0)
(0.000156742 0.000110171 0)
(-6.25223e-07 3.33256e-06 0)
(-1.08473e-07 1.76181e-06 0)
(5.84425e-09 4.37695e-09 0)
(-9.32586e-11 4.83153e-10 0)
(-9.99629e-10 9.02988e-09 0)
(7.31503e-09 1.05087e-07 0)
(1.1295e-08 8.71019e-08 0)
(1.63105e-08 9.58427e-08 0)
(-3.57423e-10 1.16096e-08 0)
(3.95228e-11 2.76903e-10 0)
(1.16788e-10 2.58026e-10 0)
(1.85691e-10 2.2314e-10 0)
(3.0678e-10 2.09535e-10 0)
(4.78197e-10 1.64779e-10 0)
(4.71487e-10 5.0306e-12 0)
(5.75949e-07 3.21271e-07 0)
(2.11549e-06 1.17425e-06 0)
(4.54223e-06 2.35717e-06 0)
(7.48826e-06 3.4999e-06 0)
(1.06054e-05 4.3558e-06 0)
(1.36884e-05 4.85979e-06 0)
(1.66587e-05 5.05595e-06 0)
(1.95283e-05 5.03786e-06 0)
(2.23857e-05 4.93057e-06 0)
(2.54024e-05 4.89843e-06 0)
(2.88559e-05 5.16524e-06 0)
(3.3159e-05 6.0396e-06 0)
(3.88793e-05 7.93504e-06 0)
(4.67101e-05 1.13596e-05 0)
(5.73387e-05 1.68358e-05 0)
(7.11939e-05 2.47284e-05 0)
(8.81516e-05 3.50316e-05 0)
(0.000107379 4.72395e-05 0)
(0.000127454 6.0406e-05 0)
(0.000146738 7.33874e-05 0)
(0.00016382 8.516e-05 0)
(0.000177842 9.50779e-05 0)
(0.000188582 0.000102961 0)
(0.000196307 0.000108992 0)
(0.000201537 0.000113522 0)
(0.000204851 0.000116914 0)
(0.000206775 0.000119468 0)
(0.000207749 0.000121411 0)
(0.000208113 0.000122903 0)
(0.000208123 0.000124066 0)
(0.00020796 0.000124992 0)
(0.000207744 0.000125759 0)
(0.000207544 0.000126435 0)
(0.000207391 0.000127072 0)
(0.000207285 0.000127709 0)
(0.00020721 0.000128368 0)
(0.000207141 0.000129049 0)
(0.000207055 0.000129739 0)
(0.000206939 0.000130411 0)
(0.000206788 0.00013103 0)
(0.000206603 0.000131565 0)
(0.000206386 0.000131996 0)
(0.000206142 0.000132317 0)
(0.000205873 0.000132537 0)
(0.000205581 0.000132673 0)
(0.000205269 0.000132744 0)
(0.00020494 0.00013277 0)
(0.000204595 0.000132763 0)
(0.000204236 0.000132736 0)
(0.000203865 0.000132695 0)
(0.000203481 0.000132646 0)
(0.000203083 0.000132592 0)
(0.000202669 0.000132535 0)
(0.000202233 0.000132473 0)
(0.000201768 0.000132405 0)
(0.000201255 0.000132324 0)
(0.00020067 0.000132216 0)
(0.000199967 0.000132061 0)
(0.000199081 0.000131823 0)
(0.00019792 0.000131452 0)
(0.000196359 0.000130876 0)
(0.000194239 0.000129999 0)
(0.000191368 0.000128704 0)
(0.000187522 0.00012685 0)
(0.000182461 0.000124284 0)
(-8.33186e-07 8.02229e-06 0)
(-9.03815e-08 5.27714e-06 0)
(1.30354e-07 2.25816e-06 0)
(-2.63399e-09 2.79554e-09 0)
(-5.43076e-08 2.67135e-08 0)
(-2.48952e-08 1.72987e-07 0)
(2.09472e-08 1.16221e-07 0)
(6.59672e-08 1.33163e-07 0)
(5.1337e-08 1.58549e-08 0)
(4.66268e-09 7.72165e-09 0)
(9.39244e-10 1.65845e-09 0)
(5.06465e-10 8.24234e-10 0)
(8.19482e-10 1.25919e-09 0)
(7.103e-10 2.2147e-10 0)
(1.26442e-06 7.81011e-07 0)
(3.85762e-06 2.36241e-06 0)
(7.46462e-06 4.2482e-06 0)
(1.15669e-05 5.94223e-06 0)
(1.57595e-05 7.1757e-06 0)
(1.98426e-05 7.90621e-06 0)
(2.37756e-05 8.22133e-06 0)
(2.76202e-05 8.26373e-06 0)
(3.1517e-05 8.20752e-06 0)
(3.56923e-05 8.26933e-06 0)
(4.04838e-05 8.73637e-06 0)
(4.63687e-05 9.99836e-06 0)
(5.39725e-05 1.25659e-05 0)
(6.4013e-05 1.70412e-05 0)
(7.71237e-05 2.39925e-05 0)
(9.35501e-05 3.37172e-05 0)
(0.000112829 4.59735e-05 0)
(0.000133678 5.98666e-05 0)
(0.000154263 7.40305e-05 0)
(0.000172744 8.70455e-05 0)
(0.00018781 9.7868e-05 0)
(0.000198966 0.000106077 0)
(0.00020648 0.000111864 0)
(0.000211067 0.000115783 0)
(0.000213529 0.000118442 0)
(0.000214542 0.000120315 0)
(0.000214609 0.000121709 0)
(0.000214079 0.000122803 0)
(0.000213204 0.000123699 0)
(0.000212168 0.000124459 0)
(0.000211109 0.000125125 0)
(0.000210132 0.000125732 0)
(0.000209305 0.000126314 0)
(0.000208661 0.000126901 0)
(0.000208201 0.000127514 0)
(0.000207898 0.00012816 0)
(0.000207706 0.000128833 0)
(0.000207573 0.000129517 0)
(0.000207452 0.000130186 0)
(0.000207312 0.000130809 0)
(0.000207138 0.000131353 0)
(0.000206929 0.000131795 0)
(0.000206687 0.000132125 0)
(0.000206417 0.000132348 0)
(0.000206125 0.000132482 0)
(0.000205813 0.000132547 0)
(0.000205484 0.000132563 0)
(0.000205142 0.000132545 0)
(0.000204788 0.000132507 0)
(0.000204422 0.000132456 0)
(0.000204047 0.000132398 0)
(0.000203661 0.000132335 0)
(0.000203266 0.000132272 0)
(0.00020286 0.00013221 0)
(0.000202443 0.00013215 0)
(0.000202013 0.000132093 0)
(0.000201568 0.000132039 0)
(0.000201103 0.000131987 0)
(0.000200608 0.000131934 0)
(0.000200069 0.000131872 0)
(0.00019946 0.000131788 0)
(0.000198741 0.000131662 0)
(0.000197852 0.000131456 0)
(0.000196703 0.000131121 0)
(0.000195168 0.000130582 0)
(0.000193072 0.00012974 0)
(-1.5131e-06 1.56524e-05 0)
(-3.73807e-07 1.26102e-05 0)
(2.79858e-07 9.22319e-06 0)
(3.49175e-07 5.8805e-06 0)
(2.05034e-07 4.21026e-06 0)
(3.87583e-07 3.39137e-06 0)
(6.03071e-07 2.78779e-06 0)
(7.54708e-07 2.26229e-06 0)
(7.622e-07 1.63358e-06 0)
(5.15477e-07 8.51582e-07 0)
(6.09093e-09 1.50931e-09 0)
(1.30317e-09 1.09242e-09 0)
(5.87196e-07 3.55196e-07 0)
(3.10721e-06 2.21258e-06 0)
(7.02441e-06 4.83466e-06 0)
(1.17948e-05 7.42006e-06 0)
(1.68855e-05 9.52225e-06 0)
(2.19513e-05 1.09853e-05 0)
(2.68592e-05 1.18451e-05 0)
(3.16255e-05 1.2235e-05 0)
(3.63587e-05 1.23316e-05 0)
(4.12382e-05 1.2341e-05 0)
(4.65241e-05 1.25157e-05 0)
(5.25836e-05 1.3187e-05 0)
(5.99166e-05 1.48006e-05 0)
(6.9155e-05 1.79317e-05 0)
(8.09886e-05 2.32393e-05 0)
(9.59619e-05 3.13048e-05 0)
(0.000114136 4.23387e-05 0)
(0.000134749 5.58638e-05 0)
(0.000156155 7.06244e-05 0)
(0.000176237 8.49076e-05 0)
(0.00019313 9.71539e-05 0)
(0.000205802 0.000106472 0)
(0.000214209 0.000112792 0)
(0.000219066 0.000116678 0)
(0.00022141 0.00011896 0)
(0.000222163 0.000120354 0)
(0.00022195 0.00012131 0)
(0.000221129 0.000122058 0)
(0.000219907 0.000122708 0)
(0.000218413 0.000123309 0)
(0.000216756 0.000123889 0)
(0.000215041 0.000124462 0)
(0.000213377 0.000125041 0)
(0.000211861 0.000125639 0)
(0.000210573 0.000126272 0)
(0.000209559 0.000126951 0)
(0.000208828 0.000127674 0)
(0.000208348 0.000128423 0)
(0.000208057 0.000129169 0)
(0.000207876 0.000129881 0)
(0.000207735 0.000130532 0)
(0.000207583 0.000131098 0)
(0.000207399 0.000131558 0)
(0.000207175 0.000131903 0)
(0.000206918 0.000132135 0)
(0.000206632 0.000132271 0)
(0.000206325 0.000132332 0)
(0.000206 0.000132341 0)
(0.000205661 0.000132314 0)
(0.00020531 0.000132265 0)
(0.000204947 0.000132202 0)
(0.000204575 0.000132131 0)
(0.000204193 0.000132057 0)
(0.000203801 0.000131981 0)
(0.000203401 0.000131907 0)
(0.000202991 0.000131835 0)
(0.000202572 0.000131767 0)
(0.000202143 0.000131704 0)
(0.000201703 0.000131647 0)
(0.000201252 0.000131596 0)
(0.000200786 0.000131552 0)
(0.000200303 0.000131514 0)
(0.000199798 0.00013148 0)
(0.000199262 0.000131448 0)
(0.00019868 0.00013141 0)
(0.000198028 0.000131353 0)
(0.000197265 0.000131253 0)
(0.000196323 0.000131077 0)
(-2.71739e-06 2.52333e-05 0)
(-1.09119e-06 2.25647e-05 0)
(1.89463e-07 1.96282e-05 0)
(1.00662e-06 1.65827e-05 0)
(1.54999e-06 1.39771e-05 0)
(2.17452e-06 1.2008e-05 0)
(2.85737e-06 1.04327e-05 0)
(3.50897e-06 9.00066e-06 0)
(4.05801e-06 7.55767e-06 0)
(4.41673e-06 6.06228e-06 0)
(4.63587e-06 4.95147e-06 0)
(5.66398e-06 5.22669e-06 0)
(8.17955e-06 6.92879e-06 0)
(1.25153e-05 9.72675e-06 0)
(1.7731e-05 1.24083e-05 0)
(2.32464e-05 1.44901e-05 0)
(2.8764e-05 1.58986e-05 0)
(3.41953e-05 1.67186e-05 0)
(3.9582e-05 1.70969e-05 0)
(4.50466e-05 1.72117e-05 0)
(5.07773e-05 1.72732e-05 0)
(5.70372e-05 1.75441e-05 0)
(6.41878e-05 1.83727e-05 0)
(7.27093e-05 2.02281e-05 0)
(8.31934e-05 2.37136e-05 0)
(9.62635e-05 2.95144e-05 0)
(0.000112367 3.82172e-05 0)
(0.000131423 4.99747e-05 0)
(0.000152462 6.41356e-05 0)
(0.000173586 7.91493e-05 0)
(0.000192506 9.30192e-05 0)
(0.000207447 0.000104123 0)
(0.000217767 0.000111814 0)
(0.000223906 0.000116425 0)
(0.000226919 0.000118845 0)
(0.000227976 0.000120039 0)
(0.000227972 0.000120693 0)
(0.00022739 0.000121149 0)
(0.000226428 0.000121547 0)
(0.000225164 0.000121947 0)
(0.000223636 0.000122372 0)
(0.000221875 0.000122833 0)
(0.00021993 0.000123337 0)
(0.000217872 0.000123892 0)
(0.0002158 0.000124508 0)
(0.00021383 0.000125197 0)
(0.00021208 0.000125968 0)
(0.000210644 0.000126817 0)
(0.000209572 0.000127719 0)
(0.000208856 0.00012862 0)
(0.000208427 0.000129463 0)
(0.000208178 0.000130205 0)
(0.000208005 0.000130826 0)
(0.000207836 0.000131317 0)
(0.000207637 0.00013168 0)
(0.0002074 0.000131923 0)
(0.000207128 0.000132062 0)
(0.00020683 0.000132121 0)
(0.000206511 0.000132123 0)
(0.000206177 0.000132086 0)
(0.000205829 0.000132025 0)
(0.00020547 0.000131951 0)
(0.0002051 0.000131868 0)
(0.000204721 0.000131781 0)
(0.000204332 0.000131692 0)
(0.000203935 0.000131604 0)
(0.000203528 0.000131519 0)
(0.000203112 0.000131437 0)
(0.000202687 0.00013136 0)
(0.000202252 0.000131288 0)
(0.000201808 0.000131223 0)
(0.000201353 0.000131165 0)
(0.000200888 0.000131115 0)
(0.000200409 0.000131074 0)
(0.000199917 0.000131042 0)
(0.000199409 0.000131019 0)
(0.00019888 0.000131005 0)
(0.000198326 0.000130998 0)
(0.000197737 0.000130995 0)
(0.000197095 0.000130989 0)
(-4.19143e-06 3.55049e-05 0)
(-1.99992e-06 3.32905e-05 0)
(-4.60777e-09 3.08895e-05 0)
(1.74932e-06 2.83668e-05 0)
(3.33242e-06 2.58505e-05 0)
(4.88121e-06 2.3537e-05 0)
(6.46145e-06 2.14632e-05 0)
(8.07632e-06 1.95674e-05 0)
(9.72265e-06 1.7837e-05 0)
(1.14226e-05 1.64123e-05 0)
(1.33436e-05 1.57315e-05 0)
(1.60033e-05 1.62045e-05 0)
(1.98213e-05 1.76612e-05 0)
(2.46225e-05 1.94345e-05 0)
(2.99439e-05 2.09234e-05 0)
(3.54947e-05 2.1952e-05 0)
(4.11637e-05 2.25451e-05 0)
(4.69638e-05 2.28049e-05 0)
(5.29914e-05 2.28757e-05 0)
(5.94111e-05 2.29438e-05 0)
(6.64612e-05 2.32566e-05 0)
(7.44689e-05 2.41511e-05 0)
(8.38636e-05 2.60864e-05 0)
(9.51662e-05 2.96584e-05 0)
(0.000108916 3.55531e-05 0)
(0.000125477 4.43704e-05 0)
(0.0001447 5.62702e-05 0)
(0.000165528 7.05387e-05 0)
(0.000185922 8.54335e-05 0)
(0.000203469 9.87109e-05 0)
(0.000216493 0.000108681 0)
(0.000224745 0.000114941 0)
(0.000229146 0.000118209 0)
(0.000231017 0.000119628 0)
(0.000231501 0.000120187 0)
(0.00023135 0.000120458 0)
(0.000230882 0.000120657 0)
(0.000230182 0.000120862 0)
(0.000229264 0.000121102 0)
(0.000228117 0.000121387 0)
(0.000226722 0.000121721 0)
(0.000225063 0.000122111 0)
(0.000223139 0.000122565 0)
(0.00022098 0.000123103 0)
(0.00021866 0.00012375 0)
(0.000216298 0.000124529 0)
(0.000214056 0.000125453 0)
(0.0002121 0.000126509 0)
(0.000210564 0.000127639 0)
(0.000209503 0.00012874 0)
(0.000208863 0.000129707 0)
(0.000208505 0.00013048 0)
(0.00020828 0.000131056 0)
(0.000208083 0.000131459 0)
(0.000207864 0.000131719 0)
(0.000207611 0.000131862 0)
(0.000207327 0.000131918 0)
(0.000207017 0.000131912 0)
(0.000206689 0.000131865 0)
(0.000206347 0.000131794 0)
(0.000205992 0.000131707 0)
(0.000205627 0.000131611 0)
(0.000205251 0.000131511 0)
(0.000204866 0.000131409 0)
(0.000204471 0.000131308 0)
(0.000204066 0.000131208 0)
(0.000203653 0.000131112 0)
(0.000203231 0.00013102 0)
(0.000202799 0.000130933 0)
(0.000202358 0.000130852 0)
(0.000201907 0.000130778 0)
(0.000201446 0.000130711 0)
(0.000200974 0.000130653 0)
(0.000200491 0.000130604 0)
(0.000199996 0.000130564 0)
(0.000199486 0.000130535 0)
(0.000198962 0.000130517 0)
(0.00019842 0.000130511 0)
(0.000197858 0.000130517 0)
(0.000197271 0.000130536 0)
(-5.70738e-06 4.58504e-05 0)
(-2.88586e-06 4.39145e-05 0)
(-1.50807e-07 4.18378e-05 0)
(2.49028e-06 3.96561e-05 0)
(5.06808e-06 3.74184e-05 0)
(7.63935e-06 3.52174e-05 0)
(1.02582e-05 3.31355e-05 0)
(1.29655e-05 3.12299e-05 0)
(1.58038e-05 2.95827e-05 0)
(1.88446e-05 2.83473e-05 0)
(2.22265e-05 2.7717e-05 0)
(2.61436e-05 2.77297e-05 0)
(3.07023e-05 2.81777e-05 0)
(3.57961e-05 2.87211e-05 0)
(4.12841e-05 2.91309e-05 0)
(4.70813e-05 2.93374e-05 0)
(5.318e-05 2.93677e-05 0)
(5.96441e-05 2.93104e-05 0)
(6.66032e-05 2.93104e-05 0)
(7.4257e-05 2.95796e-05 0)
(8.2884e-05 3.04208e-05 0)
(9.28483e-05 3.22548e-05 0)
(0.000104589 3.56384e-05 0)
(0.000118559 4.12342e-05 0)
(0.000135068 4.9663e-05 0)
(0.000153975 6.11645e-05 0)
(0.000174268 7.51046e-05 0)
(0.000193882 8.96909e-05 0)
(0.000210281 0.000102461 0)
(0.000221771 0.000111561 0)
(0.000228401 0.000116744 0)
(0.00023152 0.000119072 0)
(0.000232673 0.000119878 0)
(0.000232935 0.000120108 0)
(0.000232868 0.000120202 0)
(0.000232658 0.000120275 0)
(0.000232323 0.000120363 0)
(0.000231843 0.000120488 0)
(0.000231196 0.000120656 0)
(0.000230354 0.000120866 0)
(0.000229279 0.000121118 0)
(0.000227927 0.000121416 0)
(0.000226258 0.000121777 0)
(0.000224246 0.000122238 0)
(0.000221904 0.000122848 0)
(0.000219307 0.000123657 0)
(0.000216616 0.000124702 0)
(0.00021407 0.000125972 0)
(0.000211925 0.000127375 0)
(0.000210364 0.000128734 0)
(0.0002094 0.000129865 0)
(0.000208873 0.00013068 0)
(0.000208568 0.000131206 0)
(0.00020833 0.000131515 0)
(0.000208085 0.000131672 0)
(0.000207814 0.000131727 0)
(0.000207517 0.000131713 0)
(0.000207198 0.000131655 0)
(0.000206863 0.000131571 0)
(0.000206514 0.000131471 0)
(0.000206153 0.000131363 0)
(0.000205782 0.00013125 0)
(0.000205401 0.000131135 0)
(0.00020501 0.00013102 0)
(0.000204609 0.000130907 0)
(0.000204199 0.000130796 0)
(0.000203779 0.000130689 0)
(0.000203351 0.000130588 0)
(0.000202913 0.000130491 0)
(0.000202465 0.000130401 0)
(0.000202007 0.000130317 0)
(0.000201539 0.000130241 0)
(0.00020106 0.000130172 0)
(0.00020057 0.000130113 0)
(0.000200067 0.000130063 0)
(0.000199551 0.000130023 0)
(0.00019902 0.000129995 0)
(0.000198474 0.00012998 0)
(0.00019791 0.000129978 0)
(0.000197327 0.000129992 0)
(-7.20083e-06 5.61949e-05 0)
(-3.71453e-06 5.4361e-05 0)
(-2.48754e-07 5.24135e-05 0)
(3.20119e-06 5.03822e-05 0)
(6.65605e-06 4.83048e-05 0)
(1.015e-05 4.62357e-05 0)
(1.37235e-05 4.42425e-05 0)
(1.74203e-05 4.23982e-05 0)
(2.12911e-05 4.0785e-05 0)
(2.54007e-05 3.94911e-05 0)
(2.98269e-05 3.85716e-05 0)
(3.46375e-05 3.79915e-05 0)
(3.98583e-05 3.76331e-05 0)
(4.54714e-05 3.73599e-05 0)
(5.14635e-05 3.70851e-05 0)
(5.7847e-05 3.67881e-05 0)
(6.46764e-05 3.65089e-05 0)
(7.20568e-05 3.63469e-05 0)
(8.01517e-05 3.64699e-05 0)
(8.91904e-05 3.71315e-05 0)
(9.94724e-05 3.86952e-05 0)
(0.000111358 4.16537e-05 0)
(0.000125224 4.66199e-05 0)
(0.00014135 5.42269e-05 0)
(0.000159661 6.48429e-05 0)
(0.000179316 7.80575e-05 0)
(0.000198363 9.22109e-05 0)
(0.000214129 0.000104684 0)
(0.000224707 0.000113313 0)
(0.000230249 0.000117806 0)
(0.000232487 0.000119519 0)
(0.000233165 0.000119978 0)
(0.000233305 0.000120063 0)
(0.000233302 0.000120091 0)
(0.000233258 0.000120114 0)
(0.000233175 0.00012014 0)
(0.000233033 0.000120182 0)
(0.000232794 0.000120255 0)
(0.000232424 0.000120364 0)
(0.000231898 0.000120505 0)
(0.000231181 0.000120668 0)
(0.00023022 0.000120853 0)
(0.000228954 0.000121083 0)
(0.000227317 0.000121405 0)
(0.000225243 0.00012189 0)
(0.000222703 0.000122628 0)
(0.000219768 0.000123705 0)
(0.000216673 0.00012515 0)
(0.000213804 0.000126851 0)
(0.000211551 0.000128532 0)
(0.000210097 0.000129889 0)
(0.000209306 0.000130776 0)
(0.00020888 0.000131259 0)
(0.000208583 0.000131478 0)
(0.000208305 0.000131546 0)
(0.000208014 0.000131526 0)
(0.000207703 0.000131456 0)
(0.000207376 0.000131359 0)
(0.000207034 0.000131246 0)
(0.00020668 0.000131125 0)
(0.000206314 0.000130999 0)
(0.000205938 0.000130871 0)
(0.000205552 0.000130743 0)
(0.000205156 0.000130616 0)
(0.00020475 0.000130493 0)
(0.000204335 0.000130373 0)
(0.000203911 0.000130257 0)
(0.000203477 0.000130146 0)
(0.000203033 0.000130041 0)
(0.000202579 0.000129941 0)
(0.000202115 0.000129847 0)
(0.00020164 0.00012976 0)
(0.000201154 0.000129681 0)
(0.000200655 0.000129609 0)
(0.000200144 0.000129546 0)
(0.000199618 0.000129493 0)
(0.000199078 0.000129452 0)
(0.000198522 0.000129423 0)
(0.000197949 0.000129408 0)
(0.000197358 0.000129409 0)
(-8.69684e-06 6.66478e-05 0)
(-4.5314e-06 6.47893e-05 0)
(-3.50496e-07 6.28381e-05 0)
(3.85442e-06 6.0821e-05 0)
(8.10131e-06 5.87706e-05 0)
(1.24169e-05 5.67278e-05 0)
(1.68344e-05 5.47421e-05 0)
(2.13923e-05 5.28695e-05 0)
(2.61344e-05 5.1166e-05 0)
(3.11089e-05 4.96776e-05 0)
(3.63629e-05 4.84218e-05 0)
(4.19347e-05 4.73767e-05 0)
(4.7851e-05 4.64922e-05 0)
(5.41363e-05 4.57187e-05 0)
(6.08271e-05 4.50317e-05 0)
(6.79822e-05 4.44468e-05 0)
(7.56944e-05 4.4029e-05 0)
(8.40998e-05 4.39036e-05 0)
(9.33864e-05 4.42715e-05 0)
(0.000103797 4.54295e-05 0)
(0.000115626 4.77915e-05 0)
(0.000129186 5.18955e-05 0)
(0.000144739 5.83555e-05 0)
(0.000162306 6.76658e-05 0)
(0.0001813 7.97407e-05 0)
(0.000200046 9.3276e-05 0)
(0.000215806 0.000105644 0)
(0.000226218 0.000114245 0)
(0.000231229 0.00011845 0)
(0.000232903 0.000119772 0)
(0.000233289 0.000120027 0)
(0.000233342 0.000120055 0)
(0.000233352 0.000120067 0)
(0.000233355 0.00012008 0)
(0.000233353 0.000120091 0)
(0.000233342 0.000120104 0)
(0.000233315 0.000120121 0)
(0.000233242 0.000120155 0)
(0.000233077 0.000120214 0)
(0.000232798 0.000120292 0)
(0.00023238 0.000120373 0)
(0.000231783 0.000120449 0)
(0.00023095 0.000120543 0)
(0.000229807 0.000120704 0)
(0.000228246 0.000121005 0)
(0.000226126 0.000121559 0)
(0.000223339 0.000122528 0)
(0.000219955 0.000124033 0)
(0.000216369 0.000125993 0)
(0.000213229 0.000128045 0)
(0.000211048 0.000129711 0)
(0.000209841 0.000130733 0)
(0.000209231 0.000131202 0)
(0.000208853 0.00013135 0)
(0.000208532 0.000131345 0)
(0.000208215 0.000131269 0)
(0.00020789 0.00013116 0)
(0.000207553 0.000131034 0)
(0.000207206 0.000130899 0)
(0.000206847 0.00013076 0)
(0.000206478 0.00013062 0)
(0.000206098 0.00013048 0)
(0.000205709 0.000130342 0)
(0.000205309 0.000130207 0)
(0.0002049 0.000130074 0)
(0.000204481 0.000129947 0)
(0.000204052 0.000129823 0)
(0.000203615 0.000129705 0)
(0.000203167 0.000129591 0)
(0.000202709 0.000129483 0)
(0.00020224 0.000129379 0)
(0.000201759 0.000129282 0)
(0.000201267 0.000129189 0)
(0.000200761 0.000129104 0)
(0.00020024 0.000129026 0)
(0.000199705 0.000128956 0)
(0.000199153 0.000128896 0)
(0.000198584 0.000128849 0)
(0.000197997 0.000128816 0)
(0.000197391 0.000128799 0)
(-1.02357e-05 7.73149e-05 0)
(-5.38509e-06 7.53377e-05 0)
(-5.01161e-07 7.32875e-05 0)
(4.42625e-06 7.11868e-05 0)
(9.41396e-06 6.90627e-05 0)
(1.44853e-05 6.69469e-05 0)
(1.9669e-05 6.48759e-05 0)
(2.49985e-05 6.2889e-05 0)
(3.05108e-05 6.10236e-05 0)
(3.62447e-05 5.93085e-05 0)
(4.22387e-05 5.77572e-05 0)
(4.85298e-05 5.63664e-05 0)
(5.5156e-05 5.51238e-05 0)
(6.21634e-05 5.4022e-05 0)
(6.96131e-05 5.30733e-05 0)
(7.75896e-05 5.23232e-05 0)
(8.62088e-05 5.18638e-05 0)
(9.56253e-05 5.1848e-05 0)
(0.000106037 5.25076e-05 0)
(0.000117682 5.41731e-05 0)
(0.000130824 5.7291e-05 0)
(0.00014571 6.24144e-05 0)
(0.000162448 7.01037e-05 0)
(0.000180735 8.05996e-05 0)
(0.000199321 9.31583e-05 0)
(0.000215615 0.000105462 0)
(0.000226669 0.000114439 0)
(0.000231771 0.000118787 0)
(0.000233122 0.000119938 0)
(0.000233318 0.000120041 0)
(0.000233328 0.000120052 0)
(0.000233336 0.000120064 0)
(0.000233344 0.000120075 0)
(0.000233353 0.000120086 0)
(0.000233361 0.000120097 0)
(0.00023337 0.000120107 0)
(0.000233377 0.000120118 0)
(0.000233378 0.00012013 0)
(0.000233331 0.000120154 0)
(0.000233214 0.000120184 0)
(0.000233 0.000120199 0)
(0.000232679 0.000120188 0)
(0.000232214 0.000120178 0)
(0.000231544 0.000120207 0)
(0.000230572 0.000120322 0)
(0.000229127 0.000120631 0)
(0.000226951 0.000121344 0)
(0.000223794 0.000122708 0)
(0.000219761 0.000124775 0)
(0.000215622 0.000127179 0)
(0.000212411 0.000129246 0)
(0.000210547 0.000130507 0)
(0.000209646 0.000131025 0)
(0.000209152 0.000131135 0)
(0.000208776 0.000131083 0)
(0.000208428 0.00013097 0)
(0.000208084 0.000130834 0)
(0.000207738 0.000130689 0)
(0.000207384 0.000130539 0)
(0.000207022 0.000130388 0)
(0.000206649 0.000130238 0)
(0.000206268 0.000130089 0)
(0.000205876 0.000129944 0)
(0.000205475 0.000129802 0)
(0.000205063 0.000129663 0)
(0.000204643 0.00012953 0)
(0.000204212 0.0001294 0)
(0.000203772 0.000129276 0)
(0.000203322 0.000129155 0)
(0.000202862 0.000129039 0)
(0.000202391 0.000128927 0)
(0.000201908 0.000128819 0)
(0.000201412 0.000128715 0)
(0.000200901 0.000128614 0)
(0.000200375 0.000128518 0)
(0.000199832 0.000128428 0)
(0.00019927 0.000128346 0)
(0.000198687 0.000128273 0)
(0.000198082 0.000128214 0)
(0.000197455 0.000128171 0)
(-1.18474e-05 8.82573e-05 0)
(-6.30841e-06 8.60828e-05 0)
(-7.29608e-07 8.3856e-05 0)
(4.9001e-06 8.15947e-05 0)
(1.0597e-05 7.93198e-05 0)
(1.63824e-05 7.70558e-05 0)
(2.22824e-05 7.48303e-05 0)
(2.8327e-05 7.26718e-05 0)
(3.45496e-05 7.06079e-05 0)
(4.0986e-05 6.86616e-05 0)
(4.76741e-05 6.68491e-05 0)
(5.46549e-05 6.51806e-05 0)
(6.1976e-05 6.36657e-05 0)
(6.96965e-05 6.23227e-05 0)
(7.78922e-05 6.11891e-05 0)
(8.66622e-05 6.03345e-05 0)
(9.61347e-05 5.98737e-05 0)
(0.000106471 5.99818e-05 0)
(0.000117866 6.09125e-05 0)
(0.000130542 6.30164e-05 0)
(0.000144724 6.67535e-05 0)
(0.000160584 7.26649e-05 0)
(0.000178059 8.12024e-05 0)
(0.000196401 9.22247e-05 0)
(0.000213489 0.000104154 0)
(0.000225963 0.000113825 0)
(0.000231889 0.000118788 0)
(0.000233293 0.000120025 0)
(0.000233301 0.000120037 0)
(0.000233308 0.000120049 0)
(0.000233316 0.000120061 0)
(0.000233324 0.000120072 0)
(0.000233333 0.000120084 0)
(0.000233341 0.000120095 0)
(0.00023335 0.000120106 0)
(0.000233359 0.000120116 0)
(0.000233368 0.000120126 0)
(0.000233376 0.000120136 0)
(0.000233379 0.000120143 0)
(0.000233353 0.000120142 0)
(0.000233274 0.000120117 0)
(0.000233153 0.000120057 0)
(0.000232972 0.000119987 0)
(0.000232676 0.000119934 0)
(0.000232207 0.000119912 0)
(0.000231467 0.000120002 0)
(0.000230193 0.0001204 0)
(0.000227877 0.000121403 0)
(0.000224021 0.000123271 0)
(0.000219023 0.000125865 0)
(0.000214435 0.000128391 0)
(0.000211536 0.000130041 0)
(0.000210166 0.000130718 0)
(0.000209503 0.000130846 0)
(0.000209053 0.000130777 0)
(0.000208666 0.000130648 0)
(0.0002083 0.000130499 0)
(0.00020794 0.000130343 0)
(0.000207579 0.000130184 0)
(0.000207213 0.000130025 0)
(0.000206839 0.000129868 0)
(0.000206457 0.000129714 0)
(0.000206065 0.000129564 0)
(0.000205662 0.000129416 0)
(0.00020525 0.000129273 0)
(0.000204827 0.000129133 0)
(0.000204395 0.000128998 0)
(0.000203953 0.000128868 0)
(0.000203501 0.000128741 0)
(0.00020304 0.000128618 0)
(0.000202568 0.000128499 0)
(0.000202085 0.000128381 0)
(0.000201589 0.000128266 0)
(0.00020108 0.000128151 0)
(0.000200554 0.000128038 0)
(0.00020001 0.000127926 0)
(0.000199445 0.000127817 0)
(0.000198854 0.000127713 0)
(0.000198237 0.000127619 0)
(0.000197588 0.000127539 0)
(-1.35508e-05 9.95019e-05 0)
(-7.32145e-06 9.70592e-05 0)
(-1.05341e-06 9.45875e-05 0)
(5.26498e-06 9.20991e-05 0)
(1.16496e-05 8.96099e-05 0)
(1.81207e-05 8.71383e-05 0)
(2.47027e-05 8.47052e-05 0)
(3.14239e-05 8.2333e-05 0)
(3.83162e-05 8.00442e-05 0)
(4.54149e-05 7.78601e-05 0)
(5.27595e-05 7.58001e-05 0)
(6.03956e-05 7.38841e-05 0)
(6.83772e-05 7.21357e-05 0)