/*--------------------------------*- C++ -*----------------------------------*\
  =========                 |
  \\      /  F ield         | OpenFOAM: The Open Source CFD Toolbox
   \\    /   O peration     | Website:  https://openfoam.org
    \\  /    A nd           | Version:  7
     \\/     M anipulation  |
\*---------------------------------------------------------------------------*/
FoamFile
{
    version     2.0;
    format      ascii;
    class       volVectorField;
    location    "5";
    object      Uwetting;
}
// * * * * * * * * * * * * * * * * * * * * * * * * * * * * * * * * * * * * * //

dimensions      [0 1 -1 0 0 0 0];

internalField   nonuniform List<vector> 
49920
(
(-1.22771e-05 6.97402e-07 4.60877e-23)
(-1.79319e-08 6.48652e-09 -3.94651e-26)
(-3.70857e-10 3.16314e-10 -2.30178e-27)
(-4.27023e-10 7.3375e-10 1.94676e-26)
(-7.83109e-11 6.11841e-10 -1.87376e-26)
(-2.25739e-10 1.00824e-09 -7.85324e-26)
(-2.16683e-10 7.70311e-10 1.3198e-29)
(-6.90436e-12 1.96366e-10 0)
(7.37588e-11 3.81955e-10 9.39174e-31)
(2.86519e-10 7.64905e-10 7.70578e-26)
(1.94616e-10 5.77115e-10 -3.93769e-26)
(1.96085e-10 3.2513e-10 0)
(6.4582e-10 4.65069e-10 -3.14929e-29)
(3.61431e-10 1.08721e-10 2.65582e-26)
(2.28786e-09 7.08987e-12 0)
(2.51962e-07 -6.51604e-08 -1.59602e-23)
(0 0 0)
(0 0 0)
(0 0 0)
(0 0 0)
(0 0 0)
(0 0 0)
(0 0 0)
(0 0 0)
(0 0 0)
(0 0 0)
(0 0 0)
(0 0 0)
(0 0 0)
(0 0 0)
(0 0 0)
(0 0 0)
(0 0 0)
(0 0 0)
(0 0 0)
(0 0 0)
(0 0 0)
(0 0 0)
(0 0 0)
(0 0 0)
(0 0 0)
(0 0 0)
(0 0 0)
(0 0 0)
(0 0 0)
(0 0 0)
(0 0 0)
(0 0 0)
(0 0 0)
(0 0 0)
(0 0 0)
(0 0 0)
(0 0 0)
(0 0 0)
(0 0 0)
(0 0 0)
(0 0 0)
(0 0 0)
(0 0 0)
(0 0 0)
(0 0 0)
(0 0 0)
(0 0 0)
(0 0 0)
(0 0 0)
(0 0 0)
(0 0 0)
(0 0 0)
(0 0 0)
(0 0 0)
(0 0 0)
(0 0 0)
(0 0 0)
(0 0 0)
(0 0 0)
(0 0 0)
(0 0 0)
(0 0 0)
(0 0 0)
(0 0 0)
(-4.89983e-06 5.08063e-07 0)
(-5.57199e-07 7.54701e-07 0)
(-2.84432e-08 7.77207e-08 6.3263e-25)
(-6.37609e-10 1.95551e-09 1.51822e-26)
(-3.82303e-10 1.8318e-09 -1.43287e-26)
(-6.07596e-10 6.23795e-09 2.37737e-25)
(6.76322e-11 1.05015e-09 1.74761e-26)
(8.89345e-10 5.46204e-09 -8.80817e-26)
(1.96671e-10 1.39568e-09 0)
(2.994e-10 1.79359e-09 -1.53253e-25)
(7.81052e-10 2.21758e-09 1.63085e-25)
(7.16374e-10 1.33869e-09 -4.87713e-26)
(4.87246e-10 6.22064e-10 -3.70521e-29)
(3.85331e-09 3.39514e-09 -1.78272e-25)
(1.23862e-07 7.08738e-08 6.16393e-24)
(1.18635e-06 -2.48549e-07 0)
(0 0 0)
(0 0 0)
(0 0 0)
(0 0 0)
(0 0 0)
(0 0 0)
(0 0 0)
(0 0 0)
(0 0 0)
(0 0 0)
(0 0 0)
(0 0 0)
(0 0 0)
(0 0 0)
(0 0 0)
(0 0 0)
(0 0 0)
(0 0 0)
(0 0 0)
(0 0 0)
(0 0 0)
(0 0 0)
(0 0 0)
(0 0 0)
(0 0 0)
(0 0 0)
(0 0 0)
(0 0 0)
(0 0 0)
(0 0 0)
(0 0 0)
(0 0 0)
(0 0 0)
(0 0 0)
(0 0 0)
(0 0 0)
(0 0 0)
(0 0 0)
(0 0 0)
(0 0 0)
(0 0 0)
(0 0 0)
(0 0 0)
(0 0 0)
(0 0 0)
(0 0 0)
(0 0 0)
(0 0 0)
(0 0 0)
(0 0 0)
(0 0 0)
(0 0 0)
(0 0 0)
(0 0 0)
(0 0 0)
(0 0 0)
(0 0 0)
(0 0 0)
(0 0 0)
(0 0 0)
(0 0 0)
(0 0 0)
(0 0 0)
(0 0 0)
(0 0 0)
(7.39436e-08 1.3719e-05 -1.10655e-22)
(-6.57634e-07 1.34904e-06 -1.65623e-26)
(-7.19215e-08 1.49592e-07 0)
(-4.46685e-08 1.75938e-07 1.60115e-24)
(-3.35841e-08 4.42978e-07 7.22188e-24)
(1.76942e-08 1.88563e-07 -2.93303e-24)
(5.78895e-08 3.91392e-07 6.13893e-24)
(2.48851e-08 1.96885e-07 3.13518e-24)
(6.64057e-10 5.97463e-09 -1.15167e-25)
(1.57183e-09 5.11569e-09 -6.44907e-25)
(2.58285e-09 4.8369e-09 3.3762e-28)
(1.44001e-08 1.6241e-08 -4.67403e-28)
(1.8787e-07 1.33527e-07 -1.61591e-27)
(1.24777e-06 7.09616e-07 -1.2866e-22)
(3.1907e-07 -2.38796e-07 0)
(0 0 0)
(0 0 0)
(0 0 0)
(0 0 0)
(0 0 0)
(0 0 0)
(0 0 0)
(0 0 0)
(0 0 0)
(0 0 0)
(0 0 0)
(0 0 0)
(0 0 0)
(0 0 0)
(0 0 0)
(0 0 0)
(0 0 0)
(0 0 0)
(0 0 0)
(0 0 0)
(0 0 0)
(0 0 0)
(0 0 0)
(0 0 0)
(0 0 0)
(0 0 0)
(0 0 0)
(0 0 0)
(0 0 0)
(0 0 0)
(0 0 0)
(0 0 0)
(0 0 0)
(0 0 0)
(0 0 0)
(0 0 0)
(0 0 0)
(0 0 0)
(0 0 0)
(0 0 0)
(0 0 0)
(0 0 0)
(0 0 0)
(0 0 0)
(0 0 0)
(0 0 0)
(0 0 0)
(0 0 0)
(0 0 0)
(0 0 0)
(0 0 0)
(0 0 0)
(0 0 0)
(0 0 0)
(0 0 0)
(0 0 0)
(0 0 0)
(0 0 0)
(0 0 0)
(0 0 0)
(0 0 0)
(0 0 0)
(0 0 0)
(0 0 0)
(0 0 0)
(0 0 0)
(0 0 0)
(8.26906e-08 1.49938e-06 1.40388e-30)
(1.45551e-07 1.78272e-06 0)
(5.75505e-07 5.15238e-06 -2.95807e-22)
(3.10261e-07 2.39061e-06 0)
(6.33529e-07 4.63889e-06 0)
(-5.56442e-07 2.44183e-06 0)
(-8.74745e-08 4.70236e-07 4.50272e-23)
(5.29102e-08 2.65206e-07 -1.36361e-23)
(7.65875e-08 2.20958e-07 1.33377e-23)
(3.58353e-07 3.81747e-07 -2.25925e-26)
(7.71487e-07 5.91463e-07 -3.06537e-29)
(0 0 0)
(0 0 0)
(0 0 0)
(0 0 0)
(0 0 0)
(0 0 0)
(0 0 0)
(0 0 0)
(0 0 0)
(0 0 0)
(0 0 0)
(0 0 0)
(0 0 0)
(0 0 0)
(0 0 0)
(0 0 0)
(0 0 0)
(0 0 0)
(0 0 0)
(0 0 0)
(0 0 0)
(0 0 0)
(0 0 0)
(0 0 0)
(0 0 0)
(0 0 0)
(0 0 0)
(0 0 0)
(0 0 0)
(0 0 0)
(0 0 0)
(0 0 0)
(0 0 0)
(0 0 0)
(0 0 0)
(0 0 0)
(0 0 0)
(0 0 0)
(0 0 0)
(0 0 0)
(0 0 0)
(0 0 0)
(0 0 0)
(0 0 0)
(0 0 0)
(0 0 0)
(0 0 0)
(0 0 0)
(0 0 0)
(0 0 0)
(0 0 0)
(0 0 0)
(0 0 0)
(0 0 0)
(0 0 0)
(0 0 0)
(0 0 0)
(0 0 0)
(0 0 0)
(0 0 0)
(0 0 0)
(0 0 0)
(0 0 0)
(0 0 0)
(0 0 0)
(0 0 0)
(0 0 0)
(0 0 0)
(0 0 0)
(0 0 0)
(0 0 0)
(0 0 0)
(0 0 0)
(0 0 0)
(0 0 0)
(1.70131e-06 9.81566e-06 5.43876e-27)
(3.02692e-07 1.52424e-06 1.92407e-22)
(5.36751e-07 2.25259e-06 -2.95283e-22)
(1.40579e-06 5.31641e-06 -2.68411e-25)
(0 0 0)
(0 0 0)
(0 0 0)
(0 0 0)
(0 0 0)
(0 0 0)
(0 0 0)
(0 0 0)
(0 0 0)
(0 0 0)
(0 0 0)
(0 0 0)
(0 0 0)
(0 0 0)
(0 0 0)
(0 0 0)
(0 0 0)
(0 0 0)
(0 0 0)
(0 0 0)
(0 0 0)
(0 0 0)
(0 0 0)
(0 0 0)
(0 0 0)
(0 0 0)
(0 0 0)
(0 0 0)
(0 0 0)
(0 0 0)
(0 0 0)
(0 0 0)
(0 0 0)
(0 0 0)
(0 0 0)
(0 0 0)
(0 0 0)
(0 0 0)
(0 0 0)
(0 0 0)
(0 0 0)
(0 0 0)
(0 0 0)
(0 0 0)
(0 0 0)
(0 0 0)
(0 0 0)
(0 0 0)
(0 0 0)
(0 0 0)
(0 0 0)
(0 0 0)
(0 0 0)
(0 0 0)
(0 0 0)
(0 0 0)
(0 0 0)
(0 0 0)
(0 0 0)
(0 0 0)
(0 0 0)
(0 0 0)
(0 0 0)
(0 0 0)
(0 0 0)
(0 0 0)
(0 0 0)
(0 0 0)
(0 0 0)
(0 0 0)
(0 0 0)
(0 0 0)
(0 0 0)
(0 0 0)
(0 0 0)
(0 0 0)
(0 0 0)
(0 0 0)
(0 0 0)
(0 0 0)
(0 0 0)
(0 0 0)
(0 0 0)
(0 0 0)
(0 0 0)
(0 0 0)
(0 0 0)
(0 0 0)
(0 0 0)
(0 0 0)
(0 0 0)
(0 0 0)
(0 0 0)
(0 0 0)
(0 0 0)
(0 0 0)
(0 0 0)
(0 0 0)
(0 0 0)
(0 0 0)
(0 0 0)
(0 0 0)
(0 0 0)
(0 0 0)
(0 0 0)
(0 0 0)
(0 0 0)
(0 0 0)
(0 0 0)
(0 0 0)
(0 0 0)
(0 0 0)
(0 0 0)
(0 0 0)
(0 0 0)
(0 0 0)
(0 0 0)
(0 0 0)
(0 0 0)
(0 0 0)
(0 0 0)
(0 0 0)
(0 0 0)
(0 0 0)
(0 0 0)
(0 0 0)
(0 0 0)
(0 0 0)
(0 0 0)
(0 0 0)
(0 0 0)
(0 0 0)
(0 0 0)
(0 0 0)
(0 0 0)
(0 0 0)
(0 0 0)
(0 0 0)
(0 0 0)
(0 0 0)
(0 0 0)
(0 0 0)
(0 0 0)
(0 0 0)
(0 0 0)
(0 0 0)
(0 0 0)
(0 0 0)
(0 0 0)
(0 0 0)
(0 0 0)
(0 0 0)
(0 0 0)
(0 0 0)
(0 0 0)
(0 0 0)
(0 0 0)
(0 0 0)
(0 0 0)
(0 0 0)
(0 0 0)
(0 0 0)
(0 0 0)
(0 0 0)
(0 0 0)
(0 0 0)
(0 0 0)
(0 0 0)
(0 0 0)
(0 0 0)
(0 0 0)
(0 0 0)
(0 0 0)
(0 0 0)
(0 0 0)
(0 0 0)
(0 0 0)
(0 0 0)
(0 0 0)
(0 0 0)
(0 0 0)
(0 0 0)
(0 0 0)
(0 0 0)
(0 0 0)
(0 0 0)
(0 0 0)
(0 0 0)
(0 0 0)
(0 0 0)
(0 0 0)
(0 0 0)
(0 0 0)
(0 0 0)
(0 0 0)
(0 0 0)
(0 0 0)
(0 0 0)
(0 0 0)
(0 0 0)
(0 0 0)
(0 0 0)
(0 0 0)
(0 0 0)
(0 0 0)
(0 0 0)
(0 0 0)
(0 0 0)
(0 0 0)
(0 0 0)
(0 0 0)
(0 0 0)
(0 0 0)
(0 0 0)
(0 0 0)
(0 0 0)
(0 0 0)
(0 0 0)
(0 0 0)
(0 0 0)
(0 0 0)
(0 0 0)
(0 0 0)
(0 0 0)
(0 0 0)
(0 0 0)
(0 0 0)
(0 0 0)
(0 0 0)
(0 0 0)
(0 0 0)
(0 0 0)
(0 0 0)
(0 0 0)
(0 0 0)
(0 0 0)
(0 0 0)
(0 0 0)
(0 0 0)
(0 0 0)
(0 0 0)
(0 0 0)
(0 0 0)
(0 0 0)
(0 0 0)
(0 0 0)
(0 0 0)
(0 0 0)
(0 0 0)
(0 0 0)
(0 0 0)
(0 0 0)
(0 0 0)
(0 0 0)
(0 0 0)
(0 0 0)
(0 0 0)
(0 0 0)
(0 0 0)
(0 0 0)
(0 0 0)
(0 0 0)
(0 0 0)
(0 0 0)
(0 0 0)
(0 0 0)
(0 0 0)
(0 0 0)
(0 0 0)
(0 0 0)
(0 0 0)
(0 0 0)
(0 0 0)
(0 0 0)
(0 0 0)
(0 0 0)
(0 0 0)
(0 0 0)
(0 0 0)
(0 0 0)
(0 0 0)
(0 0 0)
(0 0 0)
(0 0 0)
(0 0 0)
(0 0 0)
(0 0 0)
(0 0 0)
(0 0 0)
(0 0 0)
(0 0 0)
(0 0 0)
(0 0 0)
(0 0 0)
(0 0 0)
(0 0 0)
(0 0 0)
(0 0 0)
(0 0 0)
(0 0 0)
(0 0 0)
(0 0 0)
(0 0 0)
(0 0 0)
(0 0 0)
(0 0 0)
(0 0 0)
(0 0 0)
(0 0 0)
(0 0 0)
(0 0 0)
(0 0 0)
(0 0 0)
(0 0 0)
(0 0 0)
(0 0 0)
(0 0 0)
(0 0 0)
(0 0 0)
(0 0 0)
(0 0 0)
(0 0 0)
(0 0 0)
(0 0 0)
(0 0 0)
(0 0 0)
(0 0 0)
(0 0 0)
(0 0 0)
(0 0 0)
(0 0 0)
(0 0 0)
(0 0 0)
(0 0 0)
(0 0 0)
(0 0 0)
(0 0 0)
(0 0 0)
(0 0 0)
(0 0 0)
(0 0 0)
(0 0 0)
(0 0 0)
(0 0 0)
(0 0 0)
(0 0 0)
(0 0 0)
(0 0 0)
(0 0 0)
(0 0 0)
(0 0 0)
(0 0 0)
(0 0 0)
(0 0 0)
(0 0 0)
(0 0 0)
(0 0 0)
(0 0 0)
(0 0 0)
(0 0 0)
(0 0 0)
(0 0 0)
(0 0 0)
(0 0 0)
(0 0 0)
(0 0 0)
(0 0 0)
(0 0 0)
(0 0 0)
(0 0 0)
(0 0 0)
(0 0 0)
(0 0 0)
(0 0 0)
(0 0 0)
(0 0 0)
(0 0 0)
(0 0 0)
(0 0 0)
(0 0 0)
(0 0 0)
(0 0 0)
(0 0 0)
(0 0 0)
(0 0 0)
(0 0 0)
(0 0 0)
(0 0 0)
(0 0 0)
(0 0 0)
(0 0 0)
(0 0 0)
(0 0 0)
(0 0 0)
(0 0 0)
(0 0 0)
(0 0 0)
(0 0 0)
(0 0 0)
(0 0 0)
(0 0 0)
(0 0 0)
(0 0 0)
(0 0 0)
(0 0 0)
(0 0 0)
(0 0 0)
(0 0 0)
(0 0 0)
(0 0 0)
(0 0 0)
(0 0 0)
(0 0 0)
(0 0 0)
(0 0 0)
(0 0 0)
(0 0 0)
(0 0 0)
(0 0 0)
(0 0 0)
(0 0 0)
(0 0 0)
(0 0 0)
(0 0 0)
(0 0 0)
(0 0 0)
(0 0 0)
(0 0 0)
(0 0 0)
(0 0 0)
(0 0 0)
(0 0 0)
(0 0 0)
(0 0 0)
(0 0 0)
(0 0 0)
(0 0 0)
(0 0 0)
(0 0 0)
(0 0 0)
(0 0 0)
(0 0 0)
(0 0 0)
(0 0 0)
(0 0 0)
(0 0 0)
(0 0 0)
(0 0 0)
(0 0 0)
(0 0 0)
(0 0 0)
(0 0 0)
(0 0 0)
(0 0 0)
(0 0 0)
(0 0 0)
(0 0 0)
(0 0 0)
(0 0 0)
(0 0 0)
(0 0 0)
(0 0 0)
(0 0 0)
(0 0 0)
(0 0 0)
(0 0 0)
(0 0 0)
(0 0 0)
(0 0 0)
(0 0 0)
(0 0 0)
(0 0 0)
(0 0 0)
(0 0 0)
(0 0 0)
(0 0 0)
(0 0 0)
(0 0 0)
(0 0 0)
(0 0 0)
(0 0 0)
(0 0 0)
(0 0 0)
(0 0 0)
(0 0 0)
(0 0 0)
(0 0 0)
(0 0 0)
(0 0 0)
(0 0 0)
(0 0 0)
(0 0 0)
(0 0 0)
(0 0 0)
(0 0 0)
(0 0 0)
(0 0 0)
(0 0 0)
(0 0 0)
(0 0 0)
(0 0 0)
(0 0 0)
(0 0 0)
(0 0 0)
(0 0 0)
(0 0 0)
(0 0 0)
(0 0 0)
(0 0 0)
(0 0 0)
(0 0 0)
(0 0 0)
(0 0 0)
(0 0 0)
(0 0 0)
(0 0 0)
(0 0 0)
(0 0 0)
(0 0 0)
(0 0 0)
(0 0 0)
(0 0 0)
(0 0 0)
(0 0 0)
(0 0 0)
(0 0 0)
(0 0 0)
(0 0 0)
(0 0 0)
(0 0 0)
(0 0 0)
(0 0 0)
(0 0 0)
(0 0 0)
(0 0 0)
(0 0 0)
(0 0 0)
(0 0 0)
(0 0 0)
(0 0 0)
(0 0 0)
(0 0 0)
(0 0 0)
(0 0 0)
(0 0 0)
(0 0 0)
(0 0 0)
(0 0 0)
(0 0 0)
(0 0 0)
(0 0 0)
(0 0 0)
(0 0 0)
(0 0 0)
(0 0 0)
(0 0 0)
(0 0 0)
(0 0 0)
(0 0 0)
(0 0 0)
(0 0 0)
(0 0 0)
(0 0 0)
(0 0 0)
(0 0 0)
(0 0 0)
(0 0 0)
(0 0 0)
(0 0 0)
(0 0 0)
(0 0 0)
(0 0 0)
(0 0 0)
(0 0 0)
(0 0 0)
(0 0 0)
(0 0 0)
(0 0 0)
(0 0 0)
(0 0 0)
(0 0 0)
(0 0 0)
(0 0 0)
(0 0 0)
(0 0 0)
(0 0 0)
(0 0 0)
(0 0 0)
(0 0 0)
(0 0 0)
(0 0 0)
(0 0 0)
(0 0 0)
(0 0 0)
(0 0 0)
(0 0 0)
(0 0 0)
(0 0 0)
(0 0 0)
(0 0 0)
(0 0 0)
(0 0 0)
(0 0 0)
(0 0 0)
(0 0 0)
(0 0 0)
(0 0 0)
(0 0 0)
(0 0 0)
(0 0 0)
(0 0 0)
(0 0 0)
(0 0 0)
(0 0 0)
(0 0 0)
(0 0 0)
(0 0 0)
(0 0 0)
(0 0 0)
(0 0 0)
(0 0 0)
(0 0 0)
(0 0 0)
(0 0 0)
(0 0 0)
(0 0 0)
(0 0 0)
(0 0 0)
(0 0 0)
(0 0 0)
(0 0 0)
(0 0 0)
(0 0 0)
(0 0 0)
(0 0 0)
(0 0 0)
(0 0 0)
(0 0 0)
(0 0 0)
(0 0 0)
(0 0 0)
(0 0 0)
(0 0 0)
(0 0 0)
(0 0 0)
(0 0 0)
(0 0 0)
(0 0 0)
(0 0 0)
(0 0 0)
(0 0 0)
(0 0 0)
(0 0 0)
(0 0 0)
(0 0 0)
(0 0 0)
(-1.17347e-08 3.59617e-07 2.8473e-21)
(-8.55062e-09 2.39588e-07 6.35296e-22)
(4.16497e-08 8.17614e-08 0)
(3.02051e-08 4.6134e-08 -3.26163e-22)
(2.23628e-08 3.15207e-08 2.23414e-22)
(2.41598e-08 3.11885e-08 0)
(4.70754e-08 3.8697e-08 0)
(7.55655e-08 1.15622e-07 -1.11851e-21)
(1.18742e-07 3.3455e-07 0)
(0 0 0)
(0 0 0)
(0 0 0)
(0 0 0)
(0 0 0)
(0 0 0)
(0 0 0)
(0 0 0)
(0 0 0)
(0 0 0)
(0 0 0)
(0 0 0)
(0 0 0)
(0 0 0)
(0 0 0)
(0 0 0)
(0 0 0)
(0 0 0)
(0 0 0)
(0 0 0)
(0 0 0)
(0 0 0)
(0 0 0)
(0 0 0)
(0 0 0)
(0 0 0)
(0 0 0)
(0 0 0)
(0 0 0)
(0 0 0)
(0 0 0)
(0 0 0)
(0 0 0)
(0 0 0)
(0 0 0)
(0 0 0)
(0 0 0)
(0 0 0)
(0 0 0)
(0 0 0)
(0 0 0)
(0 0 0)
(0 0 0)
(0 0 0)
(0 0 0)
(0 0 0)
(0 0 0)
(0 0 0)
(0 0 0)
(0 0 0)
(0 0 0)
(0 0 0)
(0 0 0)
(0 0 0)
(0 0 0)
(0 0 0)
(0 0 0)
(0 0 0)
(0 0 0)
(0 0 0)
(0 0 0)
(0 0 0)
(0 0 0)
(0 0 0)
(0 0 0)
(0 0 0)
(0 0 0)
(0 0 0)
(0 0 0)
(-2.09575e-08 9.6729e-08 -3.4247e-21)
(3.90465e-08 1.48876e-08 3.49649e-22)
(2.99163e-08 6.61291e-09 -2.59665e-22)
(1.23674e-08 1.60727e-08 1.21401e-22)
(7.22571e-09 1.06003e-08 3.29967e-23)
(5.58543e-09 7.29104e-09 2.06186e-23)
(4.81059e-09 5.97682e-09 -3.09004e-23)
(4.80939e-09 5.03704e-09 8.74885e-29)
(6.74403e-09 6.3054e-09 1.86978e-23)
(8.7741e-09 1.21888e-08 3.18708e-23)
(9.12275e-09 4.17238e-08 -7.23418e-23)
(2.99713e-08 9.51492e-08 2.15562e-22)
(2.09097e-07 2.45498e-07 -8.34197e-22)
(7.01274e-07 9.4265e-07 4.09592e-21)
(0 0 0)
(0 0 0)
(0 0 0)
(0 0 0)
(0 0 0)
(0 0 0)
(0 0 0)
(0 0 0)
(0 0 0)
(0 0 0)
(0 0 0)
(0 0 0)
(0 0 0)
(0 0 0)
(0 0 0)
(0 0 0)
(0 0 0)
(0 0 0)
(0 0 0)
(0 0 0)
(0 0 0)
(0 0 0)
(0 0 0)
(0 0 0)
(0 0 0)
(0 0 0)
(0 0 0)
(0 0 0)
(0 0 0)
(0 0 0)
(0 0 0)
(0 0 0)
(0 0 0)
(0 0 0)
(0 0 0)
(0 0 0)
(0 0 0)
(0 0 0)
(0 0 0)
(0 0 0)
(0 0 0)
(0 0 0)
(0 0 0)
(0 0 0)
(0 0 0)
(0 0 0)
(0 0 0)
(0 0 0)
(0 0 0)
(0 0 0)
(0 0 0)
(0 0 0)
(0 0 0)
(0 0 0)
(0 0 0)
(0 0 0)
(0 0 0)
(0 0 0)
(0 0 0)
(0 0 0)
(0 0 0)
(0 0 0)
(0 0 0)
(0 0 0)
(0 0 0)
(9.71678e-08 -7.63868e-08 -2.71526e-21)
(3.40597e-08 1.5174e-09 2.20304e-22)
(1.34906e-08 6.14071e-09 9.87984e-23)
(4.76957e-09 1.80474e-09 -5.53226e-28)
(2.00821e-09 1.33312e-09 -7.12724e-24)
(1.27969e-09 1.12539e-09 -3.83503e-24)
(9.68083e-10 8.50302e-10 0)
(6.88282e-10 8.25335e-10 0)
(6.61327e-10 8.56409e-10 0)
(9.53827e-10 9.95916e-10 2.35308e-24)
(1.34001e-09 1.61186e-09 -3.77795e-24)
(2.41227e-09 4.12903e-09 -7.39237e-24)
(7.21803e-09 1.09286e-08 0)
(1.58018e-08 2.46419e-08 0)
(1.94472e-08 7.9159e-08 0)
(5.54074e-08 1.55973e-07 0)
(2.44659e-07 2.36259e-07 6.2428e-22)
(5.12939e-07 5.13154e-07 -1.78455e-21)
(0 0 0)
(0 0 0)
(0 0 0)
(0 0 0)
(0 0 0)
(0 0 0)
(0 0 0)
(0 0 0)
(0 0 0)
(0 0 0)
(0 0 0)
(0 0 0)
(0 0 0)
(0 0 0)
(0 0 0)
(0 0 0)
(0 0 0)
(0 0 0)
(0 0 0)
(0 0 0)
(0 0 0)
(0 0 0)
(0 0 0)
(0 0 0)
(0 0 0)
(0 0 0)
(0 0 0)
(0 0 0)
(0 0 0)
(0 0 0)
(0 0 0)
(0 0 0)
(0 0 0)
(0 0 0)
(0 0 0)
(0 0 0)
(0 0 0)
(0 0 0)
(0 0 0)
(0 0 0)
(0 0 0)
(0 0 0)
(0 0 0)
(0 0 0)
(0 0 0)
(0 0 0)
(0 0 0)
(0 0 0)
(0 0 0)
(0 0 0)
(0 0 0)
(0 0 0)
(0 0 0)
(0 0 0)
(0 0 0)
(0 0 0)
(0 0 0)
(0 0 0)
(0 0 0)
(0 0 0)
(0 0 0)
(0 0 0)
(6.18103e-08 -4.31954e-08 -9.27846e-28)
(1.668e-08 -3.09928e-09 0)
(4.13757e-09 1.82546e-10 -1.30033e-23)
(1.21832e-09 2.31663e-10 -7.31622e-24)
(4.75973e-10 1.55844e-10 -1.37608e-24)
(2.70224e-10 1.33711e-10 6.73964e-25)
(1.62065e-10 1.14201e-10 8.47033e-25)
(1.18303e-10 1.05122e-10 -3.37358e-25)
(1.45668e-10 1.41458e-10 0)
(1.85561e-10 1.96996e-10 4.28276e-25)
(2.77483e-10 3.11504e-10 6.59183e-25)
(4.89557e-10 6.45395e-10 9.91881e-30)
(9.90491e-10 1.44546e-09 -2.21643e-24)
(1.8553e-09 2.60846e-09 0)
(3.85118e-09 5.64158e-09 0)
(1.02372e-08 1.31808e-08 -1.53786e-23)
(1.77028e-08 2.49749e-08 -9.28516e-28)
(1.87554e-08 6.53294e-08 6.04141e-23)
(3.5174e-08 1.06342e-07 -1.29714e-22)
(1.3516e-07 1.04601e-07 0)
(2.50329e-07 2.05033e-07 -6.64354e-22)
(4.35184e-07 3.73722e-07 3.26789e-21)
(0 0 0)
(0 0 0)
(0 0 0)
(0 0 0)
(0 0 0)
(0 0 0)
(0 0 0)
(0 0 0)
(0 0 0)
(0 0 0)
(0 0 0)
(0 0 0)
(0 0 0)
(0 0 0)
(0 0 0)
(0 0 0)
(0 0 0)
(0 0 0)
(0 0 0)
(0 0 0)
(0 0 0)
(0 0 0)
(0 0 0)
(0 0 0)
(0 0 0)
(0 0 0)
(0 0 0)
(0 0 0)
(0 0 0)
(0 0 0)
(0 0 0)
(0 0 0)
(0 0 0)
(0 0 0)
(0 0 0)
(0 0 0)
(0 0 0)
(0 0 0)
(0 0 0)
(0 0 0)
(0 0 0)
(0 0 0)
(0 0 0)
(0 0 0)
(0 0 0)
(0 0 0)
(0 0 0)
(0 0 0)
(0 0 0)
(0 0 0)
(0 0 0)
(0 0 0)
(0 0 0)
(0 0 0)
(0 0 0)
(0 0 0)
(0 0 0)
(0 0 0)
(4.99253e-08 -3.46343e-08 6.69288e-22)
(1.13374e-08 -3.51086e-09 0)
(2.03556e-09 -3.11693e-10 -5.57531e-24)
(5.05285e-10 1.39357e-11 2.63528e-24)
(1.80637e-10 3.6261e-11 4.11342e-25)
(7.90784e-11 2.60299e-11 1.7503e-25)
(4.2069e-11 2.2923e-11 0)
(3.88243e-11 2.29314e-11 0)
(4.55396e-11 3.02372e-11 2.86178e-30)
(5.45239e-11 4.97381e-11 2.32078e-25)
(8.00707e-11 7.83175e-11 -1.64656e-25)
(1.32962e-10 1.36879e-10 0)
(2.28473e-10 2.93897e-10 0)
(3.69414e-10 4.8047e-10 0)
(6.63503e-10 7.82442e-10 0)
(1.15737e-09 1.40833e-09 0)
(1.91349e-09 2.44107e-09 0)
(3.08844e-09 5.11687e-09 -5.69078e-24)
(7.88264e-09 1.17954e-08 1.01997e-23)
(1.46475e-08 1.82885e-08 1.80661e-23)
(2.32141e-08 2.8967e-08 0)
(2.9566e-08 6.43401e-08 0)
(6.02908e-08 1.20852e-07 -1.56633e-22)
(2.62858e-07 1.98891e-07 -6.12857e-22)
(0 0 0)
(0 0 0)
(0 0 0)
(0 0 0)
(0 0 0)
(0 0 0)
(0 0 0)
(0 0 0)
(0 0 0)
(0 0 0)
(0 0 0)
(0 0 0)
(0 0 0)
(0 0 0)
(0 0 0)
(0 0 0)
(0 0 0)
(0 0 0)
(0 0 0)
(0 0 0)
(0 0 0)
(0 0 0)
(0 0 0)
(0 0 0)
(0 0 0)
(0 0 0)
(0 0 0)
(0 0 0)
(0 0 0)
(0 0 0)
(0 0 0)
(0 0 0)
(0 0 0)
(0 0 0)
(0 0 0)
(0 0 0)
(0 0 0)
(0 0 0)
(0 0 0)
(0 0 0)
(0 0 0)
(0 0 0)
(0 0 0)
(0 0 0)
(0 0 0)
(0 0 0)
(0 0 0)
(0 0 0)
(0 0 0)
(0 0 0)
(0 0 0)
(0 0 0)
(0 0 0)
(0 0 0)
(0 0 0)
(0 0 0)
(5.30724e-08 -3.23388e-08 5.35061e-22)
(9.99937e-09 -3.38976e-09 2.38866e-23)
(1.65798e-09 -2.9302e-10 0)
(3.93245e-10 -2.68613e-11 -7.55647e-25)
(1.08776e-10 8.7837e-12 -2.02234e-25)
(3.72743e-11 9.42984e-12 -1.52377e-25)
(2.13503e-11 8.84619e-12 -8.99137e-26)
(2.13047e-11 1.04046e-11 4.01548e-26)
(2.49371e-11 1.30838e-11 4.5381e-26)
(3.05895e-11 2.19255e-11 0)
(4.10299e-11 3.22752e-11 0)
(6.04074e-11 4.24358e-11 8.40535e-26)
(7.40568e-11 7.18978e-11 -1.07889e-25)
(9.48511e-11 1.17004e-10 1.45419e-25)
(1.46157e-10 1.68254e-10 2.0833e-25)
(2.26542e-10 2.77501e-10 -3.18705e-25)
(3.34152e-10 4.51501e-10 -5.14494e-25)
(5.3765e-10 7.13807e-10 0)
(1.15448e-09 1.28257e-09 0)
(2.01324e-09 2.27667e-09 0)
(3.19263e-09 4.01462e-09 3.59616e-24)
(5.7719e-09 7.87482e-09 -5.58909e-28)
(1.69753e-08 2.25786e-08 1.38964e-27)
(3.88858e-08 9.31551e-08 1.89214e-22)
(1.64315e-07 4.6258e-07 4.80698e-22)
(0 0 0)
(0 0 0)
(0 0 0)
(0 0 0)
(0 0 0)
(0 0 0)
(0 0 0)
(0 0 0)
(0 0 0)
(0 0 0)
(0 0 0)
(0 0 0)
(0 0 0)
(0 0 0)
(0 0 0)
(0 0 0)
(0 0 0)
(0 0 0)
(0 0 0)
(0 0 0)
(0 0 0)
(0 0 0)
(0 0 0)
(0 0 0)
(0 0 0)
(0 0 0)
(0 0 0)
(0 0 0)
(0 0 0)
(0 0 0)
(0 0 0)
(0 0 0)
(0 0 0)
(0 0 0)
(0 0 0)
(0 0 0)
(0 0 0)
(0 0 0)
(0 0 0)
(0 0 0)
(0 0 0)
(0 0 0)
(0 0 0)
(0 0 0)
(0 0 0)
(0 0 0)
(0 0 0)
(0 0 0)
(0 0 0)
(0 0 0)
(0 0 0)
(0 0 0)
(0 0 0)
(0 0 0)
(0 0 0)
(7.28632e-08 -4.35698e-08 -2.82031e-22)
(1.26779e-08 -4.46425e-09 -6.07411e-28)
(1.93216e-09 -2.84715e-10 -2.31294e-28)
(3.69953e-10 -4.13039e-11 6.38421e-25)
(8.85164e-11 -4.77028e-12 1.59044e-25)
(3.19362e-11 4.22621e-12 5.69308e-26)
(2.01833e-11 6.2273e-12 3.40373e-26)
(2.10216e-11 8.69623e-12 -3.25939e-26)
(2.60807e-11 1.15024e-11 3.88454e-26)
(3.14259e-11 1.57614e-11 -4.57492e-26)
(3.65712e-11 2.10666e-11 4.89158e-26)
(3.80946e-11 2.39002e-11 -4.8879e-26)
(3.31157e-11 2.75051e-11 1.47008e-25)
(3.78171e-11 3.75724e-11 -5.25844e-26)
(5.11725e-11 4.98186e-11 -6.26935e-26)
(6.52002e-11 7.60813e-11 8.35853e-26)
(9.18818e-11 1.27134e-10 -1.2113e-25)
(1.71401e-10 1.84265e-10 -1.80612e-25)
(2.91251e-10 2.5305e-10 -2.64177e-25)
(3.86147e-10 3.76163e-10 3.86226e-25)
(6.13653e-10 7.14658e-10 6.2978e-25)
(1.29645e-09 1.57039e-09 -1.31044e-24)
(3.92805e-09 4.73847e-09 3.55301e-24)
(1.12181e-08 1.915e-08 -1.10368e-23)
(3.34191e-08 8.8413e-08 -1.10043e-22)
(9.53035e-08 1.78339e-07 -1.30022e-26)
(2.34866e-07 1.40892e-07 4.23304e-22)
(3.3892e-07 1.90725e-07 -3.65971e-22)
(6.85865e-07 3.82232e-07 1.47561e-21)
(1.08922e-06 5.95396e-07 -4.98428e-21)
(0 0 0)
(0 0 0)
(0 0 0)
(0 0 0)
(0 0 0)
(0 0 0)
(0 0 0)
(0 0 0)
(0 0 0)
(0 0 0)
(0 0 0)
(0 0 0)
(0 0 0)
(0 0 0)
(0 0 0)
(0 0 0)
(0 0 0)
(0 0 0)
(0 0 0)
(0 0 0)
(1.15004e-06 7.43913e-08 1.97268e-22)
(6.81552e-07 3.18918e-08 0)
(3.95298e-07 1.19783e-08 2.27257e-23)
(2.16937e-07 1.03065e-09 0)
(0 0 0)
(0 0 0)
(0 0 0)
(0 0 0)
(0 0 0)
(0 0 0)
(0 0 0)
(0 0 0)
(0 0 0)
(0 0 0)
(0 0 0)
(0 0 0)
(0 0 0)
(0 0 0)
(0 0 0)
(0 0 0)
(0 0 0)
(0 0 0)
(0 0 0)
(0 0 0)
(0 0 0)
(0 0 0)
(0 0 0)
(0 0 0)
(0 0 0)
(0 0 0)
(1.08738e-07 -6.4547e-08 6.62666e-22)
(1.6882e-08 -7.45126e-09 -9.72965e-28)
(2.21449e-09 -4.99718e-10 -7.40421e-29)
(3.80385e-10 -6.65678e-11 -6.59025e-25)
(1.034e-10 -1.74305e-11 1.63179e-25)
(4.13156e-11 -1.52351e-12 5.33664e-31)
(2.70065e-11 4.33997e-12 7.20026e-26)
(2.61952e-11 7.74102e-12 -7.1219e-26)
(3.14104e-11 1.31441e-11 4.33313e-26)
(3.90573e-11 1.78256e-11 -5.04341e-26)
(4.22069e-11 2.07183e-11 -5.08945e-26)
(3.71147e-11 2.27169e-11 -4.58626e-26)
(2.99518e-11 2.05741e-11 -8.02061e-26)
(3.05039e-11 2.04212e-11 0)
(3.07445e-11 2.434e-11 0)
(3.37249e-11 3.22414e-11 8.25977e-26)
(5.1607e-11 4.67632e-11 5.04016e-26)
(7.49902e-11 6.60534e-11 6.33987e-26)
(8.21825e-11 8.79762e-11 -7.9074e-26)
(1.01183e-10 1.14239e-10 1.04654e-25)
(1.8858e-10 1.9498e-10 -3.77343e-29)
(5.38908e-10 5.02596e-10 6.06115e-29)
(1.6035e-09 1.36981e-09 -2.17359e-24)
(3.7707e-09 3.91257e-09 -2.42962e-24)
(7.78424e-09 9.63753e-09 -4.50264e-24)
(1.83195e-08 1.98262e-08 1.58575e-23)
(2.96667e-08 2.73533e-08 -2.4936e-23)
(4.17623e-08 2.97618e-08 1.92546e-23)
(5.91592e-08 4.55007e-08 3.48055e-27)
(6.50299e-08 1.06689e-07 1.0615e-22)
(1.00797e-07 1.33314e-07 0)
(2.05834e-07 9.84486e-08 1.42659e-22)
(3.35322e-07 1.50293e-07 1.77859e-28)
(5.56632e-07 2.35049e-07 8.13608e-22)
(8.35246e-07 3.3459e-07 0)
(1.25872e-06 4.89421e-07 0)
(1.97674e-06 7.25105e-07 9.71964e-22)
(0 0 0)
(0 0 0)
(0 0 0)
(3.72712e-06 1.00158e-06 1.5056e-21)
(3.67811e-06 9.18293e-07 2.13169e-21)
(2.86017e-06 6.55123e-07 0)
(2.07828e-06 4.35281e-07 -2.12925e-28)
(1.42444e-06 2.68442e-07 -4.03597e-22)
(9.1936e-07 1.55083e-07 0)
(5.86143e-07 8.70043e-08 -1.50913e-22)
(3.71561e-07 4.78023e-08 4.78879e-23)
(2.19505e-07 2.28774e-08 0)
(1.42725e-07 -5.44314e-08 -1.98607e-23)
(9.99019e-08 -4.58595e-08 0)
(6.75092e-08 -9.64136e-09 0)
(4.76509e-08 -4.67488e-09 0)
(3.26501e-08 -3.00588e-09 1.92309e-25)
(0 0 0)
(0 0 0)
(0 0 0)
(0 0 0)
(0 0 0)
(0 0 0)
(0 0 0)
(0 0 0)
(0 0 0)
(0 0 0)
(0 0 0)
(0 0 0)
(0 0 0)
(0 0 0)
(0 0 0)
(0 0 0)
(0 0 0)
(0 0 0)
(0 0 0)
(0 0 0)
(0 0 0)
(0 0 0)
(0 0 0)
(0 0 0)
(0 0 0)
(0 0 0)
(1.30729e-07 -7.75201e-08 -3.57775e-22)
(1.9914e-08 -9.94217e-09 -5.19193e-23)
(2.52071e-09 -8.91579e-10 1.06629e-23)
(4.26491e-10 -1.08658e-10 0)
(1.24817e-10 -2.61203e-11 -1.73129e-25)
(5.57563e-11 -5.70535e-12 6.48089e-26)
(3.47494e-11 1.72184e-12 -3.257e-31)
(3.18072e-11 5.58307e-12 8.12537e-26)
(4.28183e-11 1.21794e-11 -4.89052e-26)
(5.32212e-11 1.89735e-11 -5.63314e-26)
(5.52022e-11 2.36541e-11 5.46637e-30)
(4.67794e-11 2.84249e-11 5.15088e-26)
(3.8169e-11 2.79181e-11 9.027e-26)
(3.4881e-11 2.3564e-11 -4.04159e-26)
(3.20406e-11 2.19533e-11 3.80515e-26)
(3.79343e-11 2.31168e-11 -7.61575e-26)
(4.53262e-11 2.86947e-11 -3.99891e-26)
(4.38604e-11 3.8679e-11 8.44855e-26)
(4.0973e-11 4.50378e-11 -4.43916e-26)
(5.99375e-11 5.61754e-11 -5.31794e-26)
(1.30257e-10 8.98489e-11 -1.04644e-29)
(3.40261e-10 2.3432e-10 4.10272e-25)
(7.19379e-10 5.24266e-10 4.27218e-25)
(1.10553e-09 8.45883e-10 -6.18027e-25)
(1.58428e-09 1.35182e-09 0)
(2.56563e-09 2.02919e-09 -1.03327e-24)
(3.59088e-09 3.35707e-09 -2.8554e-24)
(4.72149e-09 5.05738e-09 -2.49905e-28)
(6.14331e-09 6.06743e-09 -2.90678e-28)
(1.04445e-08 9.06388e-09 9.46815e-24)
(2.02469e-08 1.36007e-08 -1.3582e-23)
(2.81725e-08 1.57252e-08 9.55308e-24)
(3.75607e-08 1.88074e-08 1.34777e-23)
(5.13867e-08 2.58355e-08 -7.90049e-27)
(6.78218e-08 3.39719e-08 2.63651e-23)
(9.3159e-08 4.75168e-08 -3.44642e-23)
(1.12964e-07 1.13756e-07 -2.35578e-23)
(1.74701e-07 1.58277e-07 3.76737e-23)
(2.54182e-07 8.03672e-08 9.73002e-23)
(2.02799e-07 -4.09449e-08 -9.73239e-23)
(2.10107e-07 -6.56972e-08 -2.89451e-23)
(1.71736e-07 7.66169e-09 -2.50284e-23)
(1.42189e-07 2.9986e-08 -2.1118e-23)
(1.18384e-07 2.79447e-08 3.44961e-23)
(9.88912e-08 1.77683e-08 -1.35503e-23)
(7.77575e-08 9.1337e-09 0)
(6.03543e-08 7.30546e-09 -7.26869e-24)
(4.47275e-08 8.18247e-09 5.3658e-24)
(3.28602e-08 5.62272e-09 0)
(2.29774e-08 9.22644e-10 7.90414e-28)
(1.2748e-08 -1.07948e-09 -5.52247e-25)
(9.30074e-09 -1.20733e-09 -3.91095e-25)
(6.90336e-09 -1.1034e-09 4.0933e-25)
(4.76762e-09 -1.0816e-09 -9.33563e-26)
(0 0 0)
(0 0 0)
(0 0 0)
(0 0 0)
(0 0 0)
(0 0 0)
(0 0 0)
(0 0 0)
(0 0 0)
(0 0 0)
(0 0 0)
(0 0 0)
(0 0 0)
(0 0 0)
(0 0 0)
(0 0 0)
(0 0 0)
(0 0 0)
(0 0 0)
(0 0 0)
(0 0 0)
(0 0 0)
(0 0 0)
(0 0 0)
(0 0 0)
(0 0 0)
(1.37385e-07 -8.07445e-08 0)
(2.11617e-08 -9.6723e-09 2.40295e-23)
(2.45798e-09 -1.17701e-09 -3.31096e-24)
(4.35875e-10 -1.67464e-10 6.45625e-25)
(1.51439e-10 -3.98494e-11 -1.3409e-29)
(7.20547e-11 -4.59713e-12 2.00764e-25)
(4.28182e-11 2.78684e-12 -4.39435e-26)
(4.33501e-11 5.43929e-12 4.36419e-26)
(5.60941e-11 1.16542e-11 0)
(6.27736e-11 1.91222e-11 0)
(6.2775e-11 2.3182e-11 7.90185e-30)
(5.2174e-11 2.7076e-11 -5.50007e-26)
(4.63416e-11 3.37449e-11 -5.13646e-26)
(4.80017e-11 3.61136e-11 4.84842e-26)
(5.2443e-11 3.44918e-11 -4.66164e-26)
(5.65256e-11 3.09198e-11 4.57943e-26)
(5.42389e-11 3.21566e-11 4.54835e-26)
(4.9912e-11 4.14277e-11 -8.71098e-30)
(5.05284e-11 4.2983e-11 0)
(7.27421e-11 4.59998e-11 0)
(1.301e-10 7.03051e-11 7.76604e-26)
(2.19256e-10 1.33954e-10 -4.14699e-25)
(3.05514e-10 1.96517e-10 -1.8789e-25)
(3.23725e-10 1.76099e-10 3.68363e-25)
(3.43971e-10 1.94443e-10 0)
(3.76961e-10 2.69052e-10 1.84516e-25)
(4.14191e-10 4.28791e-10 0)
(6.49722e-10 7.9952e-10 0)
(1.11614e-09 1.01397e-09 0)
(1.88162e-09 1.11583e-09 0)
(2.69376e-09 1.62971e-09 8.75275e-25)
(3.46871e-09 2.30636e-09 -1.1424e-24)
(4.47139e-09 2.73426e-09 -2.98887e-24)
(6.08578e-09 3.19048e-09 -1.98221e-24)
(8.49904e-09 3.31592e-09 2.53252e-24)
(1.12933e-08 3.5833e-09 -3.0263e-24)
(1.39076e-08 5.56651e-09 0)
(2.29273e-08 9.51651e-09 -2.42739e-24)
(2.57872e-08 8.33279e-09 -5.038e-24)
(2.3851e-08 4.64054e-09 4.35737e-24)
(1.64486e-08 1.92614e-09 0)
(1.22447e-08 1.97252e-09 -1.94745e-24)
(1.06118e-08 1.75795e-09 3.94754e-29)
(9.94352e-09 1.13048e-09 2.95245e-24)
(9.16022e-09 6.90594e-10 -1.21455e-24)
(7.74449e-09 2.34995e-10 0)
(6.10346e-09 2.95977e-10 3.79593e-25)
(4.65669e-09 7.16952e-10 -3.00439e-25)
(3.90179e-09 9.33652e-10 -4.86007e-25)
(3.21189e-09 7.04277e-10 3.91479e-25)
(2.46766e-09 6.50713e-11 7.61158e-26)
(1.86649e-09 -2.59266e-10 5.73514e-26)
(1.31327e-09 -1.63953e-10 4.26327e-26)
(8.73136e-10 -5.97998e-11 -3.91091e-27)
(0 0 0)
(0 0 0)
(0 0 0)
(0 0 0)
(0 0 0)
(0 0 0)
(0 0 0)
(0 0 0)
(0 0 0)
(0 0 0)
(0 0 0)
(0 0 0)
(0 0 0)
(0 0 0)
(0 0 0)
(0 0 0)
(0 0 0)
(0 0 0)
(0 0 0)
(0 0 0)
(0 0 0)
(0 0 0)
(0 0 0)
(0 0 0)
(0 0 0)
(0 0 0)
(1.46375e-07 -8.55037e-08 8.06385e-29)
(2.02202e-08 -8.48534e-09 -2.15093e-23)
(2.29108e-09 -9.75922e-10 2.97268e-24)
(5.1159e-10 -1.77294e-10 5.83719e-25)
(1.9873e-10 -4.23469e-11 1.56566e-25)
(8.58236e-11 -8.08041e-12 -1.91837e-25)
(4.78849e-11 2.35663e-12 4.3276e-26)
(4.99575e-11 5.71041e-12 -4.27545e-26)
(6.13792e-11 1.07865e-11 9.5245e-30)
(6.0629e-11 1.51137e-11 -1.04588e-25)
(5.49684e-11 2.02242e-11 5.34903e-26)
(5.16167e-11 2.40492e-11 0)
(6.15483e-11 2.95939e-11 0)
(7.32504e-11 3.858e-11 -5.23235e-26)
(7.53142e-11 4.87133e-11 5.18588e-26)
(7.4603e-11 4.93585e-11 0)
(7.80638e-11 4.54449e-11 0)
(7.46393e-11 5.04787e-11 -5.03319e-26)
(7.88727e-11 5.7686e-11 9.83485e-26)
(1.0377e-10 6.51645e-11 -3.30835e-30)
(1.2814e-10 7.79103e-11 -1.53045e-25)
(1.42273e-10 8.9782e-11 2.81598e-25)
(1.37643e-10 8.33164e-11 -8.57705e-26)
(1.14435e-10 5.56948e-11 -6.86683e-26)
(9.43627e-11 4.6479e-11 7.7964e-30)
(7.65675e-11 5.34554e-11 -4.83255e-26)
(8.64342e-11 6.5826e-11 0)
(1.56942e-10 1.15541e-10 1.41e-25)
(2.74444e-10 1.89131e-10 3.96298e-30)
(3.77305e-10 2.21993e-10 -1.23712e-25)
(4.8491e-10 2.71203e-10 0)
(6.27461e-10 3.71384e-10 -3.78923e-25)
(8.72524e-10 4.72146e-10 4.71269e-25)
(1.15673e-09 5.09729e-10 2.97652e-25)
(1.49496e-09 4.94536e-10 -3.60544e-25)
(1.66354e-09 5.79083e-10 3.99809e-25)
(1.76056e-09 7.1429e-10 4.6921e-25)
(2.25868e-09 6.04718e-10 -1.11548e-24)
(2.35117e-09 4.5937e-10 5.08745e-25)
(2.19926e-09 7.16727e-10 -2.53319e-25)
(1.84999e-09 8.14549e-10 4.98845e-25)
(1.67378e-09 5.34168e-10 0)
(1.57958e-09 2.24063e-10 2.23689e-25)
(1.51437e-09 4.42207e-11 -1.95495e-25)
(1.32233e-09 8.66424e-12 1.65794e-25)
(1.10883e-09 5.09987e-11 -1.38299e-25)
(8.01063e-10 1.04736e-10 -1.14691e-25)
(6.18038e-10 1.05277e-10 1.43875e-25)
(5.64255e-10 5.59156e-11 8.17503e-26)
(5.5805e-10 2.71947e-11 -3.47985e-26)
(4.89823e-10 -2.62034e-12 -5.74456e-26)
(3.68776e-10 -9.41289e-12 -2.87593e-30)
(2.66672e-10 8.60397e-12 9.28669e-27)
(2.0897e-10 1.32545e-11 0)
(0 0 0)
(0 0 0)
(0 0 0)
(0 0 0)
(0 0 0)
(0 0 0)
(0 0 0)
(0 0 0)
(0 0 0)
(0 0 0)
(0 0 0)
(0 0 0)
(0 0 0)
(0 0 0)
(0 0 0)
(0 0 0)
(0 0 0)
(0 0 0)
(0 0 0)
(0 0 0)
(0 0 0)
(0 0 0)
(0 0 0)
(0 0 0)
(0 0 0)
(0 0 0)
(1.68633e-07 -9.95477e-08 1.15595e-21)
(2.18243e-08 -1.04655e-08 -2.06317e-23)
(2.75221e-09 -6.89498e-10 2.80647e-24)
(7.03191e-10 -8.69576e-11 -1.62956e-24)
(2.33772e-10 -2.34152e-11 0)
(8.0023e-11 -8.51498e-12 0)
(4.61021e-11 -5.49477e-13 7.79156e-26)
(5.27032e-11 1.64406e-12 -2.28653e-25)
(5.47782e-11 5.79609e-12 8.45146e-26)
(4.89313e-11 1.23754e-11 0)
(5.37107e-11 1.72032e-11 -4.7752e-26)
(6.49722e-11 2.13807e-11 0)
(7.98572e-11 2.42062e-11 1.51101e-25)
(8.32059e-11 3.00171e-11 -4.37892e-30)
(7.8733e-11 4.18984e-11 -1.99165e-25)
(8.51855e-11 5.32292e-11 4.96529e-26)
(8.97316e-11 5.57907e-11 0)
(8.70673e-11 5.18001e-11 5.11154e-26)
(1.01865e-10 5.46842e-11 0)
(1.08644e-10 7.50159e-11 1.74015e-25)
(1.07893e-10 9.40242e-11 -1.99883e-25)
(1.03055e-10 6.99796e-11 1.19436e-25)
(8.44893e-11 5.17426e-11 0)
(7.65929e-11 4.15146e-11 0)
(6.20014e-11 3.08066e-11 -3.08587e-26)
(4.45282e-11 2.76505e-11 7.15327e-26)
(5.0079e-11 2.37112e-11 -2.25847e-26)
(7.16115e-11 2.70316e-11 5.28783e-31)
(9.4112e-11 4.6773e-11 -3.22424e-26)
(1.15327e-10 6.12398e-11 7.39771e-26)
(1.36265e-10 6.62707e-11 -4.16056e-26)
(1.6678e-10 7.13289e-11 9.49905e-26)
(2.0731e-10 9.19944e-11 -1.10495e-25)
(2.31077e-10 1.06168e-10 -1.29586e-25)
(2.62755e-10 8.8833e-11 7.19472e-26)
(2.41461e-10 1.02156e-10 -7.12442e-26)
(2.76772e-10 1.34002e-10 -8.08747e-26)
(3.68833e-10 8.87769e-11 0)
(3.0931e-10 6.59573e-11 -7.78601e-26)
(3.04025e-10 1.09535e-10 -4.19879e-26)
(3.1728e-10 1.24057e-10 0)
(3.20464e-10 9.9808e-11 0)
(3.26484e-10 4.25209e-11 3.93212e-26)
(2.96201e-10 5.87762e-12 -1.87527e-29)
(2.54255e-10 6.43824e-12 3.2173e-26)
(2.10616e-10 2.96897e-11 0)
(1.714e-10 4.64891e-11 1.24773e-26)
(1.64301e-10 2.85021e-11 1.12889e-26)
(1.61118e-10 4.18032e-12 2.53459e-30)
(1.45897e-10 -5.35721e-13 -9.66356e-27)
(1.21912e-10 3.39184e-12 1.72914e-26)
(9.52609e-11 3.63225e-12 -7.62972e-27)
(8.18752e-11 1.08707e-12 -1.71951e-27)
(8.17489e-11 -3.53596e-12 0)
(0 0 0)
(0 0 0)
(0 0 0)
(0 0 0)
(0 0 0)
(0 0 0)
(0 0 0)
(0 0 0)
(0 0 0)
(0 0 0)
(0 0 0)
(0 0 0)
(0 0 0)
(0 0 0)
(0 0 0)
(0 0 0)
(0 0 0)
(0 0 0)
(0 0 0)
(0 0 0)
(0 0 0)
(0 0 0)
(0 0 0)
(0 0 0)
(0 0 0)
(0 0 0)
(1.97649e-07 -1.16789e-07 -6.25255e-22)
(2.78959e-08 -1.28498e-08 6.38475e-23)
(4.16721e-09 -9.03082e-10 5.62161e-24)
(8.96834e-10 -7.60214e-11 2.10762e-24)
(2.15419e-10 -1.22637e-11 -2.66942e-25)
(6.89459e-11 -2.47825e-12 -5.11813e-26)
(4.739e-11 3.86144e-13 0)
(4.8006e-11 1.46096e-12 -3.22204e-26)