/*--------------------------------*- C++ -*----------------------------------*\
  =========                 |
  \\      /  F ield         | OpenFOAM: The Open Source CFD Toolbox
   \\    /   O peration     | Website:  https://openfoam.org
    \\  /    A nd           | Version:  7
     \\/     M anipulation  |
\*---------------------------------------------------------------------------*/
FoamFile
{
    version     2.0;
    format      ascii;
    class       surfaceScalarField;
    location    "25";
    object      alphaPhi;
}
// * * * * * * * * * * * * * * * * * * * * * * * * * * * * * * * * * * * * * //

dimensions      [0 3 -1 0 0 0 0];

internalField   nonuniform List<scalar> 
99520
(
0
0
0
0
0
0
0
0
0
0
0
0
0
0
0
0
0
0
0
0
0
0
0
0
0
0
0
0
0
0
0
0
0
0
0
0
0
0
0
0
0
0
0
0
0
0
0
0
0
0
0
0
0
0
0
0
0
0
0
0
0
0
0
0
0
0
0
0
0
0
0
0
0
0
0
0
0
0
0
0
0
0
0
0
0
0
0
0
0
0
0
0
0
0
0
0
0
0
0
0
0
0
0
0
0
0
0
0
0
0
0
0
0
0
0
0
0
0
0
0
0
0
0
0
0
0
0
0
0
0
0
0
0
0
0
0
0
0
0
0
0
0
0
0
0
0
0
0
0
0
0
0
0
0
0
0
0
0
0
0
0
0
0
0
0
0
0
0
0
0
0
0
0
0
0
0
0
0
0
0
0
0
0
0
0
0
0
0
0
0
0
0
0
0
0
0
0
0
0
0
0
0
0
0
0
0
0
0
0
0
0
0
0
0
0
0
0
0
0
0
0
0
0
0
0
0
0
0
0
0
0
0
0
0
0
0
0
0
0
0
0
0
0
0
0
0
0
0
0
0
0
0
0
0
0
0
0
0
0
0
0
0
0
0
0
0
0
0
0
0
0
0
0
0
0
0
0
0
0
0
0
0
0
0
0
0
0
0
0
0
0
0
0
0
0
0
0
0
0
0
0
0
0
0
0
0
0
0
0
0
0
0
0
0
0
0
0
0
0
0
0
0
0
0
0
0
0
0
0
0
0
0
0
0
0
0
0
0
0
0
0
0
0
0
0
0
0
0
0
0
0
0
0
0
0
0
0
0
0
0
0
0
0
0
0
0
0
0
0
0
0
0
0
0
0
0
0
0
0
0
0
0
0
0
0
0
0
0
0
0
0
0
0
0
0
0
0
0
0
0
0
0
0
0
0
0
0
0
0
0
0
0
0
0
0
0
0
0
0
0
0
0
0
0
0
0
0
0
0
0
0
0
0
0
0
0
0
0
0
0
0
0
0
0
0
0
0
0
0
0
0
0
0
0
0
0
0
0
0
0
0
0
0
0
0
0
0
0
0
0
0
0
0
0
0
0
0
0
0
0
0
0
0
0
0
0
0
0
0
0
0
0
0
0
0
0
0
0
0
0
0
0
0
0
0
0
0
0
0
0
0
0
0
0
0
0
0
0
0
0
0
0
0
0
0
0
0
0
0
0
0
0
0
0
0
0
0
0
0
0
0
0
0
0
0
0
0
0
0
0
0
0
0
0
0
0
0
0
0
0
0
0
0
0
0
0
0
0
0
0
0
0
0
0
0
0
0
0
0
0
0
0
0
0
0
0
0
0
0
0
0
0
0
0
0
0
0
0
0
0
0
0
0
0
0
0
0
0
0
0
0
0
0
0
0
0
0
0
0
0
0
0
0
0
0
0
0
0
0
0
0
0
0
0
0
0
0
0
0
0
0
0
0
0
0
0
0
0
0
0
0
0
0
0
0
0
0
0
0
0
0
0
0
0
0
0
0
0
0
0
0
0
0
0
0
0
0
0
0
0
0
0
0
0
0
0
0
0
0
0
0
0
0
0
0
0
0
0
0
0
0
0
0
0
0
0
0
0
0
0
0
0
0
0
0
0
0
0
0
0
0
0
0
0
0
0
0
0
0
0
0
0
0
0
0
0
0
0
0
0
0
0
0
0
0
0
0
0
0
0
0
0
0
0
0
0
0
0
0
0
0
0
0
0
0
0
0
0
0
0
0
0
0
0
0
0
0
0
0
0
0
0
0
0
0
0
0
0
0
0
0
0
0
0
0
0
0
0
0
0
0
0
0
0
0
0
0
0
0
0
0
0
0
0
0
0
0
0
0
0
0
0
0
0
0
0
0
0
0
0
0
0
0
0
0
0
0
0
0
0
0
0
0
0
0
0
0
0
0
0
0
0
0
0
0
0
0
0
0
0
0
0
0
0
0
0
0
0
0
0
0
0
0
0
0
0
0
0
0
0
0
0
0
0
0
0
0
0
0
0
0
0
0
0
0
0
0
0
0
0
0
0
0
0
0
0
0
0
0
0
0
0
0
0
0
0
0
0
0
0
0
0
0
0
0
0
0
0
0
0
0
0
0
0
0
0
0
0
0
0
0
0
0
0
0
0
0
0
0
0
0
0
0
0
0
0
0
0
0
0
0
0
0
0
5.43472e-323
-3.95253e-323
0
0
0
0
0
0
0
0
0
0
0
0
0
0
0
0
0
0
0
0
0
0
0
0
0
0
0
0
0
0
0
0
0
0
0
0
0
0
0
0
0
0
0
0
0
0
0
0
0
0
0
0
0
0
0
0
0
0
0
0
0
0
0
0
0
0
0
0
0
0
0
0
0
0
0
0
0
0
0
0
0
0
0
0
0
0
0
0
0
0
0
0
0
0
0
0
0
0
0
0
0
0
0
0
0
0
0
0
0
0
0
0
0
0
0
0
0
0
0
0
0
0
0
0
0
0
0
0
0
0
0
0
0
0
0
0
0
0
0
0
0
0
0
0
0
0
0
0
0
0
0
0
0
0
0
0
0
-3.95253e-323
4.94066e-323
4.11557e-321
-3.1719e-321
0
0
0
0
0
0
0
0
0
0
0
0
0
0
0
0
0
0
0
0
0
0
0
0
0
0
0
0
0
0
0
0
0
0
0
0
0
0
0
0
0
0
0
0
0
0
0
0
0
0
0
0
0
0
0
0
0
0
0
0
0
0
0
0
0
0
0
0
0
0
0
0
0
0
0
0
0
0
0
0
0
0
0
0
0
0
0
0
0
0
0
0
0
0
0
0
0
0
0
0
0
0
0
0
0
0
0
0
0
0
0
0
0
0
0
0
0
0
0
0
0
0
0
0
0
0
0
0
0
0
0
0
0
0
0
0
0
0
0
0
0
0
0
0
0
0
0
0
0
0
0
0
0
0
0
-2.47033e-323
2.96439e-323
-1.65018e-321
2.00591e-321
1.41248e-319
-1.12133e-319
0
0
0
0
0
0
0
0
0
0
0
0
0
0
0
0
0
0
0
0
0
0
0
0
0
0
0
0
0
0
0
0
0
0
0
0
0
0
0
0
0
0
0
0
0
0
0
0
0
0
0
0
0
0
0
0
0
0
0
0
0
0
0
0
0
0
0
0
0
0
0
0
0
0
0
0
0
0
0
0
0
0
0
0
0
0
0
0
0
0
0
0
0
0
0
0
0
0
0
0
0
0
0
0
0
0
0
0
0
0
0
0
0
0
0
0
0
0
0
0
0
0
0
0
0
0
0
0
0
0
0
0
0
0
0
0
0
0
0
0
0
0
0
0
0
0
0
0
0
0
0
0
0
-1.4822e-323
1.97626e-323
-7.01573e-322
8.54734e-322
-3.67288e-320
4.49204e-320
2.67442e-318
-2.13345e-318
0
0
0
0
0
0
0
0
0
0
0
0
0
0
0
0
0
0
0
0
0
0
0
0
0
0
0
0
0
0
0
0
0
0
0
0
0
0
0
0
0
0
0
0
0
0
0
0
0
0
0
0
0
0
0
0
0
0
0
0
0
0
0
0
0
0
0
0
0
0
0
0
0
0
0
0
0
0
0
0
0
0
0
0
0
0
0
0
0
0
0
0
0
0
0
0
0
0
0
0
0
0
0
0
0
0
0
0
0
0
0
0
0
0
0
0
0
0
0
0
0
0
0
0
0
0
0
0
0
0
0
0
0
0
0
0
0
0
0
0
0
0
0
0
0
0
0
0
0
0
0
-9.88131e-324
9.88131e-324
-3.0138e-322
3.90312e-322
-1.16254e-320
1.47923e-320
-5.07643e-319
6.43367e-319
3.20918e-317
-2.49092e-317
0
5.91453e-294
1.29457e-294
0
0
0
0
0
0
0
0
0
0
0
0
0
0
0
0
0
0
0
0
0
0
0
0
0
0
0
0
0
0
0
0
0
0
0
0
0
0
0
0
0
0
0
0
0
0
0
0
0
0
0
0
0
0
0
0
0
0
0
0
0
0
0
0
0
0
0
0
0
0
0
0
0
0
0
0
0
0
0
0
0
0
0
0
0
0
0
0
0
0
0
0
0
0
0
0
-1.4822e-323
1.97626e-323
-1.33398e-322
1.82804e-322
-1.17588e-321
1.60077e-321
-1.00987e-320
1.39969e-320
-8.57402e-320
1.20942e-319
-7.21924e-319
1.03582e-318
-6.03843e-318
8.81958e-318
-5.04134e-317
7.48867e-317
-4.21215e-316
6.36306e-316
-3.54421e-315
5.43176e-315
-3.01705e-314
4.68117e-314
-2.62322e-313
4.09797e-313
-2.34907e-312
3.67328e-312
-2.19719e-311
3.40589e-311
-2.17055e-310
3.30706e-310
-2.29564e-309
3.40778e-309
-2.61118e-308
3.77026e-308
-3.2012e-307
4.51034e-307
-4.19651e-306
5.8352e-306
-5.84217e-305
8.12106e-305
-8.55159e-304
1.20545e-303
-1.30873e-302
1.89338e-302
-2.08628e-301
3.12682e-301
-3.45674e-300
5.41199e-300
-5.97137e-299
9.80494e-299
-1.0762e-297
1.86225e-297
-2.04178e-296
3.71878e-296
-4.09385e-295
7.85364e-295
-8.77278e-294
1.76683e-293
-2.01867e-292
4.27967e-292
1.13041e-290
-4.99875e-291
-4.73461e-307
5.07047e-248
7.79884e-249
0
1.52275e-306
0
0
0
0
0
0
0
0
0
0
0
0
0
0
0
0
0
0
0
0
0
0
0
0
0
0
0
0
0
0
0
0
0
0
0
0
0
0
0
0
0
0
0
0
0
0
0
0
0
0
0
0
0
0
0
0
2.82412e-315
6.38826e-313
-2.0911e-304
2.06575e-304
-2.36929e-302
2.31067e-302
-1.17689e-300
1.14202e-300
-3.92063e-299
3.80073e-299
-1.01095e-297
9.8132e-298
-2.1661e-296
2.1092e-296
-4.02661e-295
3.93763e-295
-6.67338e-294
6.56423e-294
-1.00529e-292
9.9704e-293
-1.40086e-291
1.39692e-291
-1.82589e-290
1.83433e-290
-2.24413e-289
2.27391e-289
-2.62512e-288
2.68213e-288
-2.93974e-287
3.03042e-287
-3.17703e-286
3.30023e-286
-3.33161e-285
3.48492e-285
-3.42118e-284
3.5909e-284
-3.46653e-283
3.63667e-283
-3.51176e-282
3.65221e-282
-3.60124e-281
3.67819e-281
-3.80497e-280
3.76705e-280
-4.19592e-279
3.98536e-279
-4.88443e-278
4.41998e-278
-5.99586e-277
5.18656e-277
-7.72378e-276
6.44575e-276
-1.03041e-274
8.42388e-275
-1.41126e-273
1.14516e-273
-1.96257e-272
1.6013e-272
-2.76267e-271
2.28401e-271
-3.91328e-270
3.3036e-270
-5.58728e-269
4.83209e-269
-8.01461e-268
7.13643e-268
-1.15984e-266
1.06466e-266
-1.6894e-265
1.60532e-265
-2.48997e-264
2.45104e-264
-3.70659e-263
3.79492e-263
-5.60379e-262
5.97365e-262
-8.59736e-261
9.57885e-261
-1.34492e-259
1.56943e-259
-2.1485e-258
2.63386e-258
-3.5157e-257
4.54332e-257
-5.92266e-256
8.08021e-256
-1.02874e-254
1.48787e-254
-1.85924e-253
2.84791e-253
-3.50414e-252
5.69977e-252
-6.97835e-251
1.2001e-250
-1.47483e-249
2.68359e-249
-3.36648e-248
6.44594e-248
1.69256e-246
-8.3385e-247
1.69148e-290
-8.01023e-231
-8.40151e-232
0
-6.95793e-290
0
0
0
0
0
0
0
0
0
0
0
0
0
0
0
0
0
0
0
0
0
0
0
0
0
0
0
0
0
0
0
0
0
0
0
0
0
0
0
0
0
0
0
0
0
0
0
0
0
0
0
0
0
0
0
0
-1.0779e-289
1.06667e-289
-2.88769e-287
2.74428e-287
-1.733e-285
1.63078e-285
-6.22506e-284
5.84244e-284
-1.65328e-282
1.55227e-282
-3.55505e-281
3.34819e-281
-6.52363e-280
6.17122e-280
-1.05403e-278
1.00341e-278
-1.53423e-277
1.47219e-277
-2.04562e-276
1.97762e-276
-2.5325e-275
2.46934e-275
-2.93707e-274
2.89149e-274
-3.22263e-273
3.20213e-273
-3.36857e-272
3.37827e-272
-3.38634e-271
3.41953e-271
-3.30156e-270
3.34576e-270
-3.16568e-269
3.19318e-269
-3.03345e-268
3.00905e-268
-2.97713e-267
2.84791e-267
-3.06733e-266
2.76967e-266
-3.39344e-265
2.84063e-265
-4.04892e-264
3.1371e-264
-5.16121e-263
3.75272e-263
-6.8767e-262
4.80788e-262
-9.40999e-261
6.46577e-261
-1.30191e-259
8.95056e-260
-1.81005e-258
1.2581e-258
-2.51375e-257
1.78079e-257
-3.49021e-256
2.52895e-256
-4.83416e-255
3.59775e-255
-6.70281e-254
5.1296e-254
-9.2915e-253
7.33563e-253
-1.29359e-251
1.05409e-251
-1.8063e-250
1.52421e-250
-2.54275e-249
2.22293e-249
-3.60307e-248
3.27533e-248
-5.16669e-247
4.88794e-247
-7.48828e-246
7.40189e-246
-1.10235e-244
1.14048e-244
-1.6483e-243
1.79168e-243
-2.51253e-242
2.87835e-242
-3.91436e-241
4.74017e-241
-6.24308e-240
8.02875e-240
-1.02534e-238
1.40258e-238
-1.7342e-237
2.53741e-237
-3.0494e-236
4.77031e-236
-5.57381e-235
9.37229e-235
-1.07186e-233
1.93491e-233
-2.17554e-232
4.23617e-232
9.9576e-231
-4.72267e-231
4.73254e-260
-6.87479e-224
-4.64741e-225
5.60382e-266
-2.50048e-259
-1.78604e-298
-2.11719e-265
0
7.11075e-298
0
0
0
0
0
0
0
0
0
0
0
0
0
0
0
0
0
0
0
0
0
0
0
0
0
0
0
0
0
0
0
0
0
0
0
0
0
0
0
0
0
0
0
0
0
0
0
0
0
0
1.59599e-293
5.84238e-291
5.25785e-286
-5.90632e-286
2.72195e-284
-3.90088e-284
9.29542e-284
-9.89987e-283
-4.47151e-281
-2.34457e-282
-2.86113e-279
8.88024e-280
-1.18283e-277
4.78161e-278
-3.94425e-276
1.72991e-276
-1.18436e-274
5.18975e-275
-3.09361e-273
1.42736e-273
-7.43461e-272
3.46962e-272
-1.66271e-270
7.84355e-271
-3.49507e-269
1.66682e-269
-6.9481e-268
3.35389e-268
-1.31514e-266
6.42938e-267
-2.37986e-265
1.17986e-265
-4.13948e-264
2.08215e-264
-6.94087e-263
3.5468e-263
-1.12716e-261
5.85359e-262
-1.77655e-260
9.38888e-261
-2.7292e-259
1.46825e-259
-4.09276e-258
2.24463e-258
-6.01543e-257
3.36414e-257
-8.67458e-256
4.95476e-256
-1.23212e-254
7.18972e-255
-1.72495e-253
1.03009e-253
-2.38948e-252
1.46072e-252
-3.27629e-251
2.05422e-251
-4.46392e-250
2.87154e-250
-6.04372e-249
3.99747e-249
-8.16431e-248
5.5543e-248
-1.09998e-246
7.71644e-247
-1.48451e-245
1.07427e-245
-2.00517e-244
1.50127e-244
-2.72329e-243
2.11069e-243
-3.71434e-242
2.99044e-242
-5.11226e-241
4.27946e-241
-7.09096e-240
6.19597e-240
-9.95885e-239
9.09793e-239
-1.41502e-237
1.3572e-237
-2.04214e-236
2.06216e-236
-2.99569e-235
3.19749e-235
-4.47757e-234
5.07344e-234
-6.84132e-233
8.25554e-233
-1.06879e-231
1.38194e-231
-1.7181e-230
2.38547e-230
-2.83639e-229
4.26245e-229
-4.85259e-228
7.90563e-228
-8.54395e-227
1.52911e-226
-1.54076e-225
3.08873e-225
6.47177e-224
-2.58371e-224
1.36562e-234
-5.39127e-178
-2.08635e-179
1.29007e-241
-9.32385e-234
-1.68384e-268
-5.62631e-241
0
7.07179e-268
0
0
0
0
0
0
0
0
0
0
0
0
0
0
0
0
0
0
0
0
0
0
0
0
0
0
0
0
0
0
0
0
0
0
0
0
0
0
0
0
0
0
0
0
0
0
0
0
0
0
-5.44395e-282
1.24708e-281
-3.20554e-280
7.13721e-280
-5.91271e-279
1.33041e-278
-6.57674e-278
1.54278e-277
-5.0062e-277
1.29691e-276
-2.56426e-276
8.12261e-276
-1.46413e-275
3.59072e-275
-5.41401e-274
1.8266e-274
-2.02519e-272
6.14012e-273
-5.75627e-271
2.1244e-271
-1.38106e-269
5.64938e-270
-2.97544e-268
1.28173e-268
-5.93049e-267
2.63181e-267
-1.1126e-265
5.0375e-266
-1.98263e-264
9.1274e-265
-3.38115e-263
1.58028e-263
-5.5412e-262
2.63003e-262
-8.77086e-261
4.22772e-261
-1.34429e-259
6.58772e-260
-2.00348e-258
9.98496e-259
-2.90877e-257
1.47626e-257
-4.12992e-256
2.13527e-256
-5.74211e-255
3.02881e-255
-7.84687e-254
4.22436e-254
-1.05499e-252
5.80593e-253
-1.40054e-251
7.8825e-252
-1.83708e-250
1.05929e-250
-2.38957e-249
1.41229e-249
-3.08338e-248
1.87161e-248
-3.96151e-247
2.47091e-247
-5.06797e-246
3.25555e-246
-6.48075e-245
4.29011e-245
-8.28111e-244
5.6641e-244
-1.06171e-242
7.50865e-243
-1.36477e-241
1.0011e-241
-1.76657e-240
1.34539e-240
-2.30033e-239
1.82545e-239
-3.02657e-238
2.50637e-238
-4.01992e-237
3.48811e-237
-5.41197e-236
4.93219e-236
-7.38444e-235
7.09847e-235
-1.02436e-233
1.04246e-233
-1.44697e-232
1.56526e-232
-2.08445e-231
2.40956e-231
-3.07399e-230
3.81124e-230
-4.63884e-229
6.21352e-229
-7.20732e-228
1.0466e-227
-1.15048e-226
1.82855e-226
-1.89976e-225
3.32343e-225
-3.2282e-224
6.31423e-224
1.25726e-222
-5.53667e-223
2.88768e-196
-2.84708e-163
-4.50287e-165
2.68807e-216
-2.58085e-195
-6.64207e-261
-1.36328e-215
-1.17074e-319
2.97816e-260
0
6.09025e-319
0
0
0
0
0
0
0
0
0
0
0
0
0
0
0
0
0
0
0
0
0
0
0
0
0
0
0
0
0
0
0
0
0
0
0
0
0
0
0
0
0
0
0
0
0
0
-5.09758e-280
5.09426e-279
-1.38455e-276
2.85862e-276
-3.5517e-275
7.24449e-275
-4.86483e-274
9.93849e-274
-4.72795e-273
9.69832e-273
-3.65074e-272
7.52896e-272
-2.3736e-271
4.93323e-271
-1.32162e-270
2.82544e-270
-6.6439e-270
1.41902e-269
-3.05992e-269
6.55594e-269
-1.50881e-268
2.8104e-268
-1.29344e-267
1.30414e-267
-2.10201e-266
1.06108e-266
-3.96474e-265
1.64918e-265
-7.17622e-264
2.99325e-264
-1.22498e-262
5.24407e-263
-1.98787e-261
8.70642e-262
-3.09348e-260
1.38089e-260
-4.64211e-259
2.10876e-259
-6.74996e-258
3.11864e-258
-9.53966e-257
4.48495e-257
-1.31502e-255
6.29368e-256
-1.77197e-254
8.64208e-255
-2.34114e-253
1.16434e-253
-3.03834e-252
1.54278e-252
-3.88428e-251
2.01533e-251
-4.89928e-250
2.6009e-250
-6.11346e-249
3.32371e-249
-7.55716e-248
4.21405e-248
-9.2793e-247
5.31247e-247
-1.13307e-245
6.6715e-246
-1.37959e-244
8.36366e-245
-1.67649e-243
1.04855e-243
-2.03893e-242
1.31737e-242
-2.48352e-241
1.66149e-241
-3.03816e-240
2.10797e-240
-3.73482e-239
2.69491e-239
-4.62671e-238
3.47895e-238
-5.77872e-237
4.54281e-237
-7.2968e-236
6.01311e-236
-9.3212e-235
8.08273e-235
-1.20755e-233
1.10575e-233
-1.58848e-232
1.54259e-232
-2.12594e-231
2.19966e-231
-2.90084e-230
3.21306e-230
-4.0411e-229
4.82004e-229
-5.76253e-228
7.44365e-228
-8.418e-227
1.18685e-226
-1.26364e-225
1.95907e-225
-1.95092e-224
3.3599e-224
-3.09873e-223
6.01029e-223
1.12619e-221
-4.99306e-222
6.14907e-184
-1.99489e-156
8.51298e-156
1.15631e-211
-7.40848e-183
-1.57583e-254
-6.89814e-211
-9.8242e-291
7.64858e-254
-1.97626e-323
5.17469e-290
0
1.23516e-322
0
0
0
0
0
0
0
0
0
0
0
0
0
0
0
0
0
0
0
0
0
0
0
0
0
0
0
0
0
0
0
0
0
0
0
0
0
0
0
0
0
0
0
0
-1.57827e-273
3.04238e-273
-6.51178e-272
1.23681e-271
-1.08311e-270
2.0606e-270
-1.17195e-269
2.24108e-269
-9.67644e-269
1.86035e-268
-6.59645e-268
1.27477e-267
-3.8257e-267
7.54848e-267
-2.00525e-266
3.9141e-266
-9.53892e-266
1.87181e-265
-4.17748e-265
8.24516e-265
-1.70149e-264
3.38163e-264
-6.51018e-264
1.30205e-263
-2.38746e-263
4.74508e-263
-9.1564e-263
1.66865e-262
-4.90475e-262
6.17112e-262
-4.81565e-261
3.20466e-261
-6.63538e-260
3.06421e-260
-9.68397e-259
4.13037e-259
-1.38446e-257
5.92015e-258
-1.91947e-256
8.34573e-257
-2.5851e-255
1.14497e-255
-3.39452e-254
1.5316e-254
-4.35748e-253
2.0041e-253
-5.48507e-252
2.57277e-252
-6.78393e-251
3.24884e-251
-8.26636e-250
4.04515e-250
-9.94032e-249
4.97732e-249
-1.18265e-247
6.06509e-248
-1.39415e-246
7.33433e-247
-1.63249e-245
8.8194e-246
-1.90122e-244
1.05665e-244
-2.20766e-243
1.2638e-243
-2.55871e-242
1.51185e-242
-2.9675e-241
1.81234e-241
-3.44691e-240
2.18115e-240
-4.02018e-239
2.64034e-239
-4.71139e-238
3.22075e-238
-5.56246e-237
3.96646e-237
-6.62004e-236
4.94075e-236
-7.96237e-235
6.23702e-235
-9.68475e-234
7.99396e-234
-1.19408e-232
1.04243e-232
-1.49389e-231
1.3857e-231
-1.90007e-230
1.88193e-230
-2.46145e-229
2.61662e-229
-3.25073e-228
3.73385e-228
-4.38891e-227
5.4804e-227
-6.05397e-226
8.29686e-226
-8.56621e-225
1.29873e-224
-1.24063e-223
2.10942e-223
-1.84411e-222
3.56628e-222
6.30389e-221
-2.76925e-221
1.27072e-170
-1.11004e-153
1.81388e-153
6.57722e-193
-1.79116e-169
6.39576e-212
-4.71273e-192
-2.04273e-266
-3.4231e-211
-3.23259e-277
1.11096e-265
-3.25151e-297
2.2634e-276
-2.57775e-299
4.024e-296
2.40128e-298
3.23063e-297
2.58634e-298
1.6478e-297
2.60317e-298
1.08873e-297
2.97668e-298
9.27714e-298
4.4892e-298
1.12191e-297
1.19537e-297
2.5533e-297
1.04381e-296
2.0765e-296
9.09794e-294
1.93886e-293
8.08127e-292
2.26334e-291
1.33201e-291
6.10073e-291
4.50451e-292
3.87872e-291
5.26503e-293
8.2466e-292
3.38296e-294
7.5164e-293
1.78724e-295
4.2301e-294
9.33166e-297
2.0931e-295
4.91693e-298
1.06454e-296
2.48906e-299
5.61491e-298
1.10495e-300
2.91534e-299
3.64719e-302
1.36139e-300
5.64912e-304
4.84079e-302
-5.78204e-271
1.07404e-270
-5.01264e-269
8.84381e-269
-1.07735e-267
1.90385e-267
-1.34363e-266
2.39237e-266
-1.21063e-265
2.17155e-265
-8.73298e-265
1.57656e-264
-5.34307e-264
9.70263e-264
-2.83382e-263
5.24858e-263
-1.37268e-262
2.51871e-262
-6.0919e-262
1.12323e-261
-2.50552e-261
4.64505e-261
-9.64894e-261
1.79863e-260
-3.50279e-260
6.57135e-260
-1.20701e-259
2.27951e-259
-3.96575e-259
7.54725e-259
-1.25101e-258
2.39605e-258
-3.84166e-258
7.33552e-258
-1.21919e-257
2.19667e-257
-4.91971e-257
6.8235e-257
-3.42713e-256
2.70659e-256
-3.69778e-255
1.85952e-255
-4.56085e-254
1.98669e-254
-5.67959e-253
2.43377e-253
-6.96257e-252
3.0218e-252
-8.37193e-251
3.70413e-251
-9.89883e-250
4.47053e-250
-1.15235e-248
5.32039e-249
-1.32499e-247
6.25789e-248
-1.50626e-246
7.29001e-247
-1.69826e-245
8.42914e-246
-1.90031e-244
9.69251e-245
-2.11705e-243
1.11063e-243
-2.3491e-242
1.27052e-242
-2.60465e-241
1.45388e-241
-2.88618e-240
1.66715e-240
-3.20697e-239
1.91941e-239
-3.57261e-238
2.22255e-238
-4.00434e-237
2.59344e-237
-4.51384e-236
3.05472e-236
-5.13553e-235
3.63924e-235
-5.89441e-234
4.39254e-234
-6.84799e-233
5.38263e-233
-8.05217e-232
6.70788e-232
-9.60782e-231
8.52014e-231
-1.16439e-229
1.10497e-229
-1.43512e-228
1.46668e-228
-1.80313e-227
1.99627e-227
-2.30802e-226
2.7935e-226
-3.02006e-225
4.02707e-225
-4.03012e-224
5.99902e-224
-5.50535e-223
9.25614e-223
-7.66021e-222
1.48502e-221
2.48527e-220
-1.07524e-220
6.85368e-158
-6.87267e-152
6.50391e-152
6.04508e-180
-2.02238e-156
9.94696e-209
-5.40546e-179
1.52096e-240
-6.02805e-208
3.46429e-243
-8.75316e-240
6.47965e-246
-2.42123e-242
9.15757e-248
-7.40643e-245
-3.12339e-247
-5.07561e-246
-3.49991e-247
-2.44967e-246
-3.62565e-247
-1.62451e-246
-4.23915e-247
-1.40774e-246
-6.3893e-247
-1.71305e-246
-1.46169e-246
-3.40997e-246
-5.85532e-246
-1.30765e-245
-3.5783e-245
-8.82506e-245
-1.26813e-244
-4.20384e-244
-1.14575e-244
-6.32609e-244
-2.77716e-245
-3.03152e-244
-2.19053e-246
-4.97358e-245
-8.01539e-248
-3.08252e-246
-2.2627e-249
-9.80801e-248
-6.61814e-251
-2.60215e-249
-2.06486e-252
-7.50032e-251
-6.31578e-254
-2.37954e-252
-1.61642e-255
-7.624e-254
-2.36979e-257
-2.10992e-255
6.50298e-266
-3.37271e-257
-1.92495e-266
-2.07289e-263
-5.40313e-265
8.95237e-265
-8.0056e-264
1.32394e-263
-8.07221e-263
1.34874e-262
-6.27626e-262
1.05767e-261
-4.04026e-261
6.85886e-261
-2.22283e-260
3.84731e-260
-1.10413e-259
1.8963e-259
-4.98943e-259
8.61124e-259
-2.07862e-258
3.60643e-258
-8.07534e-258
1.4082e-257
-2.94763e-257
5.16982e-257
-1.01842e-256
1.79665e-256
-3.34636e-256
5.94382e-256
-1.05136e-255
1.88081e-255
-3.16858e-255
5.71599e-255
-9.19941e-255
1.67435e-254
-2.57961e-254
4.74263e-254
-7.02278e-254
1.30299e-253
-1.87602e-253
3.48724e-253
-5.1506e-253
9.19426e-253
-1.71569e-252
2.49915e-252
-9.40274e-252
8.27339e-252
-8.40495e-251
4.51952e-251
-9.08423e-250
4.04199e-250
-1.0154e-248
4.38343e-249
-1.13032e-247
4.93478e-248
-1.24402e-246
5.54823e-247
-1.35562e-245
6.19122e-246
-1.4636e-244
6.85961e-245
-1.57023e-243
7.56001e-244
-1.67515e-242
8.30297e-243
-1.78241e-241
9.10555e-242
-1.89232e-240
9.98857e-241
-2.01081e-239
1.09819e-239
-2.13888e-238
1.21215e-238
-2.28479e-237
1.34584e-237
-2.45065e-236
1.50553e-236
-2.64813e-235
1.70024e-235
-2.88184e-234
1.94154e-234
-3.16882e-233
2.24637e-233
-3.51957e-232
2.63765e-232
-3.96005e-231
3.14964e-231
-4.51457e-230
3.8313e-230
-5.22512e-229
4.758e-229
-6.14679e-228
6.04329e-228
-7.35409e-227
7.86893e-227
-8.96594e-226
1.05239e-225
-1.11255e-224
1.44944e-224
-1.40835e-223
2.06004e-223
-1.81408e-222
3.03075e-222
-2.37376e-221
4.62896e-221
7.36488e-220
-3.11146e-220
3.26964e-156
-1.63107e-150
1.31462e-150
1.15695e-166
-3.15054e-154
4.53239e-191
-1.38584e-165
7.86459e-213
-3.2339e-190
2.95054e-214
-4.94353e-212
7.3784e-216
-2.1213e-213
1.65197e-217
-8.09126e-215
-3.07544e-217
-6.2369e-216
-3.97676e-217
-3.09989e-216
-4.53971e-217
-2.20482e-216
-5.65602e-217
-2.02485e-216
-8.5011e-217
-2.47551e-216
-1.64945e-216
-4.25766e-216
-4.09598e-216
-1.04082e-215
-1.03375e-215
-2.99509e-215
-1.52924e-215
-6.13561e-215
-8.16261e-216
-5.66456e-215
-1.29218e-216
-1.9556e-215
-5.27951e-218
-2.24176e-216
-4.85695e-220
-7.08063e-218
-1.99786e-222
-4.87142e-220
-1.14089e-224
-1.7328e-222
-9.95853e-227
-1.09701e-224
-1.06095e-228
-1.20955e-226
-7.70106e-231
-1.7874e-228
5.7219e-238
-1.69354e-230
4.2298e-264
-1.11792e-235
-1.53908e-262
-2.16168e-262
-2.69904e-261
4.13462e-261
-3.09804e-260
4.8128e-260
-2.61377e-259
4.15773e-259
-1.79776e-258
2.85293e-258
-1.038e-257
1.67986e-257
-5.3348e-257
8.58333e-257
-2.47184e-256
3.99809e-256
-1.04942e-255
1.70611e-255
-4.13425e-255
6.75428e-255
-1.52491e-254
2.50419e-254
-5.3062e-254
8.76026e-254
-1.7516e-253
2.90891e-253
-5.51391e-253
9.21527e-253
-1.66162e-252
2.79707e-252
-4.81229e-252
8.16485e-252
-1.34327e-251
2.29967e-251
-3.62519e-251
6.26808e-251
-9.48036e-251
1.6577e-250
-2.40885e-250
4.26413e-250
-5.95926e-250
1.06928e-249
-1.441e-249
2.62003e-249
-3.43824e-249
6.29502e-249
-8.42354e-249
1.49767e-248
-2.45576e-248
3.67013e-248
-1.14832e-247
1.074e-247
-8.98459e-247
5.0567e-247
-8.79353e-246
3.99792e-246
-9.0496e-245
3.96635e-245
-9.35431e-244
4.15274e-244
-9.62582e-243
4.38107e-243
-9.86286e-242
4.61863e-242
-1.00712e-240
4.86427e-241
-1.02712e-239
5.12591e-240
-1.04735e-238
5.41364e-239
-1.07017e-237
5.74112e-238
-1.09674e-236
6.12368e-237
-1.12983e-235
6.582e-236
-1.17087e-234
7.14072e-235
-1.22331e-233
7.83412e-234
-1.28941e-232
8.7059e-233
-1.37383e-231
9.81865e-232
-1.48082e-230
1.12574e-230
-1.61728e-229
1.31472e-229
-1.79152e-228
1.56681e-228
-2.01485e-227
1.90932e-227
-2.30319e-226
2.38375e-226
-2.67635e-225
3.0557e-225
-3.16284e-224
4.03037e-224
-3.7994e-223
5.48269e-223
-4.63146e-222
7.71282e-222
-5.70323e-221
1.12521e-220
1.70784e-219
-6.99224e-220
-2.65567e-151
-2.41271e-149
1.86371e-149
2.6557e-157
-2.45767e-151
1.88929e-167
-4.92952e-156
2.19034e-190
-1.68605e-166
2.83061e-194
-1.56921e-189
2.82176e-195
-2.1718e-193
8.1375e-196
-3.09013e-194
-9.43998e-196
-2.4814e-194
-1.89287e-195
-1.66854e-194
-2.67622e-195
-1.42816e-194
-3.78489e-195
-1.48095e-194
-5.97262e-195
-1.91672e-194
-1.09484e-194
-3.17643e-194
-2.18361e-194
-6.4224e-194
-3.6243e-194
-1.25907e-193
-3.28288e-194
-1.64429e-193
-1.12297e-194
-1.04089e-193
-1.02298e-195
-2.54524e-194
-4.65897e-198
-1.74466e-195
1.27997e-205
-2.26728e-198
3.99745e-219
-1.31237e-203
9.07567e-223
-3.24671e-217
3.50236e-225
-8.45178e-221
2.54847e-227
-4.01485e-223
6.47422e-232
-2.83946e-225
5.87245e-236
-4.86005e-230
-2.75919e-260
-2.59922e-234
-5.3747e-259
7.56832e-259
-6.95272e-258
1.00356e-257
-6.58595e-257
9.65017e-257
-4.91029e-256
7.28447e-256
-3.0144e-255
4.56425e-255
-1.6196e-254
2.44407e-254
-7.75782e-254
1.17777e-253
-3.37883e-253
5.15629e-253
-1.35742e-252
2.08161e-252
-5.08541e-252
7.83441e-252
-1.79063e-251
2.77201e-251
-5.96608e-251
9.28189e-251
-1.89022e-250
2.95718e-250
-5.72166e-250
9.00505e-250
-1.66041e-249
2.63124e-249
-4.63603e-249
7.40243e-249
-1.24868e-248
2.0112e-248
-3.25377e-248
5.29144e-248
-8.2196e-248
1.35151e-247
-2.01794e-247
3.35859e-247
-4.82274e-247
8.13795e-247
-1.12447e-246
1.92627e-246
-2.56155e-246
4.4625e-246
-5.71412e-246
1.01355e-245
-1.25171e-245
2.26147e-245
-2.71902e-245
4.97228e-245
-6.08473e-245
1.08758e-244
-1.62348e-244
2.45941e-244
-6.95998e-244
6.65249e-244
-5.04333e-243
2.90189e-243
-4.61532e-242
2.14667e-242
-4.47423e-241
2.01315e-241
-4.38014e-240
2.00684e-240
-4.29396e-239
2.02835e-239
-4.211e-238
2.06039e-238
-4.13828e-237
2.10272e-237
-4.07884e-236
2.15882e-236
-4.04059e-235
2.23347e-235
-4.02609e-234
2.33244e-234
-4.04344e-233
2.46303e-233
-4.09565e-232
2.63449e-232
-4.19228e-231
2.8594e-231
-4.33883e-230
3.15464e-230
-4.54807e-229
3.54437e-229
-4.83128e-228
4.06266e-228
-5.20668e-227
4.76026e-227
-5.69596e-226
5.71219e-226
-6.32511e-225
7.03493e-225
-7.13047e-224
8.90938e-224
-8.14747e-223
1.16313e-222
-9.41495e-222
1.56894e-221
-1.09222e-220
2.19318e-220
3.18565e-219
-1.25226e-219
-4.98542e-150
-2.42041e-148
2.03642e-148
2.99989e-155
-7.1269e-150
2.88295e-162
-1.3207e-153
-4.14299e-169
-3.57063e-161
-6.75054e-170
-3.62743e-168
-5.02397e-170
5.78382e-169
-1.75064e-170
5.41685e-169
1.35987e-170
4.33577e-169
3.62578e-171
3.29188e-170
8.89516e-172
5.29855e-171
2.38848e-172
1.03844e-171
6.48397e-173
2.33394e-172
1.65098e-173
5.48844e-173
3.61381e-174
1.25736e-173
6.05009e-175
2.59079e-174
6.53185e-176
4.27055e-175
3.40157e-177
4.66012e-176
3.54366e-179
2.42922e-177
6.86166e-187
2.23029e-179
6.45848e-204
-4.93724e-185
6.22776e-217
-2.58907e-202
9.29984e-221
-2.23661e-215
3.68569e-223
-3.44205e-219
2.47647e-225
-1.43119e-221
4.58871e-231
-9.33983e-224
1.19035e-234
-1.47868e-229
-7.28766e-257
-2.9651e-233
-1.01317e-255
1.3585e-255
-1.05462e-254
1.4405e-254
-8.58363e-254
1.19048e-253
-5.66655e-253
8.03336e-253
-3.21921e-252
4.56149e-252
-1.60945e-251
2.29674e-251
-7.16887e-251
1.03993e-250
-2.95548e-250
4.26331e-250
-1.1305e-249
1.63773e-249
-4.04799e-249
5.88947e-249
-1.36724e-248
1.99761e-248
-4.3795e-248
6.42836e-248
-1.33713e-247
1.97232e-247
-3.90538e-247
5.79313e-247
-1.09526e-246
1.63481e-246
-2.95732e-246
4.44623e-246
-7.71079e-246
1.16872e-245
-1.94551e-245
2.97661e-245
-4.76198e-245
7.36262e-245
-1.13266e-244
1.77241e-244
-2.62376e-244
4.16085e-244
-5.92748e-244
9.54296e-244
-1.30857e-243
2.14203e-243
-2.82632e-243
4.71323e-243
-5.9834e-243
1.01822e-242
-1.24292e-242
2.16297e-242
-2.5388e-242
4.52474e-242
-5.11287e-242
9.33743e-242
-1.02602e-241
1.90687e-241
-2.14046e-241
3.89321e-241
-5.45225e-241
8.29506e-241
-2.30183e-240
2.16536e-240
-1.63247e-239
9.4064e-240
-1.43957e-238
6.88872e-239
-1.34148e-237
6.29994e-238
-1.26615e-236
6.11151e-237
-1.20195e-235
6.03303e-236
-1.14643e-234
6.01487e-235
-1.10055e-233
6.05651e-234
-1.06398e-232
6.16673e-233
-1.03786e-231
6.36048e-232
-1.02209e-230
6.65593e-231
-1.01784e-229
7.07981e-230
-1.02565e-228
7.66735e-229
-1.04692e-227
8.47053e-228
-1.08313e-226
9.56257e-227
-1.13609e-225
1.10538e-225
-1.20816e-224
1.31075e-224
-1.30119e-223
1.59789e-223
-1.41712e-222
2.0067e-222
-1.55374e-221
2.60271e-221
-1.69931e-220
3.49529e-220
4.87383e-219
-1.81854e-219
-1.15077e-148
-2.20748e-147
1.80259e-147
-1.04569e-150
-1.27336e-148
-2.26501e-152
-7.83167e-151
6.11901e-157
4.00269e-151
2.67408e-157
-3.49515e-155
3.39231e-157
-2.75709e-156
-6.62481e-157
-1.24032e-155
-3.30381e-158
-1.78e-156
-9.74633e-160
-3.38247e-158
8.9576e-160
7.57113e-160
8.67397e-160
1.65179e-159
7.10863e-160
1.27129e-159
5.423e-160
8.54576e-160
3.80947e-160
5.52672e-160
2.34313e-160
3.45344e-160
1.1444e-160
2.05562e-160
2.10019e-161
1.23898e-160
-1.71642e-169
1.8931e-161
-1.28203e-182
2.1704e-167
9.78328e-203
4.2905e-181
3.01893e-215
-2.44651e-201
3.03952e-219
-7.01247e-214
1.08337e-221
-7.09199e-218
6.73395e-224
-2.56026e-220
2.11038e-230
-1.5423e-222
1.27376e-233
-4.35133e-229
-9.98211e-254
-2.2093e-232
-1.10206e-252
1.40646e-252
-9.7062e-252
1.26063e-251
-6.92025e-251
9.20071e-251
-4.19586e-250
5.59096e-250
-2.20952e-249
2.96975e-249
-1.03659e-248
1.40239e-248
-4.41708e-248
6.00671e-248
-1.71793e-247
2.36945e-247
-6.28744e-247
8.61921e-247
-2.1623e-246
2.97488e-246
-7.03312e-246
9.71081e-246
-2.17448e-245
3.01416e-245
-6.4188e-245
8.9352e-245
-1.81517e-244
2.5393e-244
-4.93382e-244
6.94064e-244
-1.29228e-243
1.82994e-243
-3.27032e-243
4.66591e-243
-8.01259e-243
1.15333e-242
-1.90493e-242
2.76951e-242
-4.40193e-242
6.47426e-242
-9.90645e-242
1.47605e-241
-2.17432e-241
3.28799e-241
-4.6627e-241
7.16753e-241
-9.78117e-241
1.53158e-240
-2.0105e-240
3.21257e-240
-4.05361e-240
6.62487e-240
-8.02954e-240
1.34483e-239
-1.56409e-239
2.69126e-239
-3.00093e-239
5.31562e-239
-5.6784e-239
1.03778e-238
-1.06373e-238
2.00577e-238
-1.99693e-238
3.85193e-238
-3.96978e-238
7.44269e-238
-1.01624e-237
1.52867e-237
-4.55751e-237
4.06042e-237
-3.3164e-236
1.89717e-236
-2.88807e-235
1.44494e-235
-2.63118e-234
1.32292e-234
-2.43184e-233
1.27366e-233
-2.26678e-232
1.25021e-232
-2.13202e-231
1.24498e-231
-2.02398e-230
1.25829e-230
-1.94218e-229
1.29262e-229
-1.88482e-228
1.35192e-228
-1.85174e-227
1.44213e-227
-1.84229e-226
1.57176e-226
-1.85614e-225
1.75362e-225
-1.89319e-224
2.00654e-224
-1.95135e-223
2.35955e-223
-2.0281e-222
2.85728e-222
-2.11115e-221
3.57176e-221
-2.1762e-220
4.62031e-220
6.20119e-219
-2.16606e-219
-4.82183e-145
-6.43247e-144
-1.91448e-144
-9.51678e-145
-2.64978e-143
3.14382e-146
-2.11864e-143
3.70317e-145
-3.20728e-144
8.72618e-147
1.84487e-143
8.02465e-147
-3.13667e-146
1.07162e-146
-1.2507e-145
-5.17678e-147
-3.30361e-145
-3.83342e-147
-5.32394e-146
-1.30427e-147
-1.01715e-146
-3.4524e-148
-1.96007e-147
-7.62611e-149
-3.68157e-148
-1.38411e-149
-6.50959e-149
-1.93672e-150
-1.03465e-149
-1.84247e-151
-1.37175e-150
-9.06405e-153
-1.3213e-151
-5.87184e-155
-6.88701e-153
-4.10764e-165
-4.71795e-155
-7.52036e-173
1.65731e-163
-4.08084e-186
1.64917e-171
-2.37334e-210
7.45558e-185
5.83126e-218
4.10194e-209
1.81389e-220
-1.00149e-216
1.03629e-222
-3.10624e-219
7.89115e-230
-1.71628e-221
9.06336e-233
-1.20174e-228
-8.33607e-251
-1.20825e-231
-7.67019e-250
9.43931e-250
-5.86945e-249
7.32809e-249
-3.75805e-248
4.7852e-248
-2.0916e-247
2.66477e-247
-1.02768e-246
1.31773e-246
-4.54805e-246
5.85952e-246
-1.84294e-245
2.38284e-245
-6.92365e-245
8.97763e-245
-2.43453e-244
3.16466e-244
-7.99461e-244
1.05166e-243
-2.51214e-243
3.28283e-243
-7.52078e-243
9.85542e-243
-2.1524e-242
2.83039e-242
-5.91047e-242
7.80225e-242
-1.56094e-241
2.07068e-241
-3.97657e-241
5.30474e-241
-9.78989e-241
1.31509e-240
-2.33508e-240
3.16164e-240
-5.40388e-240
7.38698e-240
-1.21611e-239
1.68037e-239
-2.66442e-239
3.72862e-239
-5.69514e-239
8.08318e-239
-1.18873e-238
1.71495e-238
-2.42773e-238
3.56584e-238
-4.85485e-238
7.27788e-238
-9.52458e-238
1.45991e-237
-1.83426e-237
2.8825e-237
-3.47411e-237
5.60834e-237
-6.47398e-237
1.0768e-236
-1.18925e-236
2.04234e-236
-2.15412e-236
3.83183e-236
-3.85529e-236
7.11876e-236
-6.82275e-236
1.31148e-235
-1.20042e-235
2.39979e-235
-2.13614e-235
4.38238e-235
-4.17253e-235
8.13326e-235
-1.15674e-234
1.66369e-234
-5.93541e-234
4.85567e-234
-4.56447e-233
2.63494e-233
-3.98689e-232
2.15586e-232
-3.59894e-231
2.01381e-231
-3.29574e-230
1.95756e-230
-3.05086e-229
1.94326e-229
-2.85616e-228
1.96574e-228
-2.70482e-227
2.02817e-227
-2.59169e-226
2.13798e-226
-2.5123e-225
2.30653e-225
-2.46071e-224
2.55174e-224
-2.43125e-223
2.90019e-223
-2.41223e-222
3.39378e-222
-2.38574e-221
4.09773e-221
-2.3129e-220
5.11776e-220
6.62879e-219
-2.1284e-219
-3.81639e-137
-3.8934e-136
5.04975e-136
-4.16302e-138
-3.09317e-137
-4.06245e-135
4.05829e-135
-5.81717e-132
5.81311e-132