/*--------------------------------*- C++ -*----------------------------------*\
  =========                 |
  \\      /  F ield         | OpenFOAM: The Open Source CFD Toolbox
   \\    /   O peration     | Website:  https://openfoam.org
    \\  /    A nd           | Version:  7
     \\/     M anipulation  |
\*---------------------------------------------------------------------------*/
FoamFile
{
    version     2.0;
    format      ascii;
    class       volScalarField;
    location    "25";
    object      alpha.wetting;
}
// * * * * * * * * * * * * * * * * * * * * * * * * * * * * * * * * * * * * * //

dimensions      [0 0 0 0 0 0 0];

internalField   nonuniform List<scalar> 
49920
(
-6.60404e-317
9.34125e-317
1.74204e-316
1.52523e-316
1.5676e-316
1.31346e-316
1.47499e-316
2.00707e-316
1.77143e-316
1.45886e-316
1.54127e-316
1.76539e-316
1.55571e-316
9.2602e-317
1.28687e-316
-7.10324e-317
-6.22458e-317
-6.35867e-317
-6.51786e-317
-9.97823e-317
-1.01014e-316
-1.0159e-316
1.01841e-316
-1.01967e-316
3.06118e-316
3.06251e-316
3.0634e-316
3.06401e-316
3.06446e-316
3.06479e-316
3.06505e-316
3.06525e-316
3.06541e-316
3.06554e-316
3.06564e-316
3.06567e-316
3.06562e-316
3.06557e-316
3.06553e-316
3.06549e-316
3.06545e-316
3.06542e-316
3.0654e-316
-3.06538e-316
-3.06536e-316
-3.06534e-316
-3.06533e-316
-3.06532e-316
-3.06531e-316
-3.06531e-316
-3.0653e-316
-3.0653e-316
-3.06529e-316
-3.06531e-316
-3.0653e-316
-3.06532e-316
-3.06532e-316
-3.06534e-316
-3.06534e-316
-3.06537e-316
-3.06538e-316
-3.06541e-316
-3.06542e-316
-3.06545e-316
-3.06547e-316
-3.06551e-316
-3.06553e-316
-3.06558e-316
-3.0656e-316
-3.06565e-316
-3.06568e-316
-3.06572e-316
-3.06573e-316
-3.06569e-316
-3.06566e-316
-3.06562e-316
-3.06561e-316
-3.06557e-316
-3.06558e-316
-3.06553e-316
-4.35871e-316
1.03308e-316
1.20032e-316
1.33395e-316
1.35339e-316
1.02628e-316
1.55248e-316
1.12207e-316
1.45617e-316
1.3486e-316
1.27192e-316
1.40744e-316
1.59538e-316
1.10532e-316
1.11148e-316
1.02147e-316
6.14797e-317
5.91499e-317
5.9758e-317
6.13991e-317
6.29188e-317
9.5834e-317
9.66208e-317
9.70405e-317
-2.91834e-316
-2.92268e-316
-2.92549e-316
-2.92741e-316
2.92879e-316
3.25534e-316
3.2562e-316
3.25687e-316
3.25739e-316
3.25782e-316
3.2581e-316
3.25811e-316
3.25793e-316
3.25777e-316
3.25764e-316
3.25753e-316
3.25743e-316
3.25735e-316
3.25728e-316
3.25722e-316
3.25717e-316
3.25713e-316
3.2571e-316
3.25707e-316
3.25705e-316
3.25703e-316
3.25702e-316
3.25701e-316
3.25703e-316
3.25703e-316
3.25706e-316
3.25706e-316
3.2571e-316
3.25711e-316
3.25716e-316
3.25718e-316
3.25724e-316
3.25727e-316
3.25733e-316
3.25738e-316
3.25745e-316
3.2575e-316
3.25758e-316
3.25764e-316
3.25772e-316
3.2578e-316
3.25788e-316
3.25796e-316
3.25804e-316
3.25812e-316
3.25819e-316
3.25828e-316
3.25832e-316
3.2584e-316
3.25844e-316
3.25847e-316
-6.42724e-316
9.63732e-317
9.67789e-317
1.06307e-316
1.0672e-316
1.01847e-316
1.46875e-316
1.041e-316
1.06566e-316
1.53935e-316
1.55907e-316
1.52467e-316
1.25146e-316
1.04655e-316
9.59728e-317
1.27365e-316
9.20364e-317
5.80397e-317
5.69328e-317
5.76411e-317
5.9018e-317
9.03469e-317
9.15495e-317
-9.22572e-317
-2.78009e-316
-2.78763e-316
-2.79248e-316
-3.10641e-316
3.109e-316
3.11091e-316
3.11235e-316
3.11346e-316
3.11433e-316
3.11504e-316
3.11546e-316
3.11544e-316
3.11519e-316
3.11498e-316
3.1148e-316
3.11464e-316
3.11451e-316
3.11439e-316
3.11429e-316
3.11421e-316
3.11414e-316
3.11408e-316
3.11405e-316
3.11401e-316
3.11398e-316
3.11396e-316
3.11395e-316
3.11396e-316
3.11397e-316
3.11399e-316
3.11402e-316
3.11405e-316
3.11409e-316
3.11414e-316
3.11419e-316
3.11424e-316
3.11431e-316
3.11437e-316
3.11445e-316
3.11453e-316
3.11461e-316
3.1147e-316
3.11479e-316
3.11489e-316
3.11499e-316
3.11509e-316
3.1152e-316
3.1153e-316
3.11541e-316
3.11551e-316
3.11561e-316
3.1157e-316
3.11579e-316
3.11587e-316
3.11594e-316
3.11601e-316
-1.017e-315
1.21993e-316
8.89929e-317
1.24623e-316
9.29943e-317
9.1805e-317
1.25448e-316
9.21309e-317
9.01119e-317
1.30156e-316
1.332e-316
1.33684e-316
1.29324e-316
1.25544e-316
9.06004e-317
1.52708e-316
9.00979e-317
5.72145e-317
5.5248e-317
5.49696e-317
5.57993e-317
5.69194e-317
8.67619e-317
1.75365e-316
-2.3533e-316
-2.65797e-316
-2.66472e-316
-2.96587e-316
-2.96945e-316
2.97206e-316
2.97404e-316
2.97556e-316
2.97676e-316
2.97772e-316
3.27606e-316
3.27599e-316
2.97789e-316
2.97765e-316
2.97744e-316
2.97726e-316
2.9771e-316
2.97697e-316
2.97685e-316
2.97676e-316
2.97668e-316
2.97662e-316
2.97657e-316
2.97654e-316
2.97651e-316
2.9765e-316
2.9765e-316
2.97651e-316
2.97653e-316
2.97657e-316
2.9766e-316
2.97666e-316
2.97671e-316
2.97678e-316
2.97684e-316
2.97692e-316
2.977e-316
2.9771e-316
2.97719e-316
2.9773e-316
2.97739e-316
2.97751e-316
2.97762e-316
2.97775e-316
2.97787e-316
2.978e-316
3.27594e-316
3.27607e-316
3.27622e-316
3.27635e-316
3.27648e-316
3.2766e-316
3.27673e-316
3.27682e-316
3.27693e-316
3.27701e-316
-1.26627e-315
2.91316e-316
8.51923e-317
1.16475e-316
8.62775e-317
8.57877e-317
1.16152e-316
-3.14778e-316
-1.95505e-316
-8.28342e-316
-1.18748e-316
-1.48399e-316
-9.50571e-316
-7.3436e-316
-5.52348e-316
-8.19648e-316
-4.92328e-316
-1.95649e-316
-1.346e-316
-1.05839e-316
-1.06309e-316
-1.34967e-316
-1.64633e-316
-1.94473e-316
-2.24078e-316
-2.53393e-316
-2.54236e-316
2.83115e-316
-2.83557e-316
2.8388e-316
3.12535e-316
3.12742e-316
3.12904e-316
3.13034e-316
3.13093e-316
3.13078e-316
3.13046e-316
3.13019e-316
3.12994e-316
3.12974e-316
3.12956e-316
3.1294e-316
3.12927e-316
3.12917e-316
3.12908e-316
3.12901e-316
3.12896e-316
3.12892e-316
3.12891e-316
3.12889e-316
3.12891e-316
3.12893e-316
3.12896e-316
3.12901e-316
3.12908e-316
3.12915e-316
3.12923e-316
3.12932e-316
3.12942e-316
3.12952e-316
3.12964e-316
3.12976e-316
3.12989e-316
3.13002e-316
3.13017e-316
3.13031e-316
3.13047e-316
3.13062e-316
3.13078e-316
3.13094e-316
3.1311e-316
3.13127e-316
3.13143e-316
3.13158e-316
3.13173e-316
3.13187e-316
3.13201e-316
3.13213e-316
3.13224e-316
3.13234e-316
-1.51918e-315
6.12322e-316
1.0957e-316
1.10728e-316
8.20094e-317
8.15442e-317
1.09703e-316
-2.71054e-316
-1.86034e-316
6.6812e-316
4.14797e-316
4.70513e-316
9.53282e-316
1.26407e-315
1.20733e-315
1.20736e-315
6.39675e-316
2.70872e-316
1.5708e-316
1.27883e-316
1.01839e-316
1.28513e-316
1.56469e-316
1.84946e-316
2.13373e-316
2.41549e-316
2.42534e-316
2.70218e-316
2.70732e-316
2.98215e-316
-2.98523e-316
2.9876e-316
2.98947e-316
2.99097e-316
2.99149e-316
2.99118e-316
2.99089e-316
2.99062e-316
2.99039e-316
2.99019e-316
2.99001e-316
2.98986e-316
2.98974e-316
2.98963e-316
2.98955e-316
2.98948e-316
2.98944e-316
2.98941e-316
2.98941e-316
2.98941e-316
2.98943e-316
2.98946e-316
2.98952e-316
2.98958e-316
2.98966e-316
2.98974e-316
2.98985e-316
2.98995e-316
2.99008e-316
2.9902e-316
2.99035e-316
2.99048e-316
2.99064e-316
2.99079e-316
2.99096e-316
2.99112e-316
3.26324e-316
3.26343e-316
3.26363e-316
3.26382e-316
3.26403e-316
3.26423e-316
3.26442e-316
3.26461e-316
3.26478e-316
3.26497e-316
3.26512e-316
3.26528e-316
3.26541e-316
7.42909e-315
1.42167e-315
7.18199e-316
5.01809e-316
6.09943e-316
3.93465e-316
3.12546e-316
3.39605e-316
-2.8467e-316
-2.03552e-316
3.93264e-316
3.93364e-316
5.01257e-316
-1.12416e-315
-2.20583e-315
-2.23283e-315
-1.82698e-315
-8.25898e-316
-3.65458e-316
-1.7751e-316
-1.23674e-316
-1.22349e-316
-1.22777e-316
-1.49011e-316
-1.76031e-316
-2.03222e-316
-2.30256e-316
-2.31353e-316
-2.57881e-316
-2.84298e-316
-2.84752e-316
-2.85091e-316
-3.11293e-316
-3.11518e-316
-3.11671e-316
-3.1171e-316
3.11679e-316
3.11651e-316
3.11625e-316
3.11602e-316
3.11582e-316
3.11565e-316
3.1155e-316
3.11537e-316
3.11527e-316
3.11518e-316
3.11514e-316
3.11509e-316
3.11508e-316
3.11507e-316
3.1151e-316
3.11513e-316
3.1152e-316
3.11526e-316
3.11536e-316
3.11545e-316
3.11558e-316
3.11569e-316
3.11585e-316
3.11599e-316
3.11616e-316
3.11632e-316
3.11651e-316
3.11668e-316
3.1169e-316
3.11708e-316
3.1173e-316
3.1175e-316
3.11773e-316
3.11793e-316
3.11816e-316
3.11837e-316
3.11859e-316
3.11881e-316
3.119e-316
3.11921e-316
3.11938e-316
3.11958e-316
3.11973e-316
6.73375e-315
5.61343e-313
1.17471e-315
8.39053e-316
6.32583e-316
5.81358e-316
4.52003e-316
3.74855e-316
3.49284e-316
-2.97172e-316
-2.20517e-316
3.232e-316
3.49005e-316
4.2623e-316
-7.10355e-316
-1.40654e-315
-2.25795e-315
-2.0774e-315
-9.67882e-316
-4.2607e-316
-2.20191e-316
-1.43323e-316
-1.17745e-316
-1.17571e-316
-1.42178e-316
-1.43755e-316
-1.93625e-316
-2.19505e-316
-2.20676e-316
-2.46085e-316
-2.71373e-316
-2.71861e-316
-2.96971e-316
2.97274e-316
-2.97513e-316
-2.97641e-316
-2.97651e-316
-2.97628e-316
-2.97605e-316
-2.97584e-316
-2.97565e-316
-2.97548e-316
-2.97532e-316
-2.97519e-316
-2.97509e-316
-2.97499e-316
-2.97494e-316
-2.97489e-316
-2.97487e-316
-2.97486e-316
2.97489e-316
2.97492e-316
2.97498e-316
2.97504e-316
2.97514e-316
2.97524e-316
2.97537e-316
2.9755e-316
2.97566e-316
2.97581e-316
2.97599e-316
2.97616e-316
2.97637e-316
2.97655e-316
2.97678e-316
2.97697e-316
3.22531e-316
3.22554e-316
3.2258e-316
3.22604e-316
3.22631e-316
3.22656e-316
3.22681e-316
3.22707e-316
3.22731e-316
3.22756e-316
3.22778e-316
3.22801e-316
3.22821e-316
4.22175e-315
2.73931e-313
1.93044e-311
1.04632e-315
8.98511e-316
7.25982e-316
6.03339e-316
5.04571e-316
4.30726e-316
3.57572e-316
3.07976e-316
2.58925e-316
3.0793e-316
3.32958e-316
4.06721e-316
-6.27727e-316
-1.07057e-315
-1.80843e-315
-1.9558e-315
-1.0456e-315
-4.80078e-316
-2.58813e-316
-1.61143e-316
-1.35969e-316
-1.12733e-316
-1.3586e-316
-1.37101e-316
-1.61496e-316
-2.09283e-316
-2.33875e-316
-2.3481e-316
-2.59009e-316
-2.83114e-316
-2.83527e-316
2.83843e-316
-3.07752e-316
-3.07853e-316
-3.07838e-316
-3.07821e-316
-3.07803e-316
-3.07785e-316
-3.07769e-316
-3.07754e-316
-3.0774e-316
-3.07729e-316
-3.07719e-316
-3.07713e-316
-3.07707e-316
-3.07705e-316
-3.07704e-316
-3.07706e-316
-3.07709e-316
-3.07716e-316
-3.07723e-316
-3.07734e-316
-3.07745e-316
-3.07759e-316
-3.07773e-316
-3.07791e-316
-3.07808e-316
-3.07829e-316
-3.07849e-316
-3.07872e-316
3.07893e-316
3.07918e-316
3.07942e-316
3.07968e-316
3.07993e-316
3.0802e-316
3.08046e-316
3.08074e-316
3.081e-316
3.08128e-316
3.08155e-316
3.08182e-316
3.08208e-316
3.08233e-316
3.08258e-316
3.08281e-316
2.60872e-315
1.16973e-313
6.15358e-312
3.66189e-310
9.73974e-316
9.26942e-316
7.62725e-316
6.45213e-316
5.28028e-316
4.57536e-316
3.8733e-316
3.17241e-316
2.70703e-316
2.94034e-316
3.40585e-316
4.11039e-316
5.75133e-316
-9.26503e-316
-1.44249e-315
-1.65338e-315
-1.04362e-315
-5.27865e-316
-2.93435e-316
-1.77109e-316
-1.52534e-316
-1.29775e-316
-1.29954e-316
-1.5268e-316
-1.76018e-316
-1.99572e-316
-2.23079e-316
-2.4644e-316
-2.47182e-316
-2.7023e-316
2.9321e-316
-2.93559e-316
2.93765e-316
2.93818e-316
2.93814e-316
2.93806e-316
2.93795e-316
2.93783e-316
2.93771e-316
2.9376e-316
2.9375e-316
2.93742e-316
2.93735e-316
2.9373e-316
2.93728e-316
2.93727e-316
2.93728e-316
2.93732e-316
2.93738e-316
2.93745e-316
2.93756e-316
2.93767e-316
2.93781e-316
2.93796e-316
2.93814e-316
2.93833e-316
2.93853e-316
2.93874e-316
2.93897e-316
3.1653e-316
3.16558e-316
3.16585e-316
3.16614e-316
3.16643e-316
3.16673e-316
3.16703e-316
3.16734e-316
3.16764e-316
3.16795e-316
3.16826e-316
3.16857e-316
3.16887e-316
3.16917e-316
3.16946e-316
3.16973e-316
1.63028e-315
5.34637e-314
2.03226e-312
8.83314e-311
4.40348e-309
2.91835e-285
9.28265e-316
7.94103e-316
6.59897e-316
5.4813e-316
4.8095e-316
4.13825e-316
3.46796e-316
3.02364e-316
3.02626e-316
3.46925e-316
4.14017e-316
5.48141e-316
-8.16054e-316
-1.17382e-315
1.37476e-315
9.94707e-316
5.47941e-316
3.24223e-316
2.12509e-316
1.46511e-316
1.24485e-316
1.24375e-316
1.45836e-316
1.6794e-316
1.90349e-316
2.12787e-316
2.35117e-316
2.57313e-316
2.57901e-316
2.79859e-316
3.01751e-316
3.01912e-316
3.01929e-316
3.01935e-316
3.01935e-316
3.0193e-316
3.01924e-316
3.01916e-316
3.01908e-316
3.01901e-316
3.01895e-316
3.01891e-316
3.01888e-316
3.01888e-316
3.0189e-316
3.01894e-316
3.019e-316
3.01908e-316
2.6957e-315
2.45427e-314
2.17638e-313
1.90558e-312
1.64876e-311
1.41403e-310
1.20547e-309
1.02482e-308
8.71717e-308
7.44937e-307
6.42583e-306
5.63047e-305
5.05072e-304
4.68666e-303
4.55329e-302
4.69481e-301
5.19633e-300
6.21903e-299
8.04784e-298
1.12033e-296
1.66315e-295
2.61244e-294
4.31421e-293
7.46633e-292
1.35247e-290
2.5681e-289
5.12687e-288
1.08229e-286
2.43365e-285
5.89109e-284
1.55495e-282
2.23976e-239
8.09123e-298
8.20644e-316
6.92716e-316
5.861e-316
5.01089e-316
4.3706e-316
3.731e-316
3.30646e-316
3.30633e-316
3.52089e-316
4.15898e-316
5.43436e-316
-7.35229e-316
1.01206e-315
1.1822e-315
9.26653e-316
5.64675e-316
3.30729e-316
2.24035e-316
1.60643e-316
1.39255e-316
1.38902e-316
1.3936e-316
1.60294e-316
1.81589e-316
2.02978e-316
2.24304e-316
2.45514e-316
2.66613e-316
7.56923e-305
2.50893e-296
2.85947e-294
1.43403e-292
4.8283e-291
1.25849e-289
2.72617e-288
5.12328e-287
8.58886e-286
1.31104e-284
1.84479e-283
2.43184e-282
3.02501e-281
3.57944e-280
4.0559e-279
4.42906e-278
4.68856e-277
4.84276e-276
4.91527e-275
4.94692e-274
4.99193e-273
5.1225e-272
5.42895e-271
6.03164e-270
7.08894e-269
8.82398e-268
1.1548e-266
1.57208e-265
2.2009e-264
3.14309e-263
4.55074e-262
6.66311e-261
9.84852e-260
1.4705e-258
2.21858e-257
3.3895e-256
5.25003e-255
8.26759e-254
1.32601e-252
2.17299e-251
3.64697e-250
6.29067e-249
1.11867e-247
2.05941e-246
3.9409e-245
7.88402e-244
1.65923e-242
3.70786e-241
8.89969e-240
2.33481e-238
-3.2098e-222
-3.42847e-281
8.42744e-316
7.20925e-316
6.19303e-316
5.38178e-316
4.77133e-316
3.96296e-316
3.55735e-316
3.55567e-316
3.75905e-316
4.16792e-316
5.18162e-316
-6.80421e-316
9.03422e-316
1.02506e-315
8.62625e-316
5.58458e-316
3.55464e-316
2.3394e-316
1.73196e-316
1.52508e-316
1.32958e-316
1.33204e-316
1.53038e-316
1.7326e-316
1.9363e-316
2.13978e-316
2.34233e-316
-2.54386e-316
1.24358e-281
3.28827e-279
1.99501e-277
7.26343e-276
1.95478e-274
4.26064e-273
7.92178e-272
1.2975e-270
1.91587e-269
2.58783e-268
3.24719e-267
3.81894e-266
4.24614e-265
4.49591e-264
4.56627e-263
4.48166e-262
4.29002e-261
4.05374e-260
3.84692e-259
3.75045e-258
3.85586e-257
4.26776e-256
5.11653e-255
6.5683e-254
8.85086e-253
1.22741e-251
1.72834e-250
2.45023e-249
3.48508e-248
4.96458e-247
7.08788e-246
1.01472e-244
1.45971e-243
2.11252e-242
3.08358e-241
4.54619e-240
6.78866e-239
1.0284e-237
1.58511e-236
2.49059e-235
4.00152e-234
6.58962e-233
1.11594e-231
1.94906e-230
3.52468e-229
6.62355e-228
1.3005e-226
2.68299e-225
5.86847e-224
1.37806e-222
-2.52204e-215
-1.14201e-250
-9.75557e-257
2.82465e-289
6.48046e-316
5.70714e-316
5.1259e-316
4.35489e-316
3.96707e-316
3.7756e-316
3.96839e-316
4.35682e-316
5.32132e-316
6.67411e-316
8.22117e-316
9.18606e-316
8.02504e-316
5.51394e-316
3.58202e-316
2.42344e-316
1.84242e-316
1.4605e-316
1.45417e-316
1.45519e-316
1.46135e-316
1.65336e-316
2.03191e-316
2.22675e-316
2.42071e-316
6.43855e-283
-6.77623e-278
-4.61158e-276
-1.19723e-274
-2.88576e-274
1.10842e-271
6.03709e-270
2.20494e-268
6.66903e-267
1.84703e-265
4.51753e-264
1.02682e-262
2.19291e-261
4.4322e-260
8.53195e-259
1.57169e-257
2.78374e-256
4.75789e-255
7.87797e-254
1.26742e-252
1.9879e-251
3.04741e-250
4.5797e-249
6.7619e-248
9.83623e-247
1.41244e-245
2.00736e-244
2.8286e-243
3.96184e-242
5.5248e-241
7.68959e-240
1.06984e-238
1.49156e-237
2.08684e-236
2.93734e-235
4.16526e-234
5.96579e-233
8.64257e-232
1.26975e-230
1.89477e-229
2.87966e-228
4.46538e-227
7.08482e-226
1.15266e-224
1.92886e-223
3.32821e-222
5.94333e-221
1.10158e-219
2.12868e-218
4.29542e-217
8.98908e-216
-1.82312e-169
-3.95173e-225
-2.50306e-232
2.84025e-259
6.72638e-316
5.98985e-316
5.61823e-316
4.88306e-316
4.33171e-316
4.14801e-316
4.33094e-316
4.70021e-316
5.43707e-316
6.36022e-316
7.64828e-316
8.38292e-316
7.46121e-316
5.4363e-316
3.77754e-316
2.67177e-316
1.93868e-316
1.57244e-316
1.39117e-316
1.39095e-316
1.57001e-316
1.75319e-316
1.93845e-316
2.12406e-316
2.30906e-316
1.34861e-273
8.05977e-272
1.55193e-270
1.84444e-269
1.5803e-268
1.00487e-267
4.49731e-267
2.31166e-266
7.83923e-265
2.73315e-263
7.31734e-262
1.67025e-260
3.44834e-259
6.63379e-258
1.20756e-256
2.09989e-255
3.50911e-254
5.66293e-253
8.85661e-252
1.34718e-250
1.99848e-249
2.90006e-248
4.1263e-247
5.77231e-246
7.95564e-245
1.08305e-243
1.45911e-242
1.9501e-241
2.59006e-240
3.42671e-239
4.52343e-238
5.97173e-237
7.89664e-236
1.04838e-234
1.39948e-233
1.88291e-232
2.55703e-231
3.51361e-230
4.89257e-229
6.92114e-228
9.96334e-227
1.46332e-225
2.19705e-224
3.38132e-223
5.3464e-222
8.71142e-221
1.46638e-219
2.55967e-218
4.64757e-217
8.81895e-216
1.75357e-214
-8.9232e-155
-1.01727e-186
-5.8257e-207
1.19961e-251
2.14287e-310
6.4059e-316
6.05319e-316
5.18017e-316
4.65389e-316
4.47792e-316
4.47923e-316
4.82991e-316
5.53046e-316
6.4078e-316
7.28547e-316
7.80971e-316
6.93279e-316
5.35283e-316
3.77442e-316
2.72129e-316
2.02165e-316
1.67104e-316
1.4967e-316
1.49552e-316
1.49933e-316
1.67321e-316
1.8493e-316
2.02602e-316
5.09271e-271
3.03541e-268
8.05516e-267
1.14411e-265
1.14629e-264
9.08246e-264
6.04849e-263
3.5105e-262
1.78275e-261
8.31508e-261
3.5942e-260
1.68016e-259
1.37611e-258
2.15177e-257
3.92731e-256
6.9164e-255
1.15393e-253
1.83869e-252
2.8203e-251
4.18859e-250
6.04809e-249
8.52024e-248
1.17432e-246
1.58783e-245
2.11115e-244
2.76683e-243
3.58192e-242
4.59092e-241
5.837e-240
7.37774e-239
9.28775e-238
1.16698e-236
1.46607e-235
1.84536e-234
2.33132e-233
2.96215e-232
3.79178e-231
4.90014e-230
6.40423e-229
8.4826e-228
1.14077e-226
1.56104e-225
2.17799e-224
3.10537e-223
4.53483e-222
6.79966e-221
1.04941e-219
1.67183e-218
2.75682e-217
4.72235e-216
8.43544e-215
1.57806e-213
-5.82066e-148
-2.7228e-174
-2.82256e-202
3.06937e-245
1.87978e-281
4.00687e-314
-6.43442e-316
-5.76771e-316
-5.26524e-316
-4.93227e-316
-4.93263e-316
-5.10145e-316
-5.60299e-316
-6.27184e-316
-7.27071e-316
7.43777e-316
6.76786e-316
5.26445e-316
3.76231e-316
2.75949e-316
2.09224e-316
1.75705e-316
1.5897e-316
1.58779e-316
1.59083e-316
1.75655e-316
1.92461e-316
2.09343e-316
2.98196e-265
1.29054e-263
2.25685e-262
2.54655e-261
2.17404e-260
1.52245e-259
9.17209e-259
4.82373e-258
2.33426e-257
1.03875e-256
4.29836e-256
1.66828e-255
6.12355e-255
2.16774e-254
8.06621e-254
4.21312e-253
4.05043e-252
5.48836e-251
7.90563e-250
1.11984e-248
1.54339e-247
2.07379e-246
2.72507e-245
3.51284e-244
4.45332e-243
5.56604e-242
6.87313e-241
8.40421e-240
1.01954e-238
1.22975e-237
1.47746e-236
1.7718e-235
2.12452e-234
2.55244e-233
3.07766e-232
3.73211e-231
4.55899e-230
5.62177e-229
7.00933e-228
8.85553e-227
1.13558e-225
1.48133e-224
1.96926e-223
2.67416e-222
3.71686e-221
5.30083e-220
7.7745e-219
1.17581e-217
1.83838e-216
2.98163e-215
5.03275e-214
8.87936e-213
-3.02699e-145
-7.58941e-161
-1.84302e-183
-1.36095e-202
4.14189e-257
7.65032e-268
1.23716e-287
9.27003e-289
4.58504e-289
3.06979e-289
2.77192e-289
3.69645e-289
9.51284e-289
8.68311e-288
8.52938e-285
9.21071e-283
1.98503e-282
9.17409e-283
1.38432e-283
9.211e-285
4.01087e-286
1.6524e-287
7.56149e-289
3.8565e-290
2.05255e-291
1.02217e-292
3.95273e-294
9.56201e-263
8.51075e-261
1.95384e-259
2.58222e-258
2.43625e-257
1.82185e-256
1.14723e-255
6.32045e-255
3.07864e-254
1.39029e-253
5.81187e-253
2.27202e-252
8.37194e-252
2.9269e-251
9.76052e-251
3.11975e-250
9.61185e-250
2.89591e-249
9.04764e-249
3.60902e-248
2.49283e-247
2.67732e-246
3.29624e-245
4.11276e-244
5.06492e-243
6.14078e-242
7.3395e-241
8.6689e-240
1.01379e-238
1.17662e-237
1.35761e-236
1.56078e-235
1.79074e-234
2.05493e-233
2.36209e-232
2.72573e-231
3.16219e-230
3.69634e-229
4.35968e-228
5.20013e-227
6.28167e-226
7.70259e-225
9.60201e-224
1.21975e-222
1.5816e-221
2.09843e-220
2.85428e-219
3.9904e-218
5.74603e-217
8.54749e-216
1.31672e-214
2.10847e-213
3.52119e-212
-1.75715e-143
-6.51434e-148
-2.01803e-170
-2.36282e-199
-3.32923e-231
-8.58181e-234
-2.43266e-236
-1.57228e-237
-7.38194e-238
-4.94206e-238
-4.48882e-238
-5.91026e-238
-1.29389e-237
-5.37665e-237
-3.68905e-236
-1.59657e-235
-1.93183e-235
-6.86406e-236
-8.16211e-237
-3.75224e-238
-9.32524e-240
-2.0669e-241
-5.35243e-243
-1.6344e-244
-5.33631e-246
-1.56635e-247
-2.71256e-249
-1.81456e-255
8.47145e-257
1.33759e-255
1.43546e-254
1.17193e-253
7.83849e-253
4.50413e-252
2.26297e-251
1.0439e-250
4.43001e-250
1.74969e-249
6.48872e-249
2.27572e-248
7.59198e-248
2.42121e-247
7.41246e-247
2.18655e-246
6.23494e-246
1.7241e-245
4.64303e-245
1.23161e-244
3.36732e-244
1.12113e-243
6.1581e-243
5.53701e-242
6.03549e-241
6.82842e-240
7.7133e-239
8.64617e-238
9.61994e-237
1.06449e-235
1.1734e-234
1.29129e-233
1.42092e-232
1.56672e-231
1.73363e-230
1.9292e-229
2.16218e-228
2.44581e-227
2.79644e-226
3.23877e-225
3.80537e-224
4.5458e-223
5.52995e-222
6.86599e-221
8.71634e-220
1.13403e-218
1.51505e-217
2.08378e-216
2.9569e-215
4.34197e-214
6.61733e-213
1.05028e-211
-3.92038e-142
-9.53336e-146
-4.93437e-157
-1.24404e-181
-1.90638e-203
-7.8389e-205
-2.8261e-206
-2.07841e-207
-1.00896e-207
-7.22245e-208
-6.88094e-208
-8.9388e-208
-1.64705e-207
-4.22421e-207
-1.19838e-206
-2.19264e-206
-1.63155e-206
-4.24009e-207
-3.58616e-208
-8.52519e-210
-4.62552e-212
-1.38068e-214
-7.85326e-217
-8.30835e-219
-1.24532e-220
-1.24557e-222
-8.87512e-228
-1.86415e-254
3.85283e-253
4.79161e-252
4.36608e-251
3.12297e-250
1.89903e-249
9.9495e-249
4.72806e-248
2.05098e-247
8.23281e-247
3.0893e-246
1.09233e-245
3.66258e-245
1.17074e-244
3.58357e-244
1.05445e-243
2.9927e-243
8.21737e-243
2.18879e-242
5.66946e-242
1.43132e-241
3.53028e-241
8.53655e-241
2.04364e-240
5.03835e-240
1.483e-239
7.0216e-239
5.58123e-238
5.56549e-237
5.85519e-236
6.20519e-235
6.56934e-234
6.94578e-233
7.34555e-232
7.78298e-231
8.27756e-230
8.85147e-229
9.53458e-228
1.03627e-226
1.13854e-225
1.26663e-224
1.42957e-223
1.63971e-222
1.91505e-221
2.28162e-220
2.77865e-219
3.46587e-218
4.43724e-217
5.84347e-216
7.93432e-215
1.11375e-213
1.62082e-212
2.45322e-211
-5.463e-141
-6.99738e-143
-1.67217e-147
-6.33659e-158
-6.09532e-181
-8.31179e-185
-1.14121e-185
-8.85468e-186
-5.84403e-186
-5.02204e-186
-5.34996e-186
-7.23059e-186
-1.25218e-185
-2.57796e-185
-4.84556e-185
-5.56237e-185
-2.83886e-185
-5.2868e-186
-2.71433e-187
-2.6908e-190
-1.24007e-195
-2.5879e-209
-6.06027e-213
-2.75734e-215
-1.971e-217
-3.54704e-222
-2.04075e-226
6.44098e-251
9.222e-250
9.47742e-249
7.55208e-248
4.93816e-247
2.73336e-246
1.35181e-245
6.04241e-245
2.48124e-244
9.47445e-244
3.39473e-243
1.14959e-242
3.70041e-242
1.13769e-241
3.35447e-241
9.51919e-241
2.60793e-240
6.91723e-240
1.78071e-239
4.45946e-239
1.08869e-238
2.59604e-238
6.05745e-238
1.38551e-237
3.11244e-237
6.88865e-237
1.5163e-236
3.44985e-236
9.38545e-236
4.11659e-235
3.06086e-234
2.88432e-233
2.88796e-232
2.93081e-231
2.98791e-230
3.05931e-229
3.1498e-228
3.26675e-227
3.41835e-226
3.61568e-225
3.87198e-224
4.20602e-223
4.64213e-222
5.21581e-221
5.97631e-220
6.99738e-219
8.38743e-218
1.03145e-216
1.30394e-215
1.69864e-214
2.28561e-213
3.18592e-212
4.613e-211
-3.38629e-140
-1.91119e-141
-4.2622e-145
-1.30485e-152
-3.00474e-160
2.27519e-160
2.23349e-160
1.8292e-160
1.37876e-161
1.99134e-162
3.97169e-163
9.16772e-164
2.20043e-164
4.99311e-165
9.61898e-166
1.37333e-166
1.20711e-167
4.83624e-169
3.36897e-171
-5.75898e-177
-2.42715e-194
-1.77897e-207
-2.46836e-211
-9.82375e-214
-6.46314e-216
-1.07229e-221
-2.30606e-225
1.14279e-247
1.30712e-246
1.15444e-245
8.22807e-245
4.87927e-244
2.54158e-243
1.18193e-242
4.95014e-242
1.93542e-241
7.06508e-241
2.42802e-240
7.90628e-240
2.45228e-239
7.27673e-239
2.07351e-238
5.69231e-238
1.5099e-237
3.87977e-237
9.68027e-237
2.35031e-236
5.56391e-236
1.28663e-235
2.91136e-235
6.45669e-235
1.4056e-234
3.00812e-234
6.33791e-234
1.31692e-233
2.70703e-233
5.56115e-233
1.19179e-232
3.12795e-232
1.36559e-231
1.00465e-230
9.22565e-230
8.98249e-229
8.89548e-228
8.89293e-227
8.97471e-226
9.15448e-225
9.45463e-224
9.90257e-223
1.05376e-221
1.1412e-220
1.26017e-219
1.42139e-218
1.64092e-217
1.94253e-216
2.36312e-215
2.96042e-214
3.82875e-213
5.12514e-212
7.12077e-211
-4.45608e-139
-3.21741e-140
-2.40025e-142
1.41521e-142
-2.67305e-147
-1.10375e-147
-5.00988e-147
-7.16571e-148
-1.3497e-149
3.05366e-151
6.66831e-151
5.18477e-151
3.47782e-151
2.17185e-151
1.24108e-151
6.32294e-152
3.07423e-152
3.65432e-153
3.17922e-159
4.90779e-173
-2.26955e-193
-5.55338e-206
-5.07897e-210
-1.7555e-212
-1.06433e-214
-3.13842e-221
-1.70435e-224
1.17111e-244
1.13096e-243
8.81803e-243
5.66096e-242
3.14183e-241
1.53581e-240
6.75998e-240
2.72573e-239
1.00966e-238
3.53914e-238
1.17115e-237
3.68026e-237
1.10357e-236
3.17033e-236
8.75614e-236
2.33196e-235
6.00498e-235
1.49874e-234
3.63359e-234
8.57453e-234
1.97321e-233
4.43587e-233
9.75766e-233
2.10348e-232
4.45047e-232
9.25438e-232
1.89389e-231
3.81933e-231
7.59979e-231
1.49404e-230
2.9067e-230
5.61596e-230
1.09127e-229
2.2528e-229
6.01172e-229
2.82027e-228
2.15576e-227
1.97963e-226
1.91076e-225
1.87921e-224
1.87415e-223
1.89591e-222
1.94851e-221
2.03773e-220
2.1725e-219
2.36531e-218
2.63503e-217
3.00917e-216
3.5301e-215
4.26271e-214
5.31123e-213
6.84518e-212
9.14978e-211
-1.22142e-135
-6.30935e-135
-6.15442e-135
-1.0917e-135
-2.73639e-135
-1.26822e-137
-5.21373e-137
-1.39029e-136
-2.24462e-137
-4.2933e-138
-8.28276e-139
-1.5483e-139
-2.67474e-140
-4.0084e-141
-4.75798e-142
-3.86977e-143
-1.61916e-144
-8.63898e-147
2.20042e-155
1.84611e-163
6.82902e-177
3.22797e-201
-7.15283e-209
-2.12634e-211
-1.18136e-213
-8.62757e-221
-9.25597e-224
7.78962e-242
6.50695e-241
4.53668e-240
2.66875e-239
1.37927e-238
6.351e-238
2.65523e-237
1.02299e-236
3.67369e-236
1.24042e-235
3.92699e-235
1.19425e-234
3.47122e-234
9.67957e-234
2.59755e-233
6.72742e-233
1.68568e-232
4.0959e-232
9.67059e-232
2.22297e-231
4.9837e-231
1.09154e-230
2.33922e-230
4.91244e-230
1.01233e-229
2.04994e-229
4.08421e-229
8.01629e-229
1.55187e-228
2.96671e-228
5.60693e-228
1.04885e-227
1.94439e-227
3.57854e-227
6.56835e-227
1.22466e-226
2.51486e-226
7.365e-226
4.00742e-225
3.28605e-224
3.07428e-223
2.99142e-222
2.97081e-221
3.00478e-220
3.09804e-219
3.26175e-218
3.51275e-217
3.87738e-216
4.39476e-215
5.12606e-214
6.1664e-213
7.66916e-212
9.88766e-211
-7.01959e-128
-6.93306e-129
-2.16531e-138
-1.39727e-135
2.41415e-123
2.41466e-123
2.41479e-123
2.41479e-123
2.51137e-124
2.17865e-126
-1.27225e-135
-7.94001e-136
-7.62051e-137
-9.35431e-139
-3.29829e-139
-1.45725e-139
-1.23364e-140
-4.27045e-143
-1.10526e-156
1.47828e-158
7.6494e-166
5.72123e-181
-7.7966e-208
-1.98815e-210
-1.00191e-212
-2.21505e-220
-3.93694e-223
8.09789e-239
5.23848e-238
2.88088e-237
1.40055e-236
6.09897e-236
2.43116e-235
9.02077e-235
3.15229e-234
1.04534e-233
3.30589e-233
1.00054e-232
2.87933e-232
8.04033e-232
2.16345e-231
5.62105e-231
1.41281e-230
3.44173e-230
8.14043e-230
1.87265e-229
4.19665e-229
9.17657e-229
1.96078e-228
4.10002e-228
8.40117e-228
1.68919e-227
3.33692e-227
6.4847e-227
1.24114e-226
2.34233e-226
4.36376e-226
8.03423e-226
1.46341e-225
2.63994e-225
4.72161e-225
8.38176e-225
1.4787e-224
2.59837e-224
4.58007e-224
8.35965e-224
1.81025e-223
6.50031e-223
4.3231e-222
3.83847e-221
3.70399e-220
3.68935e-219
3.76027e-218
3.92149e-217
4.19071e-216
4.59796e-215
5.18975e-214
6.03951e-213
7.26353e-212
9.05197e-211
2.06551e-115
2.37802e-116
1.33651e-116
2.05949e-117
-1.47585e-118
-2.03213e-119
-1.48958e-120
-6.19522e-122
1.6925e-123
4.28923e-123
3.68298e-123
2.80797e-123
9.05381e-124
6.42976e-125
-1.06643e-138
1.588e-127
2.36961e-129
-3.93455e-142
-7.0702e-146
1.21005e-158
-2.87152e-159
7.12698e-171
6.62822e-200
-1.53952e-209
-6.96187e-212
-5.30291e-220
-1.36602e-222
5.05478e-235
2.65235e-234
1.20168e-233
4.70218e-233
1.62038e-232
5.02457e-232
1.43091e-231
3.80944e-231
9.62318e-231
2.33535e-230
5.49987e-230
1.26735e-229
2.84463e-229
6.38101e-229
1.41807e-228
3.12425e-228
6.81939e-228
1.47283e-227
3.14256e-227
6.61511e-227
1.37215e-226
2.80261e-226
5.63418e-226
1.11477e-225
2.17124e-225
4.16468e-225
7.87137e-225
1.46698e-224
2.69792e-224
4.90049e-224
8.79896e-224
1.56315e-223
2.75012e-223
4.79614e-223
8.29918e-223
1.42628e-222
2.43688e-222
4.14379e-222
7.02314e-222
1.19043e-221
2.04499e-221
3.79088e-221
9.58894e-221
4.68653e-220
3.78557e-219
3.61695e-218
3.64012e-217
3.77314e-216
4.01816e-215
4.40207e-214
4.97107e-213
5.80013e-212
7.01239e-211
-2.24171e-112
-4.02228e-113
-6.02136e-114
-7.26522e-115
-1.10028e-115
-3.47464e-116
-9.16835e-117
-1.75576e-117
-3.21391e-118
-6.18667e-119
-1.23983e-119
-2.48629e-120
-4.67395e-121
-7.33215e-122
-7.63918e-123
-2.59312e-124
-3.55888e-127
-1.82913e-141
-1.10844e-144
-1.81417e-152
-1.25005e-157
1.0829e-167
2.80975e-188
-1.02473e-208
-4.131e-211
-1.18059e-219
-3.98004e-222
2.99644e-231
1.46033e-230
6.16032e-230
2.26804e-229
7.40039e-229
2.17764e-228
5.87481e-228
1.47331e-227
3.47302e-227
7.76146e-227
1.65546e-226
3.38752e-226
6.67938e-226
1.25887e-225
2.32895e-225
4.19298e-225
7.36865e-225
1.26783e-224
2.14248e-224
3.56768e-224
5.8747e-224
9.59992e-224
1.56231e-223
2.54043e-223
4.13891e-223
6.7698e-223
1.1129e-222
1.83913e-222
3.05339e-222
5.08705e-222
8.49261e-222
1.41863e-221
2.36794e-221
3.94533e-221
6.55645e-221
1.08625e-220
1.79386e-220
2.95315e-220
4.84791e-220
7.85504e-220
1.28346e-219
2.09801e-219
3.45391e-219
5.9164e-219
1.22482e-218
4.46235e-218
3.14932e-217
2.96164e-216
3.02637e-215
3.2126e-214
3.5203e-213
3.98614e-212
4.67695e-211
-2.81247e-108
-5.6108e-109
-1.07104e-109
-2.0358e-110
-4.37353e-111
-1.07325e-111
-2.41126e-112
-4.48376e-113
-7.51729e-114
-1.23259e-114
-1.99159e-115
-3.04406e-116
-4.05679e-117
-4.04027e-118
-2.00477e-119
-9.23108e-122
-2.0273e-126
-9.45429e-140
4.87594e-144
6.10595e-146
1.9253e-150
3.38936e-158
9.47734e-172
5.92489e-203
-2.14281e-210
-2.43695e-219
-9.95792e-222
1.1456e-227
5.20556e-227
2.07472e-226
7.29958e-226
2.29674e-225
6.56253e-225
1.72783e-224
4.24454e-224
9.82562e-224
2.15997e-223
4.53552e-223
9.13888e-223
1.77324e-222
3.32292e-222
5.96186e-222
1.04896e-221
1.79322e-221
2.983e-221
4.83521e-221
7.64601e-221
1.18092e-220
1.78333e-220
2.63601e-220
3.81789e-220
5.42466e-220
7.57054e-220
1.03922e-219
1.4055e-219
1.87651e-219
2.47919e-219
3.25068e-219
4.24495e-219
5.54382e-219
7.2747e-219
9.63928e-219
1.28211e-218
1.75521e-218
2.45348e-218
3.5048e-218
5.1123e-218
7.6058e-218
1.15033e-217
1.76426e-217
2.73935e-217
4.31288e-217
6.99923e-217
1.28374e-216
3.68916e-216
2.22906e-215
2.05404e-214