/*--------------------------------*- C++ -*----------------------------------*\
  =========                 |
  \\      /  F ield         | OpenFOAM: The Open Source CFD Toolbox
   \\    /   O peration     | Website:  https://openfoam.org
    \\  /    A nd           | Version:  7
     \\/     M anipulation  |
\*---------------------------------------------------------------------------*/
FoamFile
{
    version     2.0;
    format      ascii;
    class       volScalarField;
    location    "25";
    object      epss;
}
// * * * * * * * * * * * * * * * * * * * * * * * * * * * * * * * * * * * * * //

dimensions      [0 0 0 0 0 0 0];

internalField   nonuniform List<scalar> 
49920
(
0.015889
0.317784
0.65875
0.592109
0.59564
0.524606
0.570908
0.697977
0.648322
0.565977
0.591125
0.649144
0.60279
0.68562
0.531266
0.096279
0.0046291
3.69522e-05
1.87958e-09
0
0
0
0
0
0
0
0
0
0
0
0
0
0
0
0
0
0
0
0
0
0
0
0
0
0
0
0
0
0
0
0
0
0
0
0
0
0
0
0
0
0
0
0
0
0
0
0
0
0
0
0
0
0
0
0
0
0
0
0
0
0.0164503
0.060829
0.197662
0.545086
0.550547
0.408591
0.597799
0.438767
0.580036
0.544244
0.516139
0.566253
0.626862
0.437493
0.140463
0.0332618
0.00360536
3.95392e-06
0
0
0
0
0
0
0
0
0
0
0
0
0
0
0
0
0
0
0
0
0
0
0
0
0
0
0
0
0
0
0
0
0
0
0
0
0
0
0
0
0
0
0
0
0
0
0
0
0
0
0
0
0
0
0
0
0
0
0
0
0
0
0.00705214
0.0100031
0.0414071
0.131133
0.135763
0.0965764
0.140661
0.103579
0.136937
0.406647
0.413845
0.402035
0.263324
0.10887
0.0356667
0.00988568
0.00213386
0.000204951
0
0
0
0
0
0
0
0
0
0
0
0
0
0
0
0
0
0
0
0
0
0
0
0
0
0
0
0
0
0
0
0
0
0
0
0
0
0
0
0
0
0
0
0
0
0
0
0
0
0
0
0
0
0
0
0
0
0
0
0
0
0
0.00249033
0.001149
0.00946142
0.0290247
0.0328387
0.0233951
0.0341883
0.0253498
0.0349723
0.0779327
0.0969764
0.0979615
0.0654713
0.0398385
0.00898385
0.0024366
0.000816643
0.000211952
2.55678e-05
0
0
0
0
0
0
0
0
0
0
0
0
0
0
0
0
0
0
0
0
0
0
0
0
0
0
0
0
0
0
0
0
0
0
0
0
0
0
0
0
0
0
0
0
0
0
0
0
0
0
0
0
0
0
9.32565e-91
8.31777e-90
1.50869e-89
1.4251e-90
0
0
6.62489e-79
0.000858795
0
0.00218475
0.00655285
0.00880782
0.00607092
0.00825991
0.00625642
0.00875668
0.011575
0.0281519
0.022907
0.0134488
0.00705543
0.00232544
0.00069533
0.000298065
0.000148617
5.1039e-05
1.05856e-05
4.01454e-07
0
0
0
0
0
0
0
0
0
0
0
0
0
0
0
0
0
0
0
0
0
0
0
0
0
0
0
0
0
0
0
0
0
0
0
0
0
0
0
0
0
0
0
0
0
0
0
0
1.04876e-96
1.70316e-95
0
0
0
0
1.14067e-89
8.48649e-90
0
0
0
0.000328158
0
0.000457553
0.00135087
0.00235165
0.00175428
0.00205999
0.00181966
0.00254046
0.00123473
0.00558592
0.00357082
0.00212605
0.00100895
0.000563582
0.000261685
0.000140128
9.91158e-05
5.94335e-05
2.59002e-05
7.39271e-06
1.27062e-06
0
0
0
0
0
0
0
0
0
0
0
0
0
0
0
0
0
0
0
0
0
0
0
0
0
0
0
0
0
0
0
0
0
0
0
0
0
0
0
0
0
0
0
0
0
0
5.7874e-98
9.63231e-97
0
0
1.20553e-83
1.42895e-81
5.21302e-81
0
0
0
0
0
0.000157972
4.9926e-06
7.16552e-05
0.000197839
0.000606207
0.000584425
0.000565979
0.000607851
0.000846963
2.83757e-05
0.000722718
0.00038958
0.000135607
0
7.51574e-05
0.000103032
8.48641e-05
7.24461e-05
5.79745e-05
3.74298e-05
1.8495e-05
6.82896e-06
1.47751e-06
4.38095e-08
0
0
0
0
0
0
0
0
0
0
0
0
0
0
0
0
0
0
0
0
0
0
0
0
0
0
0
0
0
0
0
0
0
0
0
0
0
0
0
0
0
0
0
0
2.48639e-99
1.84795e-98
0
0
1.02974e-82
7.30361e-82
0
0
3.28325e-64
2.76114e-63
0
0
0.000100381
8.89737e-06
3.49323e-06
0
0.00012929
0.000221969
0.000195404
0.000242815
0.000342178
1.94417e-05
0
0
0
0
0
3.04089e-05
4.84734e-05
5.25668e-05
5.07746e-05
4.18289e-05
2.82265e-05
1.53143e-05
6.31542e-06
1.79939e-06
2.60869e-07
0
0
0
0
0
0
0
0
0
0
0
0
0
0
0
0
0
0
0
0
0
0
0
0
0
0
0
0
0
0
0
0
0
0
0
0
0
0
0
0
0
0
0
0
0
0
7.33474e-84
6.56266e-83
0
0
2.52579e-65
3.40719e-64
0
0
1.75953e-56
7.66244e-05
1.15798e-05
4.37028e-06
0
5.93648e-06
8.56284e-05
9.07077e-05
0.000118867
0.000171696
8.5306e-05
0
0
0
1.12999e-08
0
2.79226e-06
2.04673e-05
3.20127e-05
3.81352e-05
3.82624e-05
3.226e-05
2.26479e-05
1.30493e-05
5.98603e-06
2.03924e-06
3.99342e-07
0
0
0
0
0
0
0
0
0
0
0
0
0
0
0
0
0
0
0
0
0
0
0
0
0
0
0
0
0
0
0
0
0
0
0
0
0
0
2.99128e-91
2.34296e-90
0
0
0
0
1.82124e-84
1.21975e-83
3.44183e-83
0
0
2.7149e-65
2.53467e-64
0
0
0
6.23898e-05
1.35981e-05
1.28166e-05
4.95554e-06
0
2.63066e-05
4.88205e-05
6.83641e-05
0.000101588
0.000105048
1.79035e-05
4.77047e-06
0
0
0
0
4.49561e-06
1.40694e-05
2.26606e-05
2.82108e-05
2.90601e-05
2.513e-05
1.83094e-05
1.11406e-05
5.54272e-06
2.11337e-06
5.48394e-07
5.66432e-08
0
0
0
0
0
0
0
0
0
0
0
0
0
0
0
0
0
0
0
0
0
0
0
0
0
0
0
0
0
0
0
0
0
0
0
0
0
0
0
1.34033e-76
9.18159e-76
0
0
0
0
0
0
0
0
9.74519e-65
0
0
5.06537e-05
1.42044e-05
1.81013e-05
1.52838e-05
1.76558e-06
3.40866e-06
2.50097e-05
4.23777e-05
6.5317e-05
9.30078e-05
4.668e-05
1.96826e-05
4.23229e-06
1.8786e-07
0
0
3.22689e-08
3.2363e-06
9.29546e-06
1.57353e-05
2.04011e-05
2.16607e-05
1.93321e-05
1.46244e-05
9.3634e-06
4.98007e-06
2.12285e-06
6.49097e-07
1.036e-07
0
0
0
0
0
0
0
0
0
0
0
0
0
0
0
0
0
0
0
0
0
0
0
0
0
0
0
0
0
0
0
0
7.66402e-93
6.27996e-92
0
0
5.54434e-77
3.33992e-76
0
0
0
1.61652e-68
3.11801e-67
7.58647e-67
0
0
0
7.19939e-62
0
0
4.48989e-54
3.99168e-05
1.29922e-05
1.94638e-05
2.36654e-05
8.77792e-06
0
1.11425e-05
2.62001e-05
4.33964e-05
7.06802e-05
6.30872e-05
3.77244e-05
1.47091e-05
3.11772e-06
1.2937e-07
0
0
5.86156e-09
1.84319e-06
5.77152e-06
1.04652e-05
1.42399e-05
1.57174e-05
1.45507e-05
1.14711e-05
7.71386e-06
4.37593e-06
2.01939e-06
6.99215e-07
1.51753e-07
4.72752e-09
0
0
0
0
0
0
0
0
0
0
0
0
0
0
0
0
0
0
0
0
0
0
0
0
0
0
0
0
0
0
1.01423e-92
7.9759e-92
0
0
0
0
2.26957e-72
1.92757e-69
8.61764e-69
0
0
0
0
2.23487e-61
1.41056e-60
0
0
0
0
3.03032e-05
1.04824e-05
1.80458e-05
2.68317e-05
1.67123e-05
3.73905e-06
4.80412e-06
1.54876e-05
2.90898e-05
5.00011e-05
6.15702e-05
4.9152e-05
2.74246e-05
9.97748e-06
1.94738e-06
3.4808e-07
1.14732e-06
1.33633e-06
1.09001e-06
1.70459e-06
3.74951e-06
6.79573e-06
9.62957e-06
1.10894e-05
1.07108e-05
8.83012e-06
6.24189e-06
3.74991e-06
1.86093e-06
7.22083e-07
1.8571e-07
1.67422e-08
0
0
0
0
0
0
0
0
0
0
0
0
0
0
0
0
0
0
0
0
0
0
0
0
0
0
0
0
0
0
0
0
2.06605e-74
0
0
0
0
0
0
1.38106e-62
6.34785e-62
0
0
0
0
7.91413e-49
2.18778e-47
3.46597e-47
2.21463e-05
7.6746e-06
1.54131e-05
2.58644e-05
2.13399e-05
8.60693e-06
3.18531e-06
8.72084e-06
1.93024e-05
3.44625e-05
5.01849e-05
5.04439e-05
3.65324e-05
1.86035e-05
6.33437e-06
2.14017e-06
3.27074e-06
5.1537e-06
5.32301e-06
4.09054e-06
2.99037e-06
3.1579e-06
4.59145e-06
6.43072e-06
7.67236e-06
7.75026e-06
6.69821e-06
4.97866e-06
3.1594e-06
1.67434e-06
6.98687e-07
1.99646e-07
2.60044e-08
0
0
0
0
0
0
0
0
0
0
0
0
0
0
0
0
0
0
0
0
0
0
0
0
0
0
0
0
5.74738e-78
6.87462e-75
3.10741e-74
0
0
0
0
0
5.39062e-64
6.38787e-63
1.83508e-62
0
0
4.69949e-45
5.29103e-44
1.08142e-43
0
0
1.44773e-47
1.55528e-05
5.37438e-06
1.27922e-05
2.29087e-05
2.19196e-05
1.14917e-05
3.54979e-06
4.83525e-06
1.24411e-05
2.35091e-05
3.71344e-05
4.42106e-05
3.91178e-05
2.54599e-05
1.21553e-05
5.5512e-06
5.98056e-06
9.4457e-06
1.16529e-05
1.09115e-05
8.13854e-06
5.2547e-06
3.65534e-06
3.59567e-06
4.44695e-06
5.31894e-06
5.57553e-06
5.04426e-06
3.93325e-06
2.6242e-06
1.46297e-06
6.45229e-07
2.00435e-07
3.10694e-08
0
0
0
0
0
0
0
0
0
0
0
0
0
0
0
0
0
0
0
0
0
0
0
0
1.7932e-83
2.76872e-82
0
0
0
6.39576e-75
1.33799e-71
6.2876e-71
0
0
0
5.81849e-63
4.05763e-62
6.74309e-62
0
0
0
0
0
5.20319e-43
7.6799e-43
0
1.04128e-05
3.88557e-06
1.07552e-05
1.94524e-05
1.98596e-05
1.20202e-05
4.1189e-06
2.78789e-06
7.66701e-06
1.57778e-05
2.61363e-05
3.48831e-05
3.60273e-05
2.83924e-05
1.72482e-05
9.62449e-06
8.7411e-06
1.27503e-05
1.72416e-05
1.87861e-05
1.66605e-05
1.23299e-05
7.89815e-06
4.82996e-06
3.4962e-06
3.42397e-06
3.82661e-06
4.05323e-06
3.7977e-06
3.0875e-06
2.14992e-06
1.24948e-06
5.75471e-07
1.87603e-07
3.08751e-08
0
0
0
0
0
0
0
0
0
0
0
0
0
0
0
5.86105e-114
6.27894e-112
0
0
1.78878e-95
8.44319e-94
0
0
0
0
0
3.5362e-74
4.73639e-73
0
0
0
0
1.50417e-60
0
0
0
1.3266e-62
0
0
3.35111e-43
2.18076e-42
3.30588e-42
0
0
1.22033e-40
6.54761e-06
3.11713e-06
9.33893e-06
1.61685e-05
1.66508e-05
1.08456e-05
4.13705e-06
1.70642e-06
4.46063e-06
1.0302e-05
1.79076e-05
2.57698e-05
2.99428e-05
2.74974e-05
2.01046e-05
1.30911e-05
1.09838e-05
1.43754e-05
2.02125e-05
2.44996e-05
2.48757e-05
2.14356e-05
1.59311e-05
1.0427e-05
6.30335e-06
3.96707e-06
3.07638e-06
2.9685e-06
3.02693e-06
2.87523e-06
2.41271e-06
1.73967e-06
1.0444e-06
4.94437e-07
1.63979e-07
2.69767e-08
0
0
0
0
0
0
0
0
0
0
0
0
0
0
5.96291e-114
6.72408e-112
0
0
0
1.41248e-93
4.26932e-92
0
0
5.48291e-76
1.11647e-74
0
0
0
1.35103e-56
4.33383e-55
4.88988e-55
0
0
2.5912e-49
2.14987e-48
0
0
0
0
0
0
6.20014e-42
1.84686e-41
8.03434e-41
3.80257e-06
2.83329e-06
8.32438e-06
1.32339e-05
1.31825e-05
8.74433e-06
3.52015e-06
1.03422e-06
2.43236e-06
6.55895e-06
1.21587e-05
1.8469e-05
2.34161e-05
2.42808e-05
2.05688e-05
1.5209e-05
1.2395e-05
1.43772e-05
2.00755e-05
2.62146e-05
2.96245e-05
2.88985e-05
2.46226e-05
1.85515e-05
1.25278e-05
7.7772e-06
4.71759e-06
3.14038e-06
2.5327e-06
2.35132e-06
2.19608e-06
1.87517e-06
1.38787e-06
8.53022e-07
4.0943e-07
1.35305e-07
2.1524e-08
0
0
0
0
0
0
0
0
0
0
0
0
0
1.28494e-114
1.75366e-112
0
0
1.55103e-97
1.19082e-94
0
0
5.00637e-78
1.44817e-76
0
0
9.61176e-60
1.54256e-58
0
0
2.77535e-53
3.40965e-52
0
0
0
0
6.87632e-41
9.84303e-39
4.09721e-38
5.11409e-38
8.65035e-39
0
0
0
2.04021e-06
2.81669e-06
7.46495e-06
1.0623e-05
9.88618e-06
6.34264e-06
2.50884e-06
5.38129e-07
1.29453e-06
4.25177e-06
8.47807e-06
1.34048e-05
1.80219e-05
2.04596e-05
1.94525e-05
1.59963e-05
1.30427e-05
1.33615e-05
1.75856e-05
2.3929e-05
2.94941e-05
3.1968e-05
3.05962e-05
2.61295e-05
2.01068e-05
1.40699e-05
9.0691e-06
5.53719e-06
3.41309e-06
2.35051e-06
1.90688e-06
1.68883e-06
1.44285e-06
1.08761e-06
6.79532e-07
3.27431e-07
1.06458e-07
1.59476e-08
0
0
0
0
0
0
0
0
0
0
0
0
0
2.31879e-114
0
0
0
0
0
2.38514e-80
1.12006e-78
0
0
1.37361e-61
2.76675e-60
0
0
8.40846e-55
1.05376e-53
0
0
8.37663e-45
3.45785e-43
9.57087e-43
0
0
4.32488e-40
3.99968e-39
0
1.30128e-39
7.52998e-39
0
1.09441e-06
2.90517e-06
6.59427e-06
8.27772e-06
6.97202e-06
4.08645e-06
1.44171e-06
2.19971e-07
8.70918e-07
3.16791e-06
6.51764e-06
1.04373e-05
1.43801e-05
1.72406e-05
1.77977e-05
1.59382e-05
1.32463e-05
1.21177e-05
1.41444e-05
1.90857e-05
2.50975e-05
2.98572e-05
3.1722e-05
3.0283e-05
2.62155e-05
2.07403e-05
1.50764e-05
1.01105e-05
6.30576e-06
3.75948e-06
2.30028e-06
1.60208e-06
1.2969e-06
1.08919e-06
8.31561e-07
5.25953e-07
2.5335e-07
8.06586e-08
1.15771e-08
0
0
0
0
0
0
0
0
0
0
0
0
0
0
0
0
0
3.18625e-83
3.72317e-81
0
0
0
8.82437e-62
8.47007e-61
0
0
0
0
0
3.27042e-46
2.79228e-45
0
0
1.59844e-39
5.66732e-38
1.8267e-37
2.0472e-37
9.97978e-38
4.40188e-39
3.03741e-38
0
7.52869e-07
2.97521e-06
5.64094e-06
6.17619e-06
4.55228e-06
2.26321e-06
6.25335e-07
1.9558e-07
1.07477e-06
3.11886e-06
5.96522e-06
9.21e-06
1.24774e-05
1.5154e-05
1.63603e-05
1.55681e-05
1.33268e-05
1.12424e-05
1.10769e-05
1.36638e-05
1.84286e-05
2.37625e-05
2.78772e-05
2.95753e-05
2.85663e-05
2.53254e-05
2.07224e-05
1.56704e-05
1.0917e-05
6.97364e-06
4.0975e-06
2.29874e-06
1.3704e-06
9.77746e-07
7.93026e-07
6.13043e-07
3.93735e-07
1.91164e-07
6.14113e-08
9.50207e-09
0
0
0
0
0
0
0
0
0
0
0
0
0
0
0
8.66364e-89
1.03615e-84
0
0
1.81592e-66
9.51083e-65
0
0
0
4.01603e-54
1.96294e-53
0
0
2.86224e-46
1.57084e-45
0
0
1.03037e-38
1.1577e-37
3.13195e-37
3.69192e-37
2.55446e-37
0
0
7.83795e-36
7.81944e-07
2.93475e-06
4.60638e-06
4.33987e-06
2.68769e-06
1.02871e-06
2.68913e-07
5.85262e-07
1.85164e-06
3.90465e-06
6.49216e-06
9.27901e-06
1.19583e-05
1.41875e-05
1.54451e-05
1.52024e-05
1.34288e-05
1.09368e-05
9.13043e-06
9.2702e-06
1.17749e-05
1.60227e-05
2.07122e-05
2.44717e-05
2.63742e-05
2.61199e-05
2.39362e-05
2.0353e-05
1.6009e-05
1.15428e-05
7.52437e-06
4.37912e-06
2.29018e-06
1.16575e-06
7.01535e-07
5.3991e-07
4.2798e-07
2.82456e-07
1.39512e-07
4.53904e-08
6.83366e-09
0
0
0
0
0
0
0
0
0
0
0
0
0
0
0
0
0
0
0
0
0
2.23275e-56
8.10133e-55
0
0
0
0
0
0
0
8.54574e-40
6.17891e-39
0
0
0
1.39041e-37
0
0
1.06884e-35
9.67404e-07
2.73319e-06
3.54108e-06
2.818e-06
1.40501e-06
4.35198e-07
4.62793e-07
1.43834e-06
3.11472e-06
5.28286e-06
7.7223e-06
1.015e-05
1.23075e-05
1.39992e-05
1.49768e-05
1.48865e-05
1.34906e-05
1.10306e-05
8.35855e-06
6.63655e-06
6.77472e-06
8.97969e-06
1.26939e-05
1.69073e-05
2.05602e-05
2.28894e-05
2.35284e-05
2.24537e-05
1.98857e-05
1.62275e-05
1.20362e-05
7.95414e-06
4.57057e-06
2.23641e-06
9.58431e-07
4.50736e-07
3.21778e-07
2.69454e-07
1.86081e-07
9.35678e-08
3.05317e-08
4.75009e-09
0
0
0
0
0
0
0
0
0
0
0
0
7.83038e-77
2.15037e-74
0
0
4.67776e-66
1.009e-63
0
0
0
0
1.08336e-51
2.46704e-50
0
0
1.73045e-35
2.50279e-33
9.34069e-33
0
0
0
1.6519e-29
3.69482e-30
0
0
0
0
1.14508e-06
2.37074e-06
2.52671e-06
1.66822e-06
7.0303e-07
4.56141e-07
1.18297e-06
2.6974e-06
4.70146e-06
6.95256e-06
9.23332e-06
1.13052e-05
1.29643e-05
1.41056e-05
1.46601e-05
1.44735e-05
1.33248e-05
1.11557e-05
8.32407e-06
5.62434e-06
3.99719e-06
4.10307e-06
6.02543e-06
9.30583e-06
1.31921e-05
1.68713e-05
1.9687e-05
2.11948e-05
2.11432e-05
1.94796e-05
1.64067e-05
1.24203e-05
8.2517e-06
4.65046e-06
2.11672e-06
7.33398e-07
2.17603e-07
1.39046e-07
1.4051e-07
1.13854e-07
6.20107e-08
2.14158e-08
3.59065e-09
0
0
0
0
0
0
0
0
0
0
0
1.18526e-76
7.4319e-75
0
0
6.48621e-66
1.15328e-64
0
0
0
0
4.85166e-51
1.08772e-49
0
0
0
0
0
1.09988e-29
7.88519e-29
1.24043e-28
0
0
0
0
5.91844e-28
0
1.21528e-06
1.89609e-06
1.65934e-06
9.38675e-07
5.50429e-07
1.00209e-06
2.30733e-06
4.19799e-06
6.36745e-06
8.56748e-06
1.05921e-05
1.22529e-05
1.34114e-05
1.40293e-05
1.41422e-05
1.37481e-05
1.27313e-05
1.09454e-05
8.42847e-06
5.57428e-06
3.08097e-06
1.69481e-06
1.87963e-06
3.58734e-06
6.52004e-06
1.01179e-05
1.38063e-05
1.70404e-05
1.93011e-05
2.01227e-05
1.92045e-05
1.65749e-05
1.27006e-05
8.40954e-06
4.60786e-06
1.92083e-06
4.88798e-07
3.05575e-08
4.16361e-08
8.0151e-08
7.61006e-08
4.3634e-08
1.53261e-08
2.49023e-09
0
0
0
0
0
0
0
5.86211e-87
9.93193e-84
0
0
0
1.19324e-71
8.53513e-70
0
0
3.63231e-59
2.2833e-57
0
0
0
0
0
0
5.32264e-33
2.55128e-31
7.83203e-31
0
0
0
0
2.0246e-24
2.96354e-24
1.32461e-24
0
7.45663e-27
1.14623e-06
1.39326e-06
1.03069e-06
6.50585e-07
8.77445e-07
1.92834e-06
3.63774e-06
5.69641e-06
7.81813e-06
9.78104e-06
1.14159e-05
1.2597e-05
1.32564e-05
1.34092e-05
1.31424e-05
1.25395e-05
1.15891e-05
1.01737e-05
8.19002e-06
5.73565e-06
3.19408e-06
1.15855e-06
2.08938e-07
6.23417e-07
2.07213e-06
4.54466e-06
7.78378e-06
1.14275e-05
1.49982e-05
1.78858e-05
1.94173e-05
1.90702e-05
1.67339e-05
1.2871e-05
8.42093e-06
4.4356e-06
1.6566e-06
2.86143e-07
0
2.00955e-08
5.50934e-08
5.43734e-08
3.08305e-08
1.02174e-08
1.43406e-09
0
0
0
0
0
0
5.39989e-88
3.51689e-84
0
0
6.72433e-77
4.55697e-73
0
0
1.16811e-60
7.73042e-59
0
0
1.08286e-46
1.26596e-43
5.47261e-43
0
0
2.14005e-32
1.75101e-31
0
0
2.65359e-25
2.53003e-24
5.07151e-24
3.71237e-24
4.01309e-24
4.44404e-25
0
1.60814e-26
9.67027e-07
9.61451e-07
7.07724e-07
7.81807e-07
1.56723e-06
3.04246e-06
4.92968e-06
6.91817e-06
8.76761e-06
1.03115e-05
1.1442e-05
1.21043e-05
1.22968e-05
1.20735e-05
1.15366e-05
1.07965e-05
9.90469e-06
8.80771e-06
7.38383e-06
5.57485e-06
3.5096e-06
1.54044e-06
1.62762e-07
0
1.95987e-07
1.19938e-06
3.1795e-06
6.07445e-06
9.67127e-06
1.35247e-05
1.6922e-05
1.90045e-05
1.90582e-05
1.68676e-05
1.29194e-05
8.27634e-06
4.14806e-06
1.39971e-06
2.04875e-07
0
1.36044e-08
4.1123e-08
3.90105e-08
2.06984e-08
6.07931e-09
6.47567e-10
0
0
0
0
0
0
0
0
1.30849e-79
5.63828e-78
0
0
0
1.11373e-60
3.0222e-59
0
0
7.15196e-45
8.65668e-44
0
0
4.56483e-34
6.69887e-33
0
0
8.88718e-26
2.00214e-24
6.19896e-24
4.30062e-24
0
0
1.64958e-24
4.6951e-25
0
7.48977e-07
6.91331e-07
7.13922e-07
1.25547e-06
2.45499e-06
4.1211e-06
5.93284e-06
7.6185e-06
9.00698e-06
1.00066e-05
1.05826e-05
1.07474e-05
1.05504e-05
1.00666e-05
9.38975e-06
8.61769e-06
7.81863e-06
6.98998e-06
6.0484e-06
4.89185e-06
3.501e-06
2.01184e-06
7.31229e-07
1.32621e-07
0
4.48017e-08
6.75483e-07
2.25009e-06
4.87559e-06
8.44915e-06
1.25409e-05
1.63454e-05
1.88359e-05
1.9134e-05
1.69497e-05
1.28258e-05
7.98365e-06
3.804e-06
1.18043e-06
1.37532e-07
0
1.10236e-08
3.1359e-08
2.7159e-08
1.30129e-08
3.19786e-09
1.96207e-10
0
0
0
0
0
0
0
5.20737e-80
6.53242e-78
0
0
4.16582e-63
1.98012e-61
0
0
1.02472e-46
2.26931e-45
0
0
9.23166e-37
1.21772e-34
5.2272e-34
0
0
9.60903e-26
8.32158e-25
0
0
2.73044e-23
6.08918e-23
2.00007e-23
0
5.29083e-25
5.78831e-07
6.41954e-07
1.01636e-06
1.93943e-06
3.34188e-06
4.94161e-06
6.44056e-06
7.64253e-06
8.46135e-06
8.88447e-06
8.94441e-06
8.70322e-06
8.23754e-06
7.62418e-06
6.93413e-06
6.23324e-06
5.57515e-06
4.97929e-06
4.40828e-06
3.77847e-06
3.016e-06
2.11817e-06
1.20123e-06
4.96835e-07
1.14839e-07
0
1.42856e-09
3.68206e-07
1.64291e-06
4.07441e-06
7.65108e-06
1.19522e-05
1.60837e-05
1.88594e-05
1.92549e-05
1.69424e-05
1.25732e-05
7.55833e-06
3.39633e-06
9.40416e-07
7.58176e-08
0
9.8836e-09
2.38158e-08
1.81822e-08
7.56263e-09
1.43945e-09
1.31161e-11
0
0
0
0
0
0
7.02325e-83
0
0
7.9793e-66
5.83682e-64
0
0
5.75917e-49
2.04246e-47
0
0
3.24968e-40
2.75737e-37
3.08042e-36
0
0
0
0
0
2.95891e-23
1.99461e-22
3.78897e-22
2.35756e-22
1.4791e-23
0
3.27256e-25
5.31022e-07
8.23051e-07
1.52351e-06
2.66098e-06
4.02555e-06
5.32509e-06
6.33883e-06
6.96952e-06
7.21735e-06
7.13609e-06
6.80338e-06
6.30384e-06
5.71585e-06
5.10084e-06
4.50106e-06
3.94709e-06
3.46539e-06
3.0741e-06
2.76598e-06
2.49474e-06
2.18978e-06
1.79058e-06
1.28795e-06
7.50283e-07
3.26406e-07
8.25125e-08
0
0
1.98779e-07
1.26129e-06
3.56644e-06
7.17922e-06
1.16804e-05
1.60769e-05
1.90195e-05
1.93603e-05
1.67885e-05
1.21192e-05
6.96198e-06
2.89861e-06
6.86155e-07
2.66451e-08
0
9.47242e-09
1.74836e-08
1.14148e-08
3.87964e-09
5.11656e-10
0
0
0
0
0
0
0
0
1.84577e-68
1.16191e-66
0
0
1.42293e-51
7.98419e-50
0
0
4.75075e-42
3.48658e-40
0
0
1.19573e-35
0
0
0
2.19926e-23
2.08718e-22
5.57694e-22
5.2068e-22
4.73942e-23
4.9609e-23
8.80301e-23
0
6.44823e-07
1.18743e-06
2.09749e-06
3.2374e-06
4.34221e-06
5.17991e-06
5.63993e-06
5.72635e-06
5.50917e-06
5.08141e-06
4.53498e-06
3.94885e-06
3.38211e-06
2.8703e-06
2.4275e-06
2.05572e-06
1.75658e-06
1.53665e-06
1.40013e-06
1.33192e-06
1.28866e-06
1.20837e-06
1.03471e-06
7.55444e-07
4.49699e-07
2.01054e-07
5.31825e-08
0
0
1.09684e-07
1.03223e-06
3.27512e-06
6.96684e-06
1.16694e-05
1.62647e-05
1.92358e-05
1.93498e-05
1.63847e-05
1.13845e-05
6.16303e-06
2.31636e-06
4.41389e-07
0
0
9.04187e-09
1.18529e-08
6.49237e-09
1.75394e-09
1.48287e-10
0
0
0
0
0
0
8.6939e-71
4.95707e-69
0
0
1.47121e-54
1.38709e-52
0
0
1.28213e-46
1.32815e-43
0
0
4.76057e-36
3.01616e-35
0
0
3.12678e-25
3.5752e-23
1.47269e-22
7.64891e-23
0
1.26741e-22
0
0
1.18464e-22
9.10373e-07
1.63716e-06
2.58129e-06
3.51669e-06
4.20814e-06
4.53015e-06
4.48653e-06
4.16138e-06
3.66286e-06
3.0898e-06
2.51909e-06
2.00289e-06
1.56929e-06
1.22541e-06
9.62829e-07
7.66226e-07
6.22983e-07
5.29433e-07
4.89433e-07
5.04372e-07
5.60042e-07
6.2023e-07
6.34229e-07
5.64352e-07
4.22436e-07
2.56314e-07
1.16222e-07
3.14314e-08
0
0
6.52031e-08
9.08956e-07
3.1536e-06
6.9695e-06
1.18626e-05
1.65567e-05
1.93753e-05
1.90676e-05
1.56e-05
1.0303e-05
5.15533e-06
1.69361e-06
2.30764e-07
0
2.34111e-10
7.7916e-09
7.35496e-09
3.34165e-09
6.96124e-10
2.43594e-11
1.6087e-15
0
2.99141e-80
0
0
0
0
0
3.86563e-58
9.12116e-56
0
0
0
0
0
0
1.52634e-38
3.49861e-36
1.44772e-35
0
0
0
0
0
8.09832e-22
3.57193e-21
6.44806e-21
9.76404e-21
5.2875e-21
0
1.26706e-06
2.04487e-06
2.83657e-06
3.41751e-06
3.64592e-06
3.51557e-06
3.11944e-06
2.5823e-06
2.01281e-06
1.48622e-06
1.04487e-06
7.04377e-07
4.60892e-07
2.98195e-07
1.94851e-07
1.30741e-07
9.16291e-08
7.0847e-08
6.81715e-08
8.81155e-08
1.36111e-07
2.06993e-07
2.76484e-07
3.11363e-07
2.9135e-07
2.2452e-07
1.38096e-07
6.28021e-08
1.74174e-08
0
0
4.52199e-08
8.65026e-07
3.17166e-06
7.14077e-06
1.21727e-05
1.6808e-05
1.92498e-05
1.83341e-05
1.43221e-05
8.85053e-06
4.00053e-06
1.09135e-06
8.4107e-08
0
9.96544e-10
5.83067e-09
4.2143e-09
1.52683e-09
2.24284e-10
0
0
0
0
7.12635e-71
1.45468e-68
0
0
5.83919e-60
0
0
0
0
0
0
0
4.06346e-38
9.16896e-37
2.082e-36
0
0
0
9.45855e-22
4.96451e-21
1.11084e-20
9.2721e-21
0
0
3.09792e-20
0
1.61696e-06
2.28705e-06
2.78208e-06
2.95446e-06
2.7827e-06
2.35723e-06
1.81411e-06
1.27395e-06
8.13944e-07
4.67613e-07
2.35836e-07
1.00134e-07
3.26975e-08
6.23561e-09
5.45401e-11
0
0
0
0
0
2.73453e-09
2.34584e-08
6.49885e-08
1.12561e-07
1.42715e-07
1.41904e-07
1.12782e-07
7.00202e-08
3.22113e-08
9.37958e-09
0
0
3.97111e-08
8.84989e-07
3.2977e-06
7.41043e-06
1.2468e-05
1.68271e-05
1.86513e-05
1.69966e-05
1.25067e-05
7.10127e-06
2.80961e-06
5.80557e-07
8.70515e-09
0
1.83968e-09
3.82946e-09
2.26344e-09
6.18495e-10
4.33345e-11
0
0
0
0
0
1.68386e-64
8.8903e-63
0
0
6.59533e-52
1.86307e-50
0
0
0
0
0
0
0
0
0
4.13469e-22
5.68649e-21
1.41377e-20
3.7126e-21
2.62221e-20
4.25538e-19
9.18891e-19
0
0
1.85243e-06
2.28135e-06
2.41989e-06
2.23703e-06
1.81612e-06
1.29573e-06
8.03679e-07
4.19979e-07
1.71603e-07
4.46288e-08
1.98775e-09
0
0
0
0
0
0
0
0
0
0
0
8.96864e-10
1.60311e-08
4.09501e-08
6.05561e-08
6.49161e-08
5.34277e-08
3.39423e-08
1.62256e-08
5.11312e-09
0
0
4.47852e-08
9.53981e-07
3.48701e-06
7.67907e-06
1.25823e-05
1.64076e-05
1.74057e-05
1.49935e-05
1.02369e-05
5.22292e-06
1.7208e-06
2.3311e-07
0
0
2.21282e-09
2.35597e-09
1.05594e-09
1.81253e-10
8.97886e-13
2.46933e-16
0
0
0
8.1252e-65
4.64139e-63
0
0
0
0
5.57771e-47
4.43426e-46
0
0
2.98902e-31
8.17019e-30
2.14637e-29
0
0
8.69066e-22
7.10913e-21
1.35748e-20
3.23988e-21
0
0
2.85291e-18
0
0
1.89134e-06
2.01505e-06
1.83764e-06
1.43782e-06
9.55162e-07
5.19911e-07
2.11e-07
4.7914e-08
2.59676e-10
0
0
0
0
0
2.04617e-12
1.1997e-11
2.38082e-11
3.94082e-11
6.55683e-11
1.02127e-10
9.59794e-11
0
0
0
2.37576e-09
1.28111e-08
2.358e-08
2.78829e-08
2.42927e-08
1.63539e-08
8.57231e-09
3.23535e-09
0
0
5.90851e-08
1.0527e-06
3.68007e-06
7.82503e-06
1.23393e-05
1.5379e-05
1.54429e-05
1.24154e-05
7.73322e-06
3.43623e-06
8.8652e-07
5.81328e-08
0
7.7464e-11
1.82473e-09
1.25318e-09
3.68041e-10
2.807e-11
0
0
0
0
9.67667e-66
6.98697e-64
0
0
0
0
8.0453e-47
5.65173e-46
0
0
9.71101e-31
5.26761e-30
0
0
2.82297e-24
1.05566e-22
0
0
0
0
2.17715e-17
8.00448e-20
0
0
1.7078e-06
1.55243e-06
1.18148e-06
7.37063e-07
3.53696e-07
1.07853e-07
7.66734e-09
0
0
0
0
0
5.93854e-12
2.04584e-11
5.04377e-11
9.52796e-11
1.51207e-10
2.21747e-10
3.25712e-10
4.79958e-10
6.81244e-10
7.7882e-10
7.12185e-10
0
0
1.90832e-11
3.16196e-09
8.38485e-09
1.16604e-08
1.14513e-08
8.87905e-09
5.7878e-09
3.00677e-09
0
0
8.11706e-08
1.1559e-06
3.80432e-06
7.71995e-06
1.1596e-05
1.36764e-05
1.28599e-05
9.52181e-06
5.29787e-06
1.98055e-06
3.59461e-07
0
0
5.73469e-10
1.08862e-09
5.35715e-10
9.73151e-11
1.11438e-12
1.46339e-16
0
0
0
0
2.82687e-64
0
0
0
5.2838e-47
3.0282e-46
0
0
5.93186e-33
3.026e-29
1.2704e-28
9.22699e-28
1.13375e-25
0
0
3.33999e-17
9.63683e-17
1.20784e-16
8.06899e-17
0
0
0
1.34477e-06
1.0139e-06
6.05446e-07
2.61124e-07
5.92581e-08
1.50773e-11
0
0
0
1.06777e-12
6.08025e-12
1.68343e-11
4.13351e-11
9.09192e-11
1.75124e-10
2.94135e-10
4.41908e-10
6.19824e-10
8.52021e-10
1.17851e-09
1.63646e-09
2.14937e-09
2.52061e-09
2.4301e-09
1.80764e-09
4.50449e-10
0
6.18141e-10
3.6798e-09
6.26949e-09
7.33202e-09
7.10887e-09
6.06856e-09
3.95885e-09
0
0
1.075e-07
1.23096e-06
3.78315e-06
7.26421e-06
1.03062e-05
1.14002e-05
9.93255e-06
6.67254e-06
3.24074e-06
9.62802e-07
9.95903e-08
0
0
6.82812e-10
5.61452e-10
1.86193e-10
1.54949e-11
2.70322e-15
0
0
0
0
7.50826e-65
0
0
1.63274e-49
2.80582e-47
1.1066e-46
0
0
0
0
0
3.16407e-27
0
0
7.67227e-17
4.08241e-16
7.54309e-16
5.72825e-16
4.03082e-17
0
0
0
8.99878e-07
5.31451e-07
2.15851e-07
3.85382e-08
0
0
0
0
3.64009e-12
1.30768e-11
3.21482e-11
6.7107e-11
1.29967e-10
2.37749e-10
4.04422e-10
6.32586e-10
9.13381e-10
1.24071e-09
1.63194e-09
2.13789e-09
2.82884e-09
3.71198e-09
4.67725e-09
5.44767e-09
5.58356e-09
4.81516e-09
3.30895e-09
2.11061e-09
2.76996e-09
4.52976e-09
6.43641e-09
7.9305e-09
8.75063e-09
8.40496e-09
5.7021e-09
0
0
1.30727e-07
1.24362e-06
3.56219e-06
6.43596e-06
8.56361e-06
8.80906e-06
7.03129e-06
4.21257e-06
1.72219e-06
3.72079e-07
1.2715e-08
0
5.10603e-11
5.01241e-10
2.83433e-10
5.34792e-11
0
0
6.22285e-75
0
0
3.31496e-67
0
0
2.53234e-49
1.7717e-47
5.49447e-47
0
0
2.72656e-29
2.95961e-27
9.99534e-27
0
0
8.05624e-18
3.32627e-16
1.17204e-15
1.57343e-15
6.21926e-16
0
0
0
8.04239e-09
4.87441e-07
1.98351e-07
3.30086e-08
0
0
0
8.76782e-13
5.59661e-12
1.85825e-11
4.53949e-11
9.24751e-11
1.68612e-10
2.87952e-10
4.69617e-10
7.30729e-10
1.07627e-09
1.49529e-09
1.97183e-09
2.50805e-09
3.14744e-09
3.97311e-09
5.06373e-09
6.42408e-09
7.88455e-09
9.07032e-09
9.51549e-09
8.94328e-09
7.71681e-09
6.80946e-09
6.78735e-09
7.70762e-09
9.3036e-09
1.11266e-08
1.24809e-08
1.20274e-08
7.78522e-09
0
0
1.41878e-07
1.17385e-06
3.13703e-06
5.30876e-06
6.58005e-06
6.2355e-06
4.49698e-06
2.34116e-06
7.63786e-07
9.99402e-08
0
0
3.29383e-10
3.46945e-10
1.31923e-10
1.40625e-11
0
0
4.92309e-71
4.89918e-69
0
0
0
1.14219e-49
1.31777e-47
4.68911e-47
0
0
5.66818e-28
1.24834e-26
3.11174e-26
0
0
7.70323e-17
6.01752e-16
1.19114e-15
5.49224e-16
0
0
0
1.35063e-08
4.33976e-08
1.92443e-07
3.55595e-08
0
0
0
1.56623e-12
7.78608e-12
2.29641e-11
5.38086e-11
1.08698e-10
1.95845e-10
3.23731e-10
5.04224e-10
7.53999e-10
1.08961e-09
1.51717e-09
2.02528e-09
2.59088e-09
3.20052e-09
3.87937e-09
4.70281e-09
5.78617e-09
7.21991e-09
8.97887e-09
1.08456e-08
1.24035e-08
1.31981e-08
1.29942e-08
1.20465e-08
1.10587e-08
1.07334e-08
1.14772e-08
1.32587e-08
1.55644e-08
1.72335e-08
1.61064e-08
9.74291e-09
0
0
1.36672e-07
1.02411e-06
2.5552e-06
4.02681e-06
4.60947e-06
3.97614e-06
2.53851e-06
1.1044e-06
2.58293e-07
1.14413e-08
0
8.11123e-12
3.7101e-10
2.80237e-10
9.6008e-11
1.42326e-11
0
0
3.97488e-69
8.78169e-68
0
0
2.16002e-50
1.21919e-47
5.01926e-47
0
0
2.40212e-27
1.16066e-26
0
0
5.80855e-18
1.28278e-16
3.83892e-16
0
0
0
9.08539e-09
4.04227e-08
8.83255e-08
1.27494e-07
4.06603e-08
0
0
0
2.28084e-12
9.97315e-12
2.72642e-11
5.99156e-11
1.16093e-10
2.04868e-10
3.33344e-10
5.0623e-10
7.29329e-10
1.01292e-09
1.36939e-09
1.8045e-09
2.30881e-09
2.85873e-09
3.43222e-09
4.03549e-09
4.72464e-09
5.61241e-09
6.83092e-09
8.46537e-09
1.04662e-08
1.25833e-08
1.43883e-08
1.54031e-08
1.53868e-08
1.46202e-08
1.37833e-08
1.36572e-08
1.47762e-08
1.71525e-08
2.01052e-08
2.1953e-08
1.98131e-08
1.1284e-08
0
0
1.17181e-07
8.14274e-07
1.89138e-06
2.75557e-06
2.87956e-06
2.22002e-06
1.21274e-06
4.04924e-07
4.94653e-08
0
0
3.94246e-10
5.07817e-10
2.95733e-10
8.13869e-11
4.30655e-12
0
5.49465e-70
2.06339e-68
0
0
4.91148e-49
6.79877e-48
0
0
8.31306e-29
3.1825e-27
9.38134e-27
0
0
1.17045e-17
5.83437e-17
0
0
4.26394e-10
2.69618e-08
1.00443e-07
1.98196e-07
2.60945e-07
2.56333e-07
0
0
0
3.28676e-12
1.21964e-11
3.11116e-11
6.48454e-11
1.19167e-10
2.01223e-10
3.17647e-10
4.7146e-10
6.61625e-10
8.86848e-10
1.15004e-09
1.45818e-09
1.81612e-09
2.21872e-09
2.64854e-09
3.08456e-09
3.52159e-09
3.99266e-09
4.58309e-09
5.42098e-09
6.64038e-09
8.31264e-09
1.03645e-08
1.25248e-08
1.43502e-08
1.54075e-08
1.55484e-08
1.5064e-08
1.46296e-08
1.50455e-08
1.68675e-08
2.00738e-08
2.37779e-08
2.57597e-08
2.26277e-08
1.24132e-08
0
0
8.62261e-08
5.72382e-07
1.23712e-06
1.64576e-06
1.53331e-06
1.01316e-06
4.30537e-07
8.24945e-08
0
0
3.83992e-10
6.94315e-10
5.35048e-10
1.95728e-10
1.9432e-11
0
0
5.87897e-71
0
0
4.16987e-49
3.32437e-48
0
0
2.0555e-28
1.5423e-27
0
0
8.92237e-19
8.9904e-18
1.81149e-17
0
0
1.90336e-08
1.17344e-07
2.85089e-07
4.19559e-07
4.28757e-07
3.40377e-07
0
0
4.77527e-12
1.48513e-11
3.44635e-11
6.78729e-11
1.18875e-10
1.91113e-10
2.88173e-10
4.11982e-10
5.60553e-10
7.28125e-10
9.0873e-10
1.10042e-09
1.30625e-09
1.53073e-09
1.77392e-09
2.02785e-09
2.27895e-09
2.51962e-09
2.76339e-09
3.06033e-09
3.50326e-09
4.21676e-09
5.32067e-09
6.86692e-09
8.76625e-09
1.07502e-08
1.24272e-08
1.34513e-08
1.37373e-08
1.35898e-08
1.36601e-08
1.4722e-08
1.73306e-08
2.146e-08
2.60285e-08
2.8324e-08
2.45779e-08
1.32845e-08
0
0
4.95108e-08
3.38868e-07
6.7571e-07
7.76009e-07
5.80207e-07
2.74641e-07
6.26561e-08
2.46073e-10
0
2.386e-10
5.33319e-10
5.04146e-10
2.38234e-10
3.51437e-11
5.29151e-14
0
0
0
4.34585e-51
1.07942e-49
0
0
7.66303e-30
8.24758e-29
0
0
7.70754e-20
1.48848e-18
4.42107e-18
0
0
2.46669e-09
5.17794e-08
1.9024e-07
3.45449e-07
3.85331e-07
3.19639e-07
2.20256e-07
3.2185e-13
6.69532e-12
1.80279e-11
3.76993e-11
6.91251e-11
1.14782e-10
1.75904e-10
2.52639e-10
3.44186e-10
4.48061e-10
5.59206e-10
6.70644e-10
7.76071e-10
8.72734e-10
9.62501e-10
1.05016e-09
1.13981e-09
1.23132e-09
1.32026e-09
1.40076e-09
1.47473e-09
1.56258e-09
1.71337e-09
2.00823e-09
2.55154e-09
3.44156e-09
4.7168e-09
6.29642e-09
7.95218e-09
9.36236e-09
1.02675e-08
1.06382e-08
1.077e-08
1.12586e-08
1.28512e-08
1.6174e-08
2.13158e-08
2.70693e-08
3.01621e-08
2.63131e-08
1.44831e-08
5.17206e-10
0
1.80023e-08
1.49362e-07
2.31779e-07
1.1626e-07
2.2281e-08
0
0
0
0
1.01067e-12
6.37352e-11
8.86762e-11
2.62793e-11
2.80408e-13
0
3.48558e-19
0
5.52132e-52
0
0
1.3798e-32
4.76478e-30
1.9982e-29
0
0
1.77196e-19
1.39582e-18
2.28802e-18
0
0
9.56192e-09
5.82498e-08
1.14682e-07
7.51311e-08
1.41046e-09
0
0
8.91081e-12
2.14183e-11
4.06606e-11
6.89971e-11
1.07632e-10
1.56397e-10
2.13669e-10
2.76634e-10
3.41701e-10
4.04678e-10
4.60908e-10
5.05879e-10
5.364e-10
5.51841e-10
5.54682e-10
5.49856e-10
5.42914e-10
5.37477e-10
5.34116e-10
5.29644e-10
5.21402e-10
5.12874e-10
5.20437e-10
5.78571e-10
7.42578e-10
1.08785e-09
1.69431e-09
2.60309e-09
3.76042e-09
4.99334e-09
6.0515e-09
6.74982e-09
7.09107e-09
7.3356e-09
8.01429e-09
9.90965e-09
1.39182e-08
2.04655e-08
2.81927e-08
3.29056e-08
2.96127e-08
1.77754e-08
4.32335e-09
0
1.07121e-09
1.49809e-08
0
0
6.19142e-07
0.000115361
0.000155796
0
0
0
0
3.30153e-13
1.9913e-13
0
3.89014e-19
0
4.63125e-51
0
0
6.67993e-32
1.13767e-30
0
0
2.83712e-21
1.86793e-19
6.79829e-19
0
0
7.23693e-10
9.08127e-09
2.3722e-08
0
0
0
0.000465754
0.000804475
2.46452e-11
4.2879e-11
6.73649e-11
9.82688e-11
1.34475e-10
1.73753e-10
2.12993e-10
2.48606e-10
2.77105e-10
2.95702e-10
3.02689e-10
2.97536e-10
2.80866e-10
2.54508e-10
2.21593e-10
1.86382e-10
1.53397e-10
1.25713e-10
1.04026e-10
8.62766e-11
6.98815e-11
5.38329e-11
4.04311e-11
3.51754e-11
4.72036e-11
9.87883e-11
2.39475e-10
5.39706e-10
1.05291e-09
1.76547e-09
2.56445e-09
3.24321e-09
3.65498e-09
3.80967e-09
3.94862e-09
4.58368e-09
6.67578e-09