/*--------------------------------*- C++ -*----------------------------------*\
  =========                 |
  \\      /  F ield         | OpenFOAM: The Open Source CFD Toolbox
   \\    /   O peration     | Website:  https://openfoam.org
    \\  /    A nd           | Version:  7
     \\/     M anipulation  |
\*---------------------------------------------------------------------------*/
FoamFile
{
    version     2.0;
    format      ascii;
    class       volScalarField;
    location    "25";
    object      k1Write;
}
// * * * * * * * * * * * * * * * * * * * * * * * * * * * * * * * * * * * * * //

dimensions      [0 2 0 0 0 0 0];

internalField   nonuniform List<scalar> 
49920
(
1.40052e-16
1.1664e-19
3.39722e-21
7.1809e-21
6.9133e-21
1.44825e-20
8.99217e-21
2.0979e-21
3.83887e-21
9.46867e-21
7.25702e-21
3.80236e-21
6.39847e-21
2.45213e-21
1.35363e-20
2.95385e-18
1.7073e-15
2.71655e-11
0.000167073
0.000167073
0.000167073
0.000167073
0.000167073
0.000167073
0.000167073
0.000167073
0.000167072
0.000167072
0.000167072
0.000167072
0.000167072
0.000167072
0.000167073
0.000167072
0.000167073
0.000167073
0.000167073
0.000167073
0.000167073
0.000167073
0.000167073
0.000167073
0.000167073
0.000167073
0.000167073
0.000167073
0.000167073
0.000167073
0.000167073
0.000167073
0.000167073
0.000167073
0.000167073
0.000167073
0.000167073
0.000167074
0.000167073
0.000167074
0.000167073
0.000167074
0.000167073
0.000167074
0.000167073
0.000167074
0.000167073
0.000167074
0.000167073
0.000167074
0.000167072
0.000167074
0.000167071
0.000167073
0.00016707
0.000167073
0.000167068
0.000167072
0.000167066
0.000167071
0.000167065
0.000167072
1.30435e-16
8.3054e-18
4.90425e-19
1.17545e-20
1.11125e-20
4.59655e-20
6.75404e-21
3.40651e-20
8.1672e-21
1.18565e-20
1.57752e-20
9.44137e-21
4.90468e-21
3.44976e-20
1.19404e-18
3.02959e-17
2.82321e-15
2.37293e-09
0.000167073
0.000167073
0.000167073
0.000167073
0.000167073
0.000167073
0.000167072
0.000167072
0.000167072
0.000167072
0.000167072
0.000167072
0.000167072
0.000167072
0.000167072
0.000167072
0.000167072
0.000167072
0.000167072
0.000167072
0.000167072
0.000167072
0.000167072
0.000167072
0.000167072
0.000167072
0.000167072
0.000167072
0.000167073
0.000167073
0.000167073
0.000167073
0.000167073
0.000167073
0.000167073
0.000167072
0.000167073
0.000167073
0.000167074
0.000167073
0.000167074
0.000167074
0.000167074
0.000167074
0.000167075
0.000167074
0.000167075
0.000167074
0.000167076
0.000167073
0.000167076
0.000167072
0.000167076
0.000167071
0.000167075
0.000167069
0.000167074
0.000167066
0.000167072
0.000167064
0.000167069
0.000167065
7.30277e-16
3.59729e-16
1.90591e-17
1.4151e-18
1.29923e-18
2.93279e-18
1.18987e-18
2.49082e-18
1.27183e-18
4.68654e-20
4.36224e-20
4.90737e-20
2.13893e-19
2.2149e-18
2.61518e-17
3.6846e-16
8.09525e-15
8.82634e-13
0.000167073
0.000167073
0.000167073
0.000167073
0.000167073
0.000167073
0.000167072
0.000167072
0.000167072
0.000167072
0.000167072
0.000167071
0.000167072
0.000167072
0.000167072
0.000167072
0.000167072
0.000167072
0.000167072
0.000167072
0.000167072
0.000167072
0.000167072
0.000167072
0.000167072
0.000167072
0.000167072
0.000167072
0.000167073
0.000167072
0.000167072
0.000167073
0.000167072
0.000167073
0.000167072
0.000167073
0.000167072
0.000167073
0.000167073
0.000167074
0.000167073
0.000167074
0.000167074
0.000167075
0.000167074
0.000167075
0.000167074
0.000167076
0.000167074
0.000167076
0.000167074
0.000167076
0.000167074
0.000167075
0.000167073
0.000167074
0.000167071
0.000167071
0.000167069
0.000167066
0.000167067
0.000167068
5.93729e-15
2.80034e-14
4.02764e-16
4.03123e-17
3.11225e-17
6.31328e-17
2.85937e-17
5.34499e-17
2.72596e-17
4.78848e-18
2.90478e-18
2.83735e-18
7.06358e-18
2.06906e-17
4.47367e-16
6.20301e-15
5.54906e-14
8.25268e-13
5.67449e-11
0.000167073
0.000167073
0.000167073
0.000167073
0.000167072
0.000167072
0.000167072
0.000167072
0.000167072
0.000167072
0.000167072
0.000167072
0.000167072
0.000167072
0.000167072
0.000167072
0.000167072
0.000167072
0.000167072
0.000167072
0.000167072
0.000167072
0.000167072
0.000167072
0.000167072
0.000167072
0.000167073
0.000167072
0.000167072
0.000167072
0.000167072
0.000167073
0.000167072
0.000167073
0.000167073
0.000167073
0.000167073
0.000167073
0.000167074
0.000167074
0.000167074
0.000167074
0.000167074
0.000167074
0.000167075
0.000167074
0.000167075
0.000167074
0.000167075
0.000167074
0.000167075
0.000167073
0.000167075
0.000167072
0.000167074
0.00016707
0.000167073
0.000167065
0.000167067
0.000167063
0.000167068
5.01709e-14
0.000167074
7.72136e-15
8.47077e-16
4.65677e-16
9.88338e-16
5.30385e-16
9.30077e-16
4.71204e-16
2.67384e-16
4.29664e-17
6.59507e-17
1.96942e-16
7.29589e-16
6.8125e-15
7.65709e-14
4.17197e-13
1.67888e-12
1.42389e-11
3.31059e-10
2.30184e-07
0.000167073
0.000167073
0.000167073
0.000167072
0.000167072
0.000167071
0.000167072
0.000167072
0.000167073
0.000167072
0.000167073
0.000167071
0.000167073
0.000167071
0.000167073
0.000167072
0.000167073
0.000167072
0.000167072
0.000167072
0.000167072
0.000167072
0.000167073
0.000167073
0.000167072
0.000167072
0.000167072
0.000167073
0.000167072
0.000167073
0.000167073
0.000167074
0.000167074
0.000167074
0.000167073
0.000167074
0.000167073
0.000167074
0.000167074
0.000167075
0.000167074
0.000167075
0.000167074
0.000167075
0.000167074
0.000167075
0.000167074
0.000167075
0.000167073
0.000167074
0.000167072
0.000167073
0.00016707
0.000167071
0.000167068
0.000167066
0.000167063
0.000167061
0.000167061
3.4416e-13
0.000167075
1.76959e-13
2.0247e-14
6.66093e-15
1.19912e-14
8.68824e-15
1.11428e-14
5.70441e-15
2.42436e-14
1.16912e-15
2.87841e-15
8.15511e-15
3.63325e-14
1.16602e-13
5.41323e-13
1.88853e-12
3.77517e-12
1.05005e-11
5.52978e-11
6.78783e-10
2.2978e-08
0.000167073
0.000167072
0.000167072
0.000167072
0.000167072
0.000167072
0.000167073
0.000167072
0.000167072
0.000167072
0.000167072
0.000167071
0.000167072
0.000167072
0.000167073
0.000167072
0.000167073
0.000167072
0.000167073
0.000167072
0.000167073
0.000167072
0.000167072
0.000167073
0.000167072
0.000167073
0.000167071
0.000167073
0.000167073
0.000167074
0.000167074
0.000167075
0.000167074
0.000167074
0.000167074
0.000167074
0.000167074
0.000167075
0.000167075
0.000167075
0.000167075
0.000167075
0.000167075
0.000167074
0.000167075
0.000167074
0.000167074
0.000167072
0.000167073
0.00016707
0.000167072
0.000167068
0.00016707
0.000167063
0.000167066
0.000167056
0.000167058
0.000167055
1.48588e-12
1.48831e-09
7.22372e-12
9.47261e-13
1.00767e-13
1.08425e-13
1.15614e-13
1.00222e-13
5.15841e-14
4.607e-11
7.08712e-14
2.44144e-13
2.01657e-12
0.000167076
6.56621e-12
3.49362e-12
5.14989e-12
7.06691e-12
1.10357e-11
2.64767e-11
1.08446e-10
7.95479e-10
1.69936e-08
1.9329e-05
0.000167072
0.000167072
0.000167072
0.000167072
0.000167072
0.000167072
0.000167072
0.000167072
0.000167072
0.000167072
0.000167072
0.000167072
0.000167072
0.000167073
0.000167072
0.000167073
0.000167073
0.000167073
0.000167072
0.000167073
0.000167072
0.000167073
0.000167072
0.000167072
0.000167073
0.000167073
0.000167074
0.000167074
0.000167074
0.000167074
0.000167074
0.000167074
0.000167074
0.000167075
0.000167075
0.000167075
0.000167075
0.000167076
0.000167075
0.000167076
0.000167074
0.000167076
0.000167073
0.000167075
0.000167072
0.000167075
0.00016707
0.000167073
0.000167067
0.000167071
0.000167063
0.000167067
0.000167056
0.000167055
0.000167051
0.000167051
3.68063e-12
4.68618e-10
3.04014e-09
0.000167075
2.21847e-12
7.52448e-13
9.71025e-13
6.28755e-13
3.16518e-13
9.81424e-11
0.000167074
0.000167074
0.000167075
0.000167076
0.000167077
4.01159e-11
1.57865e-11
1.34234e-11
1.43878e-11
2.12003e-11
4.65582e-11
1.58173e-10
9.30108e-10
1.14576e-08
5.45131e-07
0.000167072
0.000167072
0.000167073
0.000167073
0.000167073
0.000167073
0.000167073
0.000167072
0.000167073
0.000167073
0.000167073
0.000167073
0.000167073
0.000167073
0.000167073
0.000167073
0.000167073
0.000167073
0.000167072
0.000167073
0.000167071
0.000167073
0.000167073
0.000167073
0.000167074
0.000167074
0.000167074
0.000167074
0.000167074
0.000167075
0.000167074
0.000167075
0.000167075
0.000167076
0.000167075
0.000167076
0.000167075
0.000167077
0.000167075
0.000167077
0.000167074
0.000167076
0.000167073
0.000167075
0.000167071
0.000167074
0.000167069
0.000167071
0.000167065
0.000167067
0.000167058
0.000167055
0.000167049
0.000167046
0.000167048
6.31712e-12
2.76653e-10
1.94236e-09
0.000167076
1.05266e-09
5.05829e-12
4.5076e-12
2.62466e-12
1.25779e-12
5.0966e-12
0.000167075
0.000167075
0.000167075
0.000167077
0.000167077
4.75818e-09
8.8554e-11
3.61968e-11
2.55064e-11
2.5337e-11
3.56431e-11
7.23205e-11
2.17848e-10
1.03529e-09
8.92087e-09
2.32624e-07
0.000167073
0.000167073
0.000167073
0.000167074
0.000167073
0.000167073
0.000167073
0.000167073
0.000167073
0.000167073
0.000167073
0.000167073
0.000167073
0.000167073
0.000167073
0.000167073
0.000167072
0.000167073
0.000167071
0.000167073
0.000167073
0.000167073
0.000167073
0.000167074
0.000167073
0.000167074
0.000167074
0.000167074
0.000167074
0.000167075
0.000167075
0.000167076
0.000167075
0.000167077
0.000167076
0.000167077
0.000167076
0.000167077
0.000167075
0.000167077
0.000167074
0.000167076
0.000167073
0.000167074
0.000167071
0.000167072
0.000167067
0.000167067
0.000167062
0.000167058
0.000167051
0.000167044
0.000167046
0.000167046
9.52893e-12
2.00624e-10
2.25836e-10
1.51066e-09
0.000167076
5.36029e-11
1.55627e-11
7.93609e-12
3.59365e-12
3.36077e-12
1.15732e-10
1.63013e-09
0.000167076
0.000167076
0.000167078
0.000167077
1.83559e-09
1.87406e-10
7.22409e-11
4.66102e-11
4.39257e-11
5.87394e-11
1.10657e-10
2.98892e-10
1.20752e-09
8.30597e-09
1.23357e-07
1.15625e-05
0.000167074
0.000167073
0.000167074
0.000167073
0.000167074
0.000167073
0.000167074
0.000167073
0.000167074
0.000167073
0.000167074
0.000167073
0.000167074
0.000167073
0.000167074
0.000167071
0.000167073
0.000167072
0.000167073
0.000167073
0.000167074
0.000167073
0.000167074
0.000167073
0.000167074
0.000167074
0.000167075
0.000167075
0.000167076
0.000167075
0.000167077
0.000167076
0.000167077
0.000167076
0.000167077
0.000167076
0.000167077
0.000167076
0.000167076
0.000167074
0.000167075
0.000167072
0.000167072
0.000167069
0.000167068
0.000167065
0.00016706
0.000167054
0.000167045
0.000167044
0.000167044
0.000167046
1.44565e-11
1.83861e-10
1.13216e-10
1.58806e-10
1.19008e-08
3.19288e-09
5.93069e-11
2.06549e-11
8.69388e-12
4.28739e-12
1.70228e-11
9.57553e-11
2.07109e-09
1.05121e-06
0.000167077
0.000167078
3.56278e-05
3.54207e-09
4.29339e-10
1.49825e-10
8.91288e-11
7.90635e-11
9.92574e-11
1.7345e-10
4.23124e-10
1.49579e-09
8.23201e-09
8.805e-08
3.45647e-06
0.000167074
0.000167074
0.000167074
0.000167074
0.000167074
0.000167074
0.000167074
0.000167074
0.000167074
0.000167074
0.000167073
0.000167074
0.000167074
0.000167072
0.000167073
0.000167073
0.000167073
0.000167073
0.000167074
0.000167073
0.000167074
0.000167073
0.000167074
0.000167073
0.000167075
0.000167074
0.000167076
0.000167075
0.000167076
0.000167076
0.000167077
0.000167077
0.000167077
0.000167077
0.000167077
0.000167077
0.000167076
0.000167076
0.000167075
0.000167074
0.000167072
0.000167071
0.000167068
0.000167067
0.000167062
0.000167058
0.000167048
0.000167045
0.00016704
0.000167045
0.000167045
2.32802e-11
2.19772e-10
9.79202e-11
6.62362e-11
4.81458e-10
0.000167076
2.98797e-10
5.40396e-11
1.96965e-11
7.42444e-12
9.31946e-12
2.60652e-11
1.71461e-10
3.81665e-09
2.21663e-06
0.000167078
0.000167077
0.000167077
1.09197e-08
1.1137e-09
3.38718e-10
1.82943e-10
1.50163e-10
1.75213e-10
2.81918e-10
6.23443e-10
1.93732e-09
9.09718e-09
7.58797e-08
1.61093e-06
0.000167074
0.000167075
0.000167074
0.000167075
0.000167074
0.000167075
0.000167074
0.000167075
0.000167073
0.000167075
0.000167073
0.000167074
0.000167074
0.000167074
0.000167074
0.000167074
0.000167074
0.000167074
0.000167074
0.000167074
0.000167074
0.000167074
0.000167074
0.000167074
0.000167075
0.000167075
0.000167076
0.000167076
0.000167076
0.000167077
0.000167077
0.000167077
0.000167077
0.000167078
0.000167076
0.000167077
0.000167075
0.000167075
0.000167073
0.000167073
0.000167069
0.000167069
0.000167064
0.000167063
0.000167052
0.00016705
0.00016704
0.000167043
0.000167043
0.000167048
4.03957e-11
3.37608e-10
1.13914e-10
5.15255e-11
1.32818e-10
2.65354e-09
1.60738e-09
1.54655e-10
4.38365e-11
1.48365e-11
9.78444e-12
1.53536e-11
4.93225e-11
3.72655e-10
9.78266e-09
3.06195e-07
2.81831e-08
2.07743e-08
3.12243e-08
1.27676e-08
2.63876e-09
8.03279e-10
4.0006e-10
3.01659e-10
3.23366e-10
4.75775e-10
9.52163e-10
2.63816e-09
1.07125e-08
7.11498e-08
1.07568e-06
0.00013235
0.000167075
0.000167074
0.000167076
0.000167074
0.000167076
0.000167074
0.000167076
0.000167073
0.000167075
0.000167074
0.000167075
0.000167074
0.000167074
0.000167075
0.000167074
0.000167075
0.000167074
0.000167075
0.000167074
0.000167074
0.000167074
0.000167075
0.000167075
0.000167075
0.000167076
0.000167076
0.000167076
0.000167076
0.000167077
0.000167077
0.000167077
0.000167076
0.000167077
0.000167075
0.000167076
0.000167073
0.000167074
0.00016707
0.000167071
0.000167066
0.000167066
0.000167058
0.000167057
0.000167046
0.000167047
0.000167041
0.000167048
0.000167049
7.56345e-11
6.29839e-10
1.56154e-10
5.54514e-11
8.14589e-11
5.00778e-10
3.65633e-09
4.87782e-10
9.95655e-11
3.12333e-11
1.47281e-11
1.45773e-11
2.77946e-11
1.07189e-10
9.24582e-10
8.09957e-09
3.46784e-09
1.39672e-09
1.30927e-09
2.21712e-09
4.14854e-09
3.72008e-09
1.75972e-09
8.9706e-10
6.30203e-10
6.176e-10
8.26844e-10
1.49664e-09
3.71652e-09
1.32331e-08
7.5995e-08
9.30747e-07
5.48601e-05
0.000167076
0.000167074
0.000167076
0.000167074
0.000167077
0.000167073
0.000167075
0.000167075
0.000167075
0.000167075
0.000167075
0.000167075
0.000167075
0.000167075
0.000167075
0.000167075
0.000167075
0.000167075
0.000167074
0.000167075
0.000167075
0.000167075
0.000167075
0.000167076
0.000167076
0.000167076
0.000167077
0.000167077
0.000167077
0.000167076
0.000167077
0.000167076
0.000167076
0.000167074
0.000167075
0.000167072
0.000167072
0.000167068
0.000167069
0.000167063
0.000167063
0.000167054
0.000167055
0.000167045
0.000167051
0.000167049
0.000167055
1.53359e-10
1.28436e-09
2.26697e-10
7.06838e-11
7.72073e-11
2.80908e-10
2.94403e-09
1.58676e-09
2.39674e-10
6.71202e-11
2.69003e-11
1.8978e-11
2.42417e-11
5.72292e-11
2.51081e-10
1.20387e-09
1.0372e-09
4.15786e-10
2.73193e-10
3.11578e-10
5.60078e-10
1.34353e-09
2.77643e-09
2.86938e-09
1.87593e-09
1.31128e-09
1.19335e-09
1.45798e-09
2.39796e-09
5.38712e-09
1.73331e-08
8.91098e-08
9.23437e-07
3.84313e-05
0.000167076
0.000167074
0.000167078
0.000167073
0.000167076
0.000167075
0.000167076
0.000167075
0.000167076
0.000167075
0.000167075
0.000167076
0.000167076
0.000167076
0.000167075
0.000167075
0.000167075
0.000167075
0.000167075
0.000167075
0.000167075
0.000167075
0.000167076
0.000167076
0.000167076
0.000167076
0.000167076
0.000167076
0.000167076
0.000167076
0.000167076
0.000167074
0.000167075
0.000167072
0.000167073
0.00016707
0.00016707
0.000167066
0.000167067
0.000167061
0.000167062
0.000167055
0.000167057
0.000167052
0.000167056
0.000167056
3.42138e-10
2.45717e-09
3.20702e-10
9.80343e-11
9.40556e-11
2.56749e-10
2.18668e-09
4.77306e-09
6.31093e-10
1.49019e-10
5.43045e-11
3.0485e-11
2.85793e-11
4.60171e-11
1.24695e-10
4.00487e-10
4.85524e-10
2.28189e-10
1.24788e-10
1.05112e-10
1.33646e-10
2.44012e-10
5.94688e-10
1.5902e-09
3.03498e-09
3.16434e-09
2.5335e-09
2.2581e-09
2.57222e-09
3.89163e-09
8.02614e-09
2.37625e-08
1.12023e-07
1.05409e-06
3.89166e-05
0.000167077
0.000167074
0.000167076
0.000167075
0.000167076
0.000167076
0.000167076
0.000167076
0.000167076
0.000167076
0.000167076
0.000167076
0.000167076
0.000167075
0.000167075
0.000167075
0.000167075
0.000167074
0.000167075
0.000167075
0.000167075
0.000167075
0.000167076
0.000167075
0.000167076
0.000167075
0.000167076
0.000167075
0.000167075
0.000167074
0.000167074
0.000167073
0.000167073
0.000167071
0.000167071
0.000167068
0.000167068
0.000167066
0.000167066
0.000167063
0.000167062
0.000167059
0.000167058
0.000167059
0.00016706
8.6532e-10
3.818e-09
4.25348e-10
1.41902e-10
1.338e-10
3.15377e-10
2.16753e-09
1.27403e-08
1.86448e-09
3.49539e-10
1.15681e-10
5.58605e-11
4.13747e-11
4.90615e-11
9.17785e-11
2.16466e-10
3.0749e-10
1.7951e-10
9.07991e-11
6.18015e-11
5.99468e-11
8.0733e-11
1.46162e-10
3.41208e-10
9.33675e-10
2.35726e-09
3.91979e-09
4.20995e-09
4.04896e-09
4.48751e-09
6.37293e-09
1.22579e-08
3.40111e-08
1.51751e-07
1.37968e-06
5.09771e-05
0.000167076
0.000167076
0.000167076
0.000167076
0.000167076
0.000167076
0.000167076
0.000167076
0.000167076
0.000167076
0.000167076
0.000167075
0.000167076
0.000167075
0.000167075
0.000167074
0.000167075
0.000167074
0.000167075
0.000167074
0.000167075
0.000167074
0.000167075
0.000167074
0.000167075
0.000167074
0.000167075
0.000167074
0.000167074
0.000167073
0.000167072
0.000167072
0.00016707
0.00016707
0.000167068
0.000167068
0.000167066
0.000167067
0.000167065
0.000167066
0.00016706
0.000167062
0.00016706
0.000167064
2.56562e-09
4.62131e-09
5.35347e-10
2.11815e-10
2.1347e-10
4.85163e-10
2.99383e-09
3.46835e-08
6.27039e-09
8.6234e-10
2.50938e-10
1.08755e-10
6.76545e-11
6.29215e-11
8.76826e-11
1.60374e-10
2.41461e-10
1.79467e-10
9.20424e-11
5.39789e-11
4.22676e-11
4.44182e-11
6.11857e-11
1.07787e-10
2.36367e-10
6.1333e-10
1.66689e-09
3.76171e-09
5.78341e-09
6.71012e-09
7.69229e-09
1.05505e-08
1.92599e-08
5.09838e-08
2.21309e-07
2.02641e-06
8.00774e-05
0.000167076
0.000167077
0.000167076
0.000167077
0.000167076
0.000167077
0.000167076
0.000167076
0.000167076
0.000167076
0.000167076
0.000167075
0.000167075
0.000167074
0.000167075
0.000167074
0.000167074
0.000167074
0.000167074
0.000167074
0.000167074
0.000167074
0.000167074
0.000167074
0.000167074
0.000167073
0.000167073
0.000167073
0.000167072
0.000167072
0.00016707
0.00016707
0.000167068
0.000167069
0.000167067
0.000167068
0.000167065
0.000167068
0.000167063
0.000167065
0.000167059
0.000167063
0.000167063
8.91248e-09
4.67592e-09
6.65713e-10
3.28735e-10
3.79561e-10
9.22155e-10
5.89393e-09
1.28109e-07
2.21374e-08
2.05216e-09
5.1612e-10
2.06452e-10
1.14217e-10
8.86212e-11
9.8035e-11
1.44976e-10
2.18072e-10
2.07787e-10
1.19953e-10
6.47836e-11
4.2642e-11
3.62976e-11
3.96255e-11
5.4332e-11
9.17574e-11
1.87393e-10
4.5104e-10
1.20995e-09
3.18461e-09
6.7147e-09
1.02024e-08
1.30072e-08
1.782e-08
3.13627e-08
8.034e-08
3.46033e-07
3.27342e-06
0.00014587
0.000167076
0.000167077
0.000167076
0.000167077
0.000167076
0.000167076
0.000167076
0.000167076
0.000167076
0.000167075
0.000167075
0.000167074
0.000167074
0.000167074
0.000167074
0.000167073
0.000167073
0.000167073
0.000167073
0.000167073
0.000167073
0.000167073
0.000167073
0.000167072
0.000167072
0.000167072
0.000167071
0.000167071
0.00016707
0.00016707
0.000167068
0.000167069
0.000167067
0.000167068
0.000167066
0.000167068
0.000167065
0.000167066
0.000167061
0.000167061
0.000167062
0.000167065
3.09732e-08
4.39545e-09
8.53117e-10
5.41402e-10
7.63178e-10
2.22154e-09
1.78483e-08
7.66694e-07
4.89102e-08
3.69662e-09
8.73307e-10
3.40536e-10
1.79398e-10
1.24804e-10
1.17113e-10
1.46034e-10
2.1142e-10
2.52634e-10
1.85421e-10
1.01837e-10
5.88916e-11
4.16114e-11
3.68628e-11
4.04497e-11
5.39763e-11
8.62383e-11
1.63209e-10
3.62908e-10
9.32982e-10
2.62479e-09
7.01119e-09
1.44537e-08
2.20569e-08
3.12712e-08
5.36496e-08
1.3411e-07
5.77978e-07
5.70234e-06
0.000167076
0.000167076
0.000167077
0.000167076
0.000167076
0.000167076
0.000167076
0.000167075
0.000167075
0.000167075
0.000167074
0.000167074
0.000167074
0.000167073
0.000167073
0.000167073
0.000167073
0.000167072
0.000167072
0.000167072
0.000167072
0.000167071
0.000167072
0.000167071
0.000167071
0.00016707
0.00016707
0.000167069
0.000167069
0.000167068
0.000167068
0.000167068
0.000167068
0.000167067
0.000167068
0.000167066
0.000167066
0.000167064
0.000167061
0.000167061
0.000167062
0.000167066
6.54497e-08
4.19092e-09
1.16584e-09
9.72529e-10
1.79015e-09
7.24273e-09
9.48698e-08
9.6985e-07
3.21161e-08
3.81382e-09
1.04254e-09
4.37346e-10
2.38281e-10
1.61542e-10
1.38597e-10
1.53061e-10
2.08874e-10
2.93507e-10
3.02339e-10
1.98694e-10
1.09229e-10
6.56948e-11
4.77326e-11
4.24088e-11
4.54579e-11
5.7838e-11
8.63877e-11
1.5107e-10
3.11266e-10
7.62832e-10
2.20958e-09
7.0206e-09
1.9754e-08
3.8806e-08
5.89902e-08
9.8712e-08
2.39301e-07
1.01517e-06
9.83691e-06
0.000167076
0.000167076
0.000167076
0.000167076
0.000167076
0.000167075
0.000167075
0.000167074
0.000167074
0.000167073
0.000167073
0.000167073
0.000167073
0.000167072
0.000167072
0.000167072
0.000167072
0.000167071
0.000167071
0.000167071
0.000167071
0.00016707
0.00016707
0.000167069
0.000167069
0.000167069
0.000167068
0.000167068
0.000167068
0.000167068
0.000167067
0.000167068
0.000167067
0.000167068
0.000167066
0.000167066
0.000167063
0.000167062
0.00016706
0.000167064
0.000167067
6.06724e-08
4.30726e-09
1.74833e-09
1.96966e-09
5.13557e-09
3.50563e-08
5.13013e-07
1.08306e-07
1.08203e-08
2.43325e-09
8.80176e-10
4.30865e-10
2.5942e-10
1.843e-10
1.55509e-10
1.60513e-10
2.05714e-10
3.10141e-10
4.44997e-10
4.31676e-10
2.67557e-10
1.44497e-10
8.64717e-11
6.19435e-11
5.3329e-11
5.43727e-11
6.47471e-11
8.95518e-11
1.44747e-10
2.78429e-10
6.55246e-10
1.9345e-09
7.07303e-09
2.72988e-08
7.53785e-08
1.27266e-07
2.02538e-07
4.64998e-07
1.90604e-06
1.80064e-05
0.000167076
0.000167076
0.000167075
0.000167075
0.000167075
0.000167075
0.000167074
0.000167074
0.000167073
0.000167073
0.000167073
0.000167072
0.000167072
0.000167072
0.000167071
0.000167071
0.000167071
0.000167071
0.00016707
0.00016707
0.000167069
0.000167069
0.000167069
0.000167069
0.000167068
0.000167068
0.000167067
0.000167068
0.000167067
0.000167068
0.000167068
0.000167068
0.000167068
0.000167068
0.000167066
0.000167065
0.000167063
0.000167063
0.000167065
0.00016707
3.96394e-08
4.96595e-09
2.9585e-09
4.67158e-09
1.87929e-08
1.95875e-07
1.73213e-07
1.79321e-08
3.82397e-09
1.32926e-09
6.22091e-10
3.6009e-10
2.44907e-10
1.89293e-10
1.65387e-10
1.67398e-10
2.03833e-10
3.04886e-10
5.30982e-10
8.42283e-10
8.08272e-10
4.60062e-10
2.30223e-10
1.29773e-10
8.77562e-11
7.08047e-11
6.70109e-11
7.3579e-11
9.38105e-11
1.40873e-10
2.56068e-10
5.86341e-10
1.77584e-09
7.41729e-09
4.03859e-08
1.82602e-07
3.58293e-07
5.10955e-07
1.07139e-06
4.23742e-06
3.9797e-05
0.000167075
0.000167075
0.000167075
0.000167075
0.000167074
0.000167074
0.000167073
0.000167073
0.000167073
0.000167073
0.000167072
0.000167072
0.000167071
0.000167072
0.00016707
0.000167071
0.00016707
0.00016707
0.000167069
0.000167069
0.000167068
0.000167069
0.000167068
0.000167068
0.000167067
0.000167067
0.000167067
0.000167067
0.000167068
0.000167068
0.000167069
0.000167068
0.000167069
0.000167067
0.000167067
0.000167064
0.000167065
0.000167067
0.00016707
2.82923e-08
6.60046e-09
5.81077e-09
1.33303e-08
7.50588e-08
1.78301e-07
2.65097e-08
5.09871e-09
1.67835e-09
7.67464e-10
4.3514e-10
2.90261e-10
2.20719e-10
1.86448e-10
1.72608e-10
1.77089e-10
2.08937e-10
2.98088e-10
5.35392e-10
1.17274e-09
2.32187e-09
2.20358e-09
1.02181e-09
4.28385e-10
2.13164e-10
1.30329e-10
9.57131e-11
8.25797e-11
8.2982e-11
9.77618e-11
1.37811e-10
2.40476e-10
5.44819e-10
1.71536e-09
8.27983e-09
6.89719e-08
7.83474e-07
1.91882e-06
1.87906e-06
2.8619e-06
9.64759e-06
8.08877e-05
0.000167075
0.000167074
0.000167074
0.000167074
0.000167073
0.000167073
0.000167073
0.000167073
0.000167072
0.000167072
0.000167071
0.000167071
0.00016707
0.000167071
0.00016707
0.00016707
0.000167069
0.000167069
0.000167068
0.000167068
0.000167068
0.000167068
0.000167067
0.000167067
0.000167067
0.000167067
0.000167068
0.000167068
0.000167069
0.000167068
0.000167069
0.000167068
0.000167069
0.000167066
0.000167066
0.000167066
0.000167069
0.000167071
2.51181e-08
1.03187e-08
1.34732e-08
4.21034e-08
1.22446e-07
3.69437e-08
6.96833e-09
2.10506e-09
9.14987e-10
5.05404e-10
3.30658e-10
2.47094e-10
2.06247e-10
1.8848e-10
1.85483e-10
1.96269e-10
2.28871e-10
3.09653e-10
5.22212e-10
1.19391e-09
3.90821e-09
1.29154e-08
1.05005e-08
2.88276e-09
8.72669e-10
3.62381e-10
1.94619e-10
1.27753e-10
9.95787e-11
9.16116e-11
1.00583e-10
1.35029e-10
2.29979e-10
5.24563e-10
1.74722e-09
1.00548e-08
1.55271e-07
3.97298e-05
2.13995e-05
5.77477e-06
6.40577e-06
1.94849e-05
0.000157936
0.000167074
0.000167073
0.000167073
0.000167073
0.000167073
0.000167072
0.000167072
0.000167072
0.000167071
0.000167071
0.000167071
0.00016707
0.00016707
0.00016707
0.000167069
0.000167069
0.000167068
0.000167068
0.000167068
0.000167068
0.000167067
0.000167067
0.000167067
0.000167067
0.000167067
0.000167067
0.000167068
0.000167068
0.000167069
0.000167069
0.000167069
0.000167068
0.000167068
0.000167066
0.000167068
0.000167069
0.000167071
2.82354e-08
1.91107e-08
3.49211e-08
8.76472e-08
4.81846e-08
9.97651e-09
2.8034e-09
1.14326e-09
6.0693e-10
3.87768e-10
2.84656e-10
2.3378e-10
2.11099e-10
2.06315e-10
2.14779e-10
2.35929e-10
2.76212e-10
3.58411e-10
5.53064e-10
1.12767e-09
3.63632e-09
2.76395e-08
8.49807e-07
9.54552e-08
8.64008e-09
1.79617e-09
6.12296e-10
2.84077e-10
1.64912e-10
1.15961e-10
9.83887e-11
1.02004e-10
1.32475e-10
2.23928e-10
5.23144e-10
1.88555e-09
1.35181e-08
4.53082e-07
0.000167075
9.18636e-05
1.22222e-05
1.2548e-05
3.90287e-05
0.000167072
0.000167073
0.000167072
0.000167072
0.000167072
0.000167072
0.000167072
0.000167071
0.000167071
0.000167071
0.00016707
0.00016707
0.00016707
0.000167069
0.000167069
0.000167068
0.000167069
0.000167068
0.000167068
0.000167068
0.000167067
0.000167067
0.000167067
0.000167066
0.000167067
0.000167067
0.000167068
0.000167069
0.000167069
0.000167069
0.000167069
0.000167069
0.000167068
0.000167068
0.000167067
0.000167068
0.00016707
3.96698e-08
4.01316e-08
7.40654e-08
6.06941e-08
1.51036e-08
4.00771e-09
1.52654e-09
7.75107e-10
4.82592e-10
3.48895e-10
2.83357e-10
2.53197e-10
2.45333e-10
2.54492e-10
2.78734e-10
3.18255e-10
3.78147e-10
4.78209e-10
6.80428e-10
1.19367e-09
3.01189e-09
1.56338e-08
1.4004e-06
0.000167077
9.6583e-07
2.57893e-08
3.66972e-09
1.00538e-09
3.96617e-10
2.02805e-10
1.29545e-10
1.0271e-10
1.02131e-10
1.30384e-10
2.22254e-10
5.41581e-10
2.15601e-09
1.89351e-08
8.83821e-07
0.000167074
0.000167071
2.1937e-05
2.43771e-05
8.65907e-05
0.000167072
0.000167072
0.000167072
0.000167072
0.000167072
0.000167071
0.000167071
0.000167071
0.000167071
0.00016707
0.00016707
0.00016707
0.00016707
0.000167069
0.000167069
0.000167069
0.000167068
0.000167069
0.000167068
0.000167068
0.000167067
0.000167067
0.000167068
0.000167067
0.000167068
0.000167068
0.000167069
0.000167069
0.00016707
0.000167069
0.00016707
0.000167068
0.000167069
0.000167068
0.000167069
0.00016707
6.61303e-08
7.76191e-08
7.27849e-08
2.35358e-08
6.15522e-09
2.18433e-09
1.05395e-09
6.39152e-10
4.57282e-10
3.70487e-10
3.31253e-10
3.21169e-10
3.33279e-10
3.66082e-10
4.20763e-10
4.99533e-10
6.06855e-10
7.59266e-10
1.01407e-09
1.55026e-09
3.02669e-09
9.1658e-09
6.93824e-08
2.10925e-06
0.000167076
1.84825e-05
8.13063e-08
7.32738e-09
1.5606e-09
5.19651e-10
2.35873e-10
1.38847e-10
1.04557e-10
1.01324e-10
1.29123e-10
2.25507e-10
5.82016e-10
2.56365e-09
2.66234e-08
1.96127e-06
0.000167073
0.000167072
3.77241e-05
5.02942e-05
0.000167072
0.000167072
0.000167072
0.000167072
0.000167072
0.000167072
0.000167071
0.000167071
0.000167071
0.000167071
0.000167071
0.00016707
0.00016707
0.00016707
0.00016707
0.000167069
0.00016707
0.000167069
0.000167069
0.000167069
0.000167069
0.000167068
0.000167068
0.000167068
0.000167068
0.000167069
0.000167069
0.00016707
0.00016707
0.000167071
0.00016707
0.00016707
0.000167069
0.000167069
0.00016707
0.000167071
1.10722e-07
9.00185e-08
3.59125e-08
9.86268e-09
3.32172e-09
1.51917e-09
8.94328e-10
6.35141e-10
5.18161e-10
4.69984e-10
4.63707e-10
4.89765e-10
5.46704e-10
6.38208e-10
7.71553e-10
9.5482e-10
1.19354e-09
1.49628e-09
1.90902e-09
2.59847e-09
4.0784e-09
8.26857e-09
2.571e-08
1.5029e-07
2.81303e-06
0.000167076
0.000167075
2.73634e-07
1.37442e-08
2.23467e-09
6.33712e-10
2.59677e-10
1.43402e-10
1.04296e-10
1.00055e-10
1.29233e-10
2.34658e-10
6.49361e-10
3.21606e-09
4.19476e-08
6.45368e-06
0.000167073
0.000167073
6.54052e-05
0.000112216
0.000167072
0.000167073
0.000167072
0.000167072
0.000167072
0.000167072
0.000167072
0.000167071
0.000167071
0.000167071
0.000167071
0.000167071
0.000167071
0.000167071
0.00016707
0.00016707
0.00016707
0.00016707
0.000167069
0.000167069
0.000167069
0.000167069
0.000167069
0.000167069
0.000167069
0.00016707
0.000167071
0.000167071
0.000167072
0.000167071
0.000167071
0.00016707
0.000167071
0.00016707
0.000167072
1.31556e-07
5.47629e-08
1.59826e-08
5.23911e-09
2.28924e-09
1.30824e-09
9.23266e-10
7.63731e-10
7.12183e-10
7.28498e-10
8.01496e-10
9.33559e-10
1.13551e-09
1.42584e-09
1.83115e-09
2.38122e-09
3.08922e-09
3.92569e-09
4.849e-09
5.96076e-09
7.7366e-09
1.15708e-08
2.23644e-08
6.59022e-08
3.48205e-07
5.44892e-06
0.000167074
0.000167074
9.38871e-07
2.33192e-08
2.91657e-09
7.19753e-10
2.71904e-10
1.43524e-10
1.02547e-10
9.89683e-11
1.31613e-10
2.5257e-10
7.65373e-10
4.41537e-09
7.87957e-08
5.22533e-05
0.000167072
0.000167073
0.000121362
0.000167073
0.000167072
0.000167073
0.000167072
0.000167072
0.000167072
0.000167072
0.000167072
0.000167072
0.000167072
0.000167072
0.000167072
0.000167072
0.000167071
0.000167071
0.000167071
0.00016707
0.00016707
0.00016707
0.00016707
0.00016707
0.00016707
0.000167069
0.00016707
0.00016707
0.000167071
0.000167071
0.000167073
0.000167072
0.000167073
0.000167072
0.000167072
0.000167071
0.000167072
0.000167072
8.92189e-08
2.63102e-08
8.43219e-09
3.53955e-09
1.96753e-09
1.38261e-09
1.16627e-09
1.13134e-09
1.2223e-09
1.43676e-09
1.80387e-09
2.37911e-09
3.24325e-09
4.50301e-09
6.29559e-09
8.77863e-09
1.20231e-08
1.57109e-08
1.89241e-08
2.0912e-08
2.23394e-08
2.54067e-08
3.46509e-08
6.50047e-08
1.83445e-07
9.17748e-07
1.31163e-05
0.000167074
0.000167073
3.08359e-06
3.48173e-08
3.4585e-09
7.64305e-10
2.72416e-10
1.40227e-10
1.00253e-10
9.90751e-11
1.3818e-10
2.86221e-10
9.76678e-10
6.91406e-09
1.90415e-07
0.000167073
0.000167072
0.000167073
0.000167072
0.000167073
0.000167072
0.000167073
0.000167072
0.000167072
0.000167072
0.000167073
0.000167073
0.000167073
0.000167073
0.000167073