/*--------------------------------*- C++ -*----------------------------------*\
  =========                 |
  \\      /  F ield         | OpenFOAM: The Open Source CFD Toolbox
   \\    /   O peration     | Website:  https://openfoam.org
    \\  /    A nd           | Version:  7
     \\/     M anipulation  |
\*---------------------------------------------------------------------------*/
FoamFile
{
    version     2.0;
    format      ascii;
    class       volScalarField;
    location    "25";
    object      k2Write;
}
// * * * * * * * * * * * * * * * * * * * * * * * * * * * * * * * * * * * * * //

dimensions      [0 2 0 0 0 0 0];

internalField   nonuniform List<scalar> 
49920
(
6.85208e-08
5.70663e-11
1.66208e-12
3.51324e-12
3.38232e-12
7.08551e-12
4.39941e-12
1.02639e-12
1.87816e-12
4.63253e-12
3.55049e-12
1.8603e-12
3.13044e-12
1.1997e-12
6.62266e-12
1.44517e-09
8.3529e-07
0.0132906
81739.8
81739.9
81739.7
81739.8
81739.4
81739.4
81739
81738.9
81738.4
81738.2
81738
81737.9
81738.2
81738.2
81738.5
81738.4
81738.7
81738.8
81739.1
81739
81739
81738.8
81738.9
81738.9
81738.8
81738.8
81738.8
81738.8
81738.9
81740
81740
81740.3
81740.1
81740
81739.7
81740.5
81739.3
81741
81739.9
81741.1
81740.4
81741.5
81740.6
81741.8
81740.4
81742.1
81740.1
81742
81738.9
81741.8
81737.4
81741.1
81734.9
81740.2
81732.4
81738.6
81728.1
81736.3
81723.8
81736.3
81722.8
81736.4
6.38165e-08
4.06342e-09
2.3994e-10
5.75087e-12
5.43675e-12
2.24884e-11
3.30439e-12
1.66662e-11
3.99577e-12
5.80074e-12
7.71792e-12
4.61913e-12
2.39959e-12
1.68778e-11
5.84188e-10
1.48222e-08
1.38124e-06
1.16095
81740.3
81740.1
81740.1
81739.6
81739.4
81738.8
81738.4
81737.7
81737.3
81736.8
81736.4
81737
81736.4
81737.5
81736.8
81737.7
81737.1
81738.2
81737.7
81738.2
81737.5
81737.9
81737.2
81737.6
81737.1
81737.4
81737.1
81737.8
81738.9
81738.7
81739.4
81738.7
81738.6
81739.2
81739.3
81738
81740.3
81739
81740.8
81740.2
81741.6
81740.8
81742.6
81741.2
81743.5
81741.5
81744.4
81741.1
81745
81740.4
81745.5
81738.4
81745.1
81735.9
81744.3
81731.3
81741.3
81724.6
81738.4
81720.4
81730.9
81721.2
3.57296e-07
1.75998e-07
9.32481e-09
6.92343e-10
6.35651e-10
1.43488e-09
5.82144e-10
1.21864e-09
6.22242e-10
2.29288e-11
2.13422e-11
2.40091e-11
1.04647e-10
1.08365e-09
1.27948e-08
1.80268e-07
3.96056e-06
0.000431826
81740.3
81740.4
81740.1
81739.7
81739.2
81738.6
81738
81737.4
81736.8
81736.3
81737.2
81736.3
81737.5
81736.4
81737.8
81736.6
81738
81737
81738.2
81737.1
81738
81736.8
81737.6
81736.5
81737.4
81736.6
81738.1
81738.3
81738.5
81738.4
81737.1
81738.7
81738.3
81739.1
81736.9
81740
81738.3
81740.5
81739.1
81741.4
81740
81742.5
81740.7
81743.6
81741.4
81744.6
81741.8
81745.3
81742
81745.9
81741.8
81745.6
81740.8
81744.5
81739
81741.3
81735.3
81736.2
81731.1
81724.2
81726.3
81728.1
2.9049e-06
1.37006e-05
1.97053e-07
1.97229e-08
1.52268e-08
3.08879e-08
1.39896e-08
2.61505e-08
1.33369e-08
2.34278e-09
1.42118e-09
1.38818e-09
3.45588e-09
1.01228e-08
2.18873e-07
3.03483e-06
2.71489e-05
0.00040376
0.0277624
81740.1
81740.3
81739.4
81739.3
81738.2
81738
81736.7
81736.7
81736.9
81737.5
81737.5
81737.6
81737.2
81737.5
81737.2
81737.7
81737.4
81737.8
81737.5
81737.6
81737.3
81737.2
81737.3
81737.2
81738.3
81738.2
81739.2
81737.3
81736.9
81737.7
81738.5
81738.8
81737.9
81739.9
81740.5
81739.8
81740.1
81740
81740.7
81741
81741.7
81741.8
81742.5
81742.5
81743.3
81742.8
81743.8
81742.7
81744.2
81741.9
81744
81740.1
81743.2
81737
81741.5
81732.2
81738.8
81722.9
81727.5
81717.8
81727.9
2.45466e-05
81742.4
3.77768e-06
4.14438e-07
2.27833e-07
4.8355e-07
2.5949e-07
4.55043e-07
2.30536e-07
1.30819e-07
2.10215e-08
3.22668e-08
9.63552e-08
3.56956e-07
3.33302e-06
3.74634e-05
0.000204119
0.000821404
0.00696635
0.161971
112.616
81740.2
81738.8
81739
81737.1
81737.5
81736.2
81738.1
81737
81739.1
81736.3
81738.7
81736
81738.6
81736.1
81738.9
81736.5
81738.8
81736.6
81738.4
81736.7
81738.4
81737.8
81738.8
81738.8
81737.4
81738.3
81736.7
81738.6
81736.7
81739.8
81739.2
81742.5
81740.7
81741.9
81739.7
81741.7
81740.2
81742.6
81741.2
81743.4
81741.8
81743.9
81742
81744.2
81741.7
81743.9
81740.8
81743.2
81739.1
81741.5
81736.5
81738.9
81733
81734.9
81728
81724.9
81717.9
81714.1
81714.2
0.000168388
81743.2
8.65785e-05
9.90586e-06
3.25889e-06
5.86672e-06
4.25075e-06
5.45157e-06
2.79092e-06
1.18613e-05
5.71996e-07
1.40828e-06
3.98999e-06
1.77761e-05
5.70504e-05
0.000264857
0.000924019
0.00184706
0.00513742
0.0270544
0.332093
11.2419
81739.6
81738.4
81738.2
81736.8
81737.6
81737
81738.9
81736.9
81738.4
81736.3
81738.2
81736.3
81738.4
81736.8
81738.8
81737
81738.7
81737.1
81738.8
81738
81739.4
81738.2
81738
81739
81737.9
81738.7
81736.2
81740.3
81739.8
81742.1
81741.7
81742.9
81741.1
81742
81741.2
81742.5
81742.2
81743.1
81743.1
81743.5
81743.7
81743.3
81743.8
81742.4
81743.3
81740.7
81742
81737.9
81740
81733.8
81737.1
81728
81733.5
81718.5
81725.2
81702.7
81706.6
81700.5
0.000726996
0.728182
0.00353425
0.000463458
4.93008e-05
5.30475e-05
5.65647e-05
4.90337e-05
2.52377e-05
0.0225398
3.46742e-05
0.000119448
0.000986631
81746.3
0.00321273
0.00170937
0.00251976
0.00345765
0.00539933
0.0129537
0.0530569
0.389184
8.31402
9456.52
81738.2
81737.7
81737.6
81738
81738.2
81738.1
81737.8
81737.7
81737.5
81737.7
81737.8
81738.2
81738.3
81738.6
81738.3
81738.7
81738.8
81739.6
81738.4
81738.6
81738.5
81739
81736.5
81737.9
81739.4
81740.7
81741.3
81741.8
81742.3
81742.4
81742.1
81742.5
81742.3
81743.5
81742.9
81744.7
81743.3
81745.6
81743.1
81746.1
81742.2
81745.8
81740.3
81744.8
81737.4
81742.9
81733.2
81739.6
81727.2
81734.8
81717.5
81727.4
81702.1
81700.3
81691.1
81692.2
0.00180083
0.229282
1.48744
81744.4
0.00108541
0.000368142
0.000475082
0.000307622
0.000154858
0.0480165
81742.8
81742.3
81744.3
81746.6
81747.8
0.0196281
0.00772411
0.00656778
0.0070394
0.0103723
0.0227785
0.0773851
0.455049
5.60554
266.7
81738.4
81738.3
81738.7
81739
81739
81738.8
81738.6
81738.4
81738.5
81738.7
81738.9
81739.2
81739.2
81739.3
81739.7
81740.1
81738.8
81739.2
81738.2
81739.4
81735.3
81739.2
81739.2
81740.4
81740.8
81741.2
81741.3
81742.1
81741.9
81743
81742.6
81744.2
81743.3
81745.5
81743.9
81746.6
81744.1
81747.3
81743.6
81747.3
81742.1
81746.4
81739.6
81744.5
81735.9
81741
81730.6
81735.1
81722
81726.6
81707.9
81701.1
81687.4
81682.2
81686.4
0.0030908
0.13536
0.950347
81745.4
0.515031
0.00247484
0.0022054
0.00128414
0.000615382
0.00249356
81743.2
81744.1
81744.9
81747.3
81747.9
2.32813
0.0433281
0.0177105
0.0124794
0.0123963
0.0174382
0.0353826
0.10658
0.506511
4.36446
113.811
81738.8
81740.4
81739.6
81740.8
81739.4
81740.4
81738.9
81740.2
81739
81740.5
81739.4
81740.6
81740.2
81740.7
81739.5
81740.2
81738.3
81740
81734.8
81738.9
81739
81740
81739.8
81740.8
81740.3
81741.5
81741
81742.8
81742.3
81744.4
81743.5
81745.9
81744.5
81747.3
81745.3
81748.2
81745.3
81748.5
81744.5
81747.7
81742.5
81745.8
81739.3
81742.4
81734.5
81736.4
81727
81727.5
81714.8
81706.1
81691.3
81677.2
81682.2
81680.8
0.00466221
0.0981603
0.110496
0.739126
81745.5
0.0262263
0.00761435
0.00388286
0.00175825
0.00164429
0.0566244
0.797568
81747
81746.8
81750.1
81748.2
0.898144
0.0916934
0.0353459
0.0228043
0.021491
0.0287378
0.0541391
0.146231
0.590783
4.06363
60.3528
5656.88
81742.5
81740
81742.5
81739.4
81742
81739.1
81742
81739.5
81742.2
81740.6
81740.8
81740.4
81740.9
81739.4
81741
81735.8
81739.1
81738.4
81740.2
81739
81740.8
81739.3
81741.3
81739.9
81742.4
81741.2
81744.2
81743
81746
81744.6
81747.5
81745.9
81748.6
81746.7
81749.1
81746.7
81748.5
81745.5
81746.7
81742.8
81743.2
81738.4
81737.4
81731.8
81728.6
81721.4
81710.9
81699
81680
81677.2
81675.9
81682.2
0.00707301
0.0899574
0.0553934
0.0776996
5.82274
1.56219
0.0290172
0.0101059
0.00425359
0.0020977
0.00832865
0.0468511
1.01334
514.35
81749.3
81750.5
17432.1
1.73309
0.210066
0.0733047
0.0436069
0.038682
0.0485616
0.0848607
0.207014
0.73182
4.02752
43.079
1691.09
81742.5
81741.4
81742.2
81740.9
81742.1
81741
81742.5
81742
81741.2
81742
81740.6
81741.8
81741.3
81738.2
81740
81739.3
81740.6
81739.4
81741.2
81739.6
81741.4
81739.7
81742
81740.6
81743.3
81742.5
81745.2
81744.5
81746.7
81746.2
81747.9
81747.7
81748.6
81748.5
81748.4
81748.1
81746.7
81746.1
81743.3
81742.3
81737.8
81736.2
81729.5
81727
81714.6
81707.8
81686.4
81679.5
81667.7
81678.3
81678.7
0.0113901
0.107527
0.0479095
0.0324076
0.235563
81745.3
0.146193
0.0264398
0.0096369
0.00363252
0.00455981
0.0127531
0.0838936
1.86747
1084.59
81751.3
81748.1
81749.2
5.34274
0.544908
0.165719
0.0895074
0.0734667
0.0857246
0.137927
0.305026
0.947828
4.45092
37.1242
788.172
81741
81743.7
81740.9
81743.7
81741.2
81744
81741.5
81744
81740.4
81744.3
81739.2
81741.4
81740.8
81741.2
81741.5
81740.9
81741.9
81741.1
81742.2
81740.8
81742
81740.9
81742.5
81742.2
81744
81744.3
81745.6
81746.1
81746.8
81747.8
81747.7
81749.1
81747.9
81749.4
81746.7
81748.2
81743.6
81745
81738.6
81739.6
81731.1
81731.5
81719
81716.8
81695.2
81689.8
81668.4
81674.5
81674.6
81685.6
0.0197641
0.16518
0.0557342
0.0252098
0.0649843
1.29831
0.786451
0.0756685
0.0214481
0.00725913
0.00478739
0.00751239
0.0241335
0.18234
4.78673
149.817
13.7898
10.1643
15.2777
6.24676
1.29108
0.393003
0.195735
0.147586
0.158211
0.232771
0.46586
1.29072
5.2413
34.8101
526.298
64752.5
81744.9
81741.2
81745.6
81741.3
81745.6
81740.9
81746.8
81739
81743.6
81742.1
81742.9
81742.6
81742.5
81743.1
81742.7
81743.5
81742.4
81743.1
81741.9
81742.8
81742.2
81743.5
81743.7
81745
81745.5
81746.2
81747.1
81747.2
81748.5
81747.7
81749.3
81747
81748.7
81744.6
81746.2
81740.3
81741.8
81733.8
81735
81724.2
81724.4
81706.7
81704.5
81680.2
81682.4
81669.7
81686
81686.9
0.0370052
0.308157
0.0764001
0.0271304
0.0398551
0.245016
1.78895
0.23866
0.0487153
0.015282
0.00720632
0.00713271
0.0136001
0.0524484
0.452399
3.96311
1.69673
0.683388
0.640569
1.08479
2.02971
1.82011
0.860953
0.438892
0.308329
0.302165
0.404539
0.732251
1.81834
6.47447
37.1814
455.382
26841
81745.9
81742.1
81746.4
81741.2
81748.8
81739.3
81745
81743.2
81744.3
81743.6
81743.8
81744
81743.9
81744.7
81743.9
81744.5
81743.1
81743.7
81742.5
81743.6
81743.2
81744.5
81744.7
81745.7
81746.1
81746.6
81747.4
81747.2
81748.3
81747
81748.2
81745.4
81746.5
81741.9
81742.9
81736.5
81737.7
81729
81730
81717.4
81717.7
81698.1
81700.1
81679
81691.1
81688.2
81700.9
0.0750329
0.62839
0.110914
0.0345827
0.0377747
0.137439
1.44042
0.776358
0.117267
0.032841
0.0131622
0.00928602
0.0118616
0.0280026
0.122854
0.589041
0.507481
0.203429
0.133664
0.152442
0.274028
0.657328
1.35837
1.40388
0.917799
0.641562
0.583849
0.713341
1.17322
2.63576
8.4804
43.5992
451.81
18803.1
81746.7
81741.9
81749.8
81739.6
81745.9
81743.8
81745.4
81744.3
81745
81744.6
81745
81745.2
81745.1
81745.2
81744.5
81744.3
81743.5
81743.5
81743.3
81743.7
81744.2
81744.5
81745.3
81745.3
81746.3
81745.9
81747.1
81746.1
81747.2
81745.1
81746
81742.6
81743.2
81738.3
81739
81732.6
81733.3
81724.8
81725.8
81714
81715.9
81699.5
81704.5
81693.4
81703.4
81703.3
0.167397
1.2022
0.156907
0.0479642
0.0460177
0.125618
1.06987
2.33532
0.30878
0.0729129
0.0265709
0.0149163
0.0139839
0.0225162
0.0610123
0.195953
0.237554
0.111643
0.0610535
0.0514266
0.0653883
0.119384
0.290958
0.777996
1.48491
1.54814
1.23958
1.10479
1.25852
1.90402
3.92702
11.6262
54.8094
515.739
19040.5
81749
81741
81746
81745
81745.8
81745.1
81745.9
81745.3
81746
81745.4
81746.2
81745.4
81745.9
81744.5
81744.8
81743.1
81743.9
81742.5
81743.9
81742.9
81744.6
81743.4
81745.2
81743.9
81745.6
81744.2
81745.7
81743.9
81744.8
81742.4
81742.5
81739.3
81738.9
81735
81734.2
81729.7
81728.9
81723.9
81723.4
81717.5
81716.5
81709.2
81706
81709.7
81712.5
0.42337
1.868
0.208105
0.0694271
0.0654634
0.154302
1.0605
6.23345
0.912246
0.171024
0.0566016
0.0273323
0.0202445
0.0240055
0.0449062
0.105913
0.150446
0.0878263
0.0444234
0.0302366
0.0293295
0.0394992
0.0715098
0.166939
0.456797
1.15334
1.91775
2.05983
1.98103
2.19562
3.11809
5.99744
16.6407
74.2475
675.047
24941.4
81745.5
81746.6
81745.8
81746.5
81746.3
81746.5
81746.7
81746.2
81747
81745.8
81746.9
81744.9
81745.8
81743.2
81744.4
81741.9
81743.7
81741.6
81743.7
81741.8
81743.9
81742.1
81744
81742.3
81743.8
81742.3
81743
81741.5
81741.1
81739.6
81737.8
81736.5
81733.7
81732.8
81729.2
81729.2
81725.1
81726.8
81721.2
81723.6
81711.7
81715.9
81710.7
81719
1.25527
2.26103
0.261924
0.103633
0.104443
0.237373
1.46478
16.9696
3.06795
0.421927
0.12278
0.0532124
0.0331027
0.0307868
0.0429019
0.0784678
0.118139
0.0878051
0.0450312
0.0264089
0.0206795
0.0217318
0.0299354
0.0527353
0.115644
0.30008
0.815564
1.84049
2.82966
3.28312
3.76364
5.16204
9.42347
24.9451
108.284
991.456
39180.6
81745.7
81747.6
81746.3
81747.6
81747
81747.3
81747.2
81746.6
81747.1
81745.6
81746.1
81743.9
81744.4
81742.2
81743.1
81741.2
81742.5
81740.9
81742.3
81740.9
81742
81740.8
81741.7
81740.7
81740.9
81740.2
81739.3
81738.8
81736.6
81736.6
81733
81733.8
81729.2
81731.2
81725.9
81729.6
81723.2
81728.4
81717.6
81722.5
81710
81717.7
81717.6
4.36052
2.28774
0.325707
0.160838
0.185706
0.45118
2.88372
62.6802
10.8313
1.00408
0.252528
0.101014
0.0558848
0.0433612
0.0479671
0.070934
0.106696
0.101661
0.0586859
0.0316946
0.0208624
0.0177588
0.0193871
0.0265825
0.0448938
0.0916856
0.220685
0.591999
1.55817
3.28533
4.99175
6.36426
8.71883
15.3456
39.308
169.309
1601.6
71371.7
81746.3
81747.9
81746.9
81747.8
81747
81747.1
81746.6
81746.1
81745.7
81744.5
81743.9
81742.5
81742.1
81741
81741
81740.2
81740.5
81739.9
81740
81739.5
81739.4
81739
81738.6
81738.4
81737.3
81737.2
81735.1
81735.3
81732.3
81733.1
81729.4
81731
81726.9
81729.7
81725
81728.4
81721.4
81724.6
81713.8
81714.5
81715.9
81721.8
15.1538
2.1505
0.417396
0.264888
0.373397
1.08693
8.73264
375.123
23.9305
1.80868
0.427292
0.166618
0.0877766
0.0610651
0.0573014
0.0714515
0.103442
0.123604
0.0907163
0.049822
0.0288121
0.0203585
0.0180355
0.0197907
0.0264091
0.0421947
0.0798552
0.177565
0.456493
1.28423
3.43047
7.07161
10.7923
15.3
26.2497
65.6171
282.793
2790.02
81747.2
81746.9
81747.3
81746.8
81746.8
81746
81745.9
81744.9
81744.5
81743.1
81742.5
81741.1
81740.7
81739.5
81739.6
81738.6
81739
81737.9
81738.3
81737.1
81737.5
81736.1
81736.6
81734.9
81735.3
81733.3
81733.5
81731.2
81731.4
81729.2
81729.6
81727.7
81728.6
81726.9
81727.6
81725
81724.1
81719.6
81714.5
81713.2
81715.6
81723.9
32.0211
2.05042
0.570397
0.475823
0.875861
3.54365
46.4172
474.524
15.7137
1.86602
0.510098
0.213986
0.116588
0.0790402
0.0678133
0.07489
0.102197
0.143603
0.14792
0.0972093
0.0534392
0.0321413
0.0233538
0.0207495
0.0222416
0.0282994
0.0422688
0.0739175
0.152297
0.373244
1.08107
3.43507
9.66478
18.9864
28.8627
48.2968
117.085
496.696
4812.98
81746.2
81746.5
81746.1
81745.7
81745.3
81744.4
81744
81742.7
81742.4
81740.6
81740.6
81738.8
81739.1
81737.5
81738.2
81736.6
81737.3
81735.6
81736.3
81734.5
81735
81733.2
81733.6
81731.8
81731.7
81730.1
81729.7
81728.8
81728.1
81728.2
81727.5
81728.4
81727.2
81728.3
81725.3
81725.1
81718.5
81716.5
81712.3
81720.4
81725.7
29.683
2.10732
0.855382
0.96368
2.51267
17.1521
251.004
52.9917
5.29414
1.19055
0.430655
0.210816
0.126931
0.0901754
0.0760883
0.0785358
0.100651
0.151742
0.21772
0.211197
0.130901
0.0706953
0.0423077
0.0303076
0.0260932
0.0266043
0.0316807
0.0438173
0.0708232
0.136229
0.320596
0.94646
3.46048
13.3564
36.8788
62.268
99.0954
227.511
932.574
8810.04
81745.5
81745.3
81744.7
81744.3
81743.5
81742.9
81742
81741.2
81740.3
81739.5
81738.7
81738.1
81737.4
81736.9
81736.2
81735.7
81734.9
81734.5
81733.5
81733
81731.9
81731.5
81730.2
81729.8
81728.6
81728.5
81727.4
81728
81727.3
81728.4
81728
81729.5
81728.2
81728.5
81724.9
81722.8
81717.3
81717.7
81723
81732.1
19.3929
2.42956
1.44745
2.28561
9.19471
95.8358
84.7486
8.77376
1.87099
0.650384
0.304379
0.176187
0.119829
0.0926183
0.0809209
0.0819044
0.0997306
0.149173
0.259793
0.412097
0.395451
0.225089
0.112641
0.063496
0.0429384
0.0346447
0.0327886
0.0360015
0.0459004
0.0689252
0.125286
0.286867
0.868848
3.62894
19.7595
89.3396
175.302
249.997
524.196
2073.25
19471.4
81744.7
81743.9
81743.3
81743
81741.9
81741.8
81740.3
81740.4
81738.6
81739
81737.1
81737.7
81735.7
81736.3
81734.1
81734.9
81732.5
81733.5
81730.9
81731.8
81729.4
81729.9
81728
81728.1
81727
81727.1
81727.3
81727.3
81728.9
81728.9
81730.5
81729.3
81730.5
81726.9
81726.1
81719.9
81722.2
81727.5
81734
13.8413
3.2292
2.84291
6.52195
36.7235
87.2367
12.9704
2.49467
0.821183
0.375505
0.212906
0.14202
0.107994
0.0912259
0.0844544
0.0866463
0.102228
0.145847
0.261954
0.573793
1.13602
1.07814
0.499948
0.209603
0.1043
0.0637698
0.0468314
0.0404056
0.0406005
0.0478333
0.0674248
0.117657
0.266558
0.83927
4.05106
33.7457
383.331
938.793
919.375
1400.21
4720.25
39575.1
81743.2
81742.2
81741.8
81741.3
81740.4
81740.1
81738.9
81738.9
81737.4
81737.5
81735.8
81736.1
81734.1
81734.6
81732.4
81733.2
81730.7
81731.6
81729.2
81729.8
81727.8
81727.8
81726.6
81726.3
81726.6
81726.2
81728
81728
81730.1
81729.6
81731.8
81729.2
81730.2
81725.3
81725.1
81724.1
81729.9
81735.8
12.2883
5.04826
6.59169
20.5992
59.908
18.0752
3.40938
1.02995
0.447682
0.247284
0.161785
0.120899
0.100913
0.0922203
0.0907536
0.096031
0.111982
0.151506
0.255507
0.584156
1.91221
6.31924
5.13771
1.4105
0.426991
0.177308
0.0952253
0.0625054
0.0487224
0.0448214
0.0492121
0.0660643
0.112522
0.256653
0.854868
4.91948
75.9668
19438.5
10469.5
2825.41
3134.02
9533.13
77270.2
81741
81739.9
81739.9
81739.1
81738.7
81738.1
81737.3
81736.9
81735.8
81735.5
81734.1
81734.1
81732.5
81732.7
81730.7
81731.4
81729.3
81729.6
81728.2
81727.8
81726.8
81726.1
81726
81725.6
81726.4
81726.8
81728.1
81728.9
81730.5
81730.2
81731.1
81729.1
81728.5
81725.4
81727.9
81731.4
81736
13.8133
9.34955
17.0848
42.8812
23.5745
4.88111
1.37161
0.559361
0.296956
0.189727
0.139277
0.114385
0.103287
0.100947
0.105088
0.115436
0.135145
0.175363
0.270603
0.551754
1.7792
13.5236
415.798
46.705
4.22743
0.878835
0.299578
0.138993
0.0806847
0.0567359
0.0481377
0.0499065
0.0648151
0.109561
0.255957
0.922519
6.61386
221.664
81742.9
44941.7
5979.79
6138.97
19094.6
81738.4
81738.8
81738
81738
81737.4
81737.1
81736.5
81735.8
81735.4
81734.4
81734.1
81732.9
81732.8
81731.1
81731.4
81729.6
81729.8
81729.3
81728.5
81728
81726.9
81726.5
81725.6
81725.5
81725.9
81726.5
81727.8
81730.1
81730.6
81731.7
81730.9
81730.3
81728.2
81727.8
81727.4
81729.6
81734.1
19.407
19.6336
36.2355
29.6942
7.38943
1.9608
0.746879
0.379237
0.23612
0.170707
0.138642
0.123886
0.120038
0.12452
0.136381
0.155717
0.18502
0.233977
0.332919
0.584043
1.47368
7.64943
685.198
81747.5
472.556
12.618
1.79549
0.491901
0.194051
0.0992253
0.0633808
0.0502516
0.0499687
0.0637926
0.10874
0.264974
1.05481
9.2641
432.392
81741.6
81734.6
10732.6
11926.2
42363.4
81737.5
81737.3
81737.3
81736.9
81736.7
81736.2
81735.8
81735.2
81734.7
81734.1
81733.5
81732.6
81732.2
81731.1
81730.8
81730.8
81729.8
81730
81728.2
81728
81727.1
81727
81728.1
81727.1
81728.1
81728.2
81730.5
81730.5
81732.8
81731
81732
81728.8
81730.3
81728
81731.6
81733.5
32.3519
37.9733
35.6088
11.5147
3.01143
1.0687
0.515659
0.312718
0.223738
0.181273
0.162077
0.157144
0.16307
0.17912
0.205874
0.244414
0.296923
0.371493
0.496161
0.758513
1.48092
4.48471
33.9478
1032
81746
9042.8
39.7811
3.58502
0.763549
0.254241
0.115402
0.0679307
0.0511556
0.0495731
0.0631746
0.110328
0.284753
1.25424
13.0256
959.527
81740.6
81737
18456
24605.8
81736.9
81738
81736.8
81737.6
81736.7
81736.8
81736.1
81735.7
81735.4
81734.6
81734.5
81733.8
81733.4
81732.7
81732.3
81731.9
81732
81731
81731.7
81730.3
81729.9
81729.6
81728.9
81728.7
81728.5
81730
81730.8
81733.1
81733.2
81734.2
81732.7
81732.7
81731
81731.5
81732.3
81735.7
54.1669
44.0392
17.5695
4.8252
1.62514
0.743264
0.437565
0.310759
0.253526
0.229956
0.226887
0.239638
0.267498
0.31227
0.377513
0.467181
0.583977
0.732098
0.934039
1.27138
1.99549
4.04568
12.5792
73.5327
1376.3
81745.1
81743.1
133.879
6.72444
1.09332
0.310043
0.127048
0.0701599
0.0510275
0.0489518
0.0632272
0.114804
0.3177
1.57346
20.5229
3157.46
81738.9
81739.1
31998.3
54900.6
81736.5
81738.7
81736.9
81738
81736.6
81737
81736.4
81736.1
81736
81735.8
81735.6
81735.4
81734.5
81734.6
81733.8
81733.6
81733
81732.5
81731.6
81731.4
81731.3
81730.5
81730.5
81730.2
81731.8
81732.7
81735.2
81735.2
81737
81735.2
81736.2
81733.3
81734.3
81734.1
81736.8
64.3591
26.7912
7.81918
2.56317
1.12001
0.640071
0.451726
0.373677
0.348461
0.356448
0.392168
0.456787
0.555601
0.697655
0.895967
1.1651
1.5115
1.92075
2.37249
2.91645
3.78534
5.66129
10.9423
32.2435
170.364
2665.94
81742.6
81742.5
459.343
11.4089
1.42692
0.352139
0.133029
0.0702189
0.0501703
0.0484193
0.0643901
0.123569
0.374459
2.16025
38.5506
25564.8
81737.6
81739.5
59373.9
81739.9
81737.1
81738.9
81737.2
81738.2
81737.3
81737.6
81737.2
81737.3
81737.1
81737.5
81737
81737.3
81735.9
81735.6
81734.3
81734.1
81733.4
81733.2
81733
81732.6
81732.3
81731.7
81732.7
81733
81735.6
81736.3
81738.9
81738.4
81740.2
81738
81738.4
81736.2
81737.3
81737.8
43.6473
12.8715
4.12526
1.73168
0.962612
0.67646
0.570625
0.553547
0.598062
0.703002
0.882632
1.1641
1.58692
2.20331
3.08039
4.29528
5.8827
7.687
9.25906
10.2316
10.9301
12.4307
16.9535
31.8042
89.7521
449.014
6417.24
81741
81740.6
1508.63
17.0342
1.69205
0.373934
0.133277
0.0686042
0.0490468
0.0484711
0.0676034
0.140033
0.47784
3.38269
93.159
81739
81737.6
81739.7
81736.6
81739.1
81738.4
81738.6
81738.5
81738.2
81738.3
81738.5
81738.6
81738.5
81738.8
81738.8
81738.4
81737.4
81736.6
81735.7
81735.2
81734.7
81734.7
81734.4
81734.3
81733.7
81733.9
81734.2
81735.6
81737
81739.1
81740.4
81742
81742.3
81742.8
81741
81740.8
81739.8
81740.8
21.8977
6.77105
2.72379
1.46755
1.02493
0.884431
0.901744
1.04819
1.35296
1.9014
2.86055
4.52508
7.37104
12.0885
19.5808
30.9178
46.7694
64.7567
75.7732
71.3507
57.8707
47.183
45.1233
56.9875
101.711
276.273
1343.72
18371.6
81739.9
81738.5
4269.07
21.9675
1.82496
0.373637
0.12897
0.0662041
0.0483433
0.0499166
0.0745768
0.170974
0.682895
6.32758
340.827
81738.3
81738.5
81739.3
81739.3
81737.9
81739.6
81737.8
81739.8
81738.9
81739.6
81739.3
81739.9
81739.7
81739.8
81739.2
81738.4
81737.4
81736.7
81736.1
81736
81735.7
81735.8
81735.3
81735.5
81735.2
81736.4
81736.9
81739.3
81740.1
81742.9
81743
81745.7
81743.9
81745.8
81742.2
81743.7
81742.4
11.3042
4.3402
2.25558
1.55396
1.3654
1.4686
1.86533
2.72213
4.4805
8.21811
16.6272
36.5876
85.4562
204.144
478.108
1061.94
2161.96
3616.29
3905.67
2337.74
979.736
423.627
237.43
187.221
213.817
360.059
951.718
4601.8
59826.7
81738.7
81737.2
8875.83
24.255
1.8042
0.35592
0.122481
0.064239
0.0489769
0.0539911
0.0884782
0.231693
1.13404
15.238
2565.7
81738.4
81739.4
81736.4
81740.4
81736.8
81741.3
81737.6
81740.2
81739
81740.1
81739.8
81740
81739.5
81739
81738.2
81737.2
81736.6
81736.2
81735.9
81735.9
81735.4
81735.8
81735.1
81736.3
81735.9
81738.4
81738.2
81741.6
81741.1
81745.2
81743.1
81747.4
81743
81745.6
81742.9
81744.8
6.94118
3.46964
2.34481
2.07923
2.34393
3.26658
5.51551
11.1847
27.3998
83.0176
326.382
1810.45
16979.1
81751.8
81750.5
81749
81747.3
81745.8
81744.8
81744.3
81743.8
32982.5
4297.48
1432.5
891.124
901.326
1426.9
3701.85
17492.3
81737
81737.7
81737.1
11509
23.1728
1.66889
0.330488
0.116747
0.0640941
0.0521702
0.0628218
0.116025
0.359893
2.29913
53.8485
81738.1
81736.9
81739.1
81734.7
81742.4
81736.2
81740
81738.2
81739.6
81738.6
81739.3
81738.5
81738.3
81737.5
81736.8
81735.8
81735.3
81734.6
81734.5
81733.9
81734.1
81733.4
81734.1
81733.4
81735
81734.5
81737.1
81736.5
81740
81738.6
81742.9
81739.7
81742.5
81739.4
81741.4
81741
5.28878
3.48701
3.09924
3.62674
5.50291
10.8111
28.1028
102.914
616.439
9114.09
81753.6
81753.5
81752.9
81751.8
81750.2
81748.7
81747
81745.5
81744.7
81743.3
81743.2
81741.5
81741.2
70623.6
10823.5
4949.45
4306.91
6358.17
15753.6
68938
81737.5
81737.1
81737.2
9048.7
19.9422
1.49259
0.307771
0.114634
0.0674126
0.0599019
0.0807275
0.17318
0.665307
6.12908
333.989
81737.3
81734.8
81739.9
81734.1
81740.8
81737.1
81739.3
81737.2
81738.6
81737.2
81737.6
81736.5
81736.4
81735.2
81734.9
81733.8
81733.6
81732.6
81732.6
81731.5
81731.9
81730.6
81731.4
81730.1
81731.5
81730.2
81732.7
81731
81734.6
81731.7
81734.7
81730.6
81733.3
81732.6
81735.5
5.07333
4.46952
5.37432
8.77916
19.8942
67.1495
407.709
7906.86
81751.8
81752.9
81753.4
81753.4
81752.7
81751.4
81749.9
81748.2
81746.6
81745.3
81743.2
81743.5
81741.2
81742.5
81740.4
81740.7
81739.8
81740
32642.4
23344.9
30754.7
67861.2
81737.5
81737.9
81737
81736.7
5198.71
16.3772
1.34008
0.29639
0.119191
0.0767301
0.0760967
0.117737
0.303475
1.53704
23.0928
5370.37
81736.9
81736.9
81740.8
81735
81740.2
81736.2
81738.6
81736.5
81737.8
81736.4
81736.9
81735.7
81735.7
81734.3
81734.2
81732.9
81732.8
81731.3
81731.4
81729.6
81729.8
81727.6
81728
81725.6
81726.7
81724.1
81726.4
81722.9
81725.2
81720.6
81722.6
81720.4
81724.2
81725.1
6.22246
7.53028
13.0015
33.4082
145.085
1560.38
81747.6
81749.9
81751.5
81752.6
81753.1
81753.1
81752.4
81751.1
81749.3
81747.5
81745.9
81744
81743.3
81741.8
81742.1
81741.3
81740.8
81740.6
81740
81740
81739.1
81738.8
81738.1
81738.2
81737.9
81738
81736.8
81736.3
81734.6
2754.53
13.5831
1.25395
0.304509
0.134961
0.097025
0.109737
0.200171
0.646609
4.62667
140.457
81735.9
81738.7
81736.5
81740.2
81734.7
81738.9
81735.6
81737.6
81736.1
81737
81735.7
81736
81734.6
81734.5
81732.9
81732.8
81731.1
81730.9
81728.9
81728.5
81726
81725.5
81722.5
81722.3
81718.9
81719.5
81715.5
81716.3
81711.3
81712.7
81708.7
81712.5
81713.1
81717.5
10.0353
17.6539
49.5103
266.176
5168.75
81744.5
81747.3
81749.5
81751.1
81752.2
81752.6
81752.7
81752.1
81750.7
81748.8
81746.7
81744.9
81743.7
81742.3
81741.5
81741.3
81741
81740.9
81740.3
81740.8
81740
81739.8
81738.7
81738.6
81737.9
81737.9
81736.8
81736.2
81734.4
81734
81732.8
1570.45
11.977
1.26802
0.343924
0.170855
0.139641
0.183954
0.40762
1.72799
19.5777
1829.84
81734
81736.6
81734
81737.8
81733.4
81736.2
81734.7
81734.8
81734.2
81733.7
81732.7
81731.9
81730.7
81729.8
81728.5
81727.5
81725.9
81724.6
81722.6
81720.9
81718.3
81716.5
81713.6
81711.7
81708.4
81706.4
81701.8
81701.6
81697.4
81700.2
81699.3
81703.9
81705.8
22.4112
64.2553
389.528
12220.2
81741
81744
81746.7
81749
81750.6
81751.6
81752.2
81752.2
81751.7
81750.4
81748.3
81746.1
81744.4
81742.4
81742.1
81740.6
81741.6
81740.6
81740.9
81740.8
81741.1
81740.4
81739.8
81738.7
81738.1
81737.2
81736.6
81735.2
81734.2
81732.9
81732.5
81732.1
81733.5
1061.96
11.7346
1.4302
0.438147
0.247462
0.233867
0.367065
1.02261
6.11864
131.081
81732.4
81731.1
81733.6
81732.8
81734
81732.7
81730.5
81731.4
81729.1
81729.1
81727
81726.6
81724.5
81724
81721.6
81721
81718.4
81717.4
81714.3
81712.8
81709.1
81707.4
81703.1
81701.2
81696.1
81692.9
81689.3
81685.6
81686.7
81684.3
81687.9
81688.4
81692.3
76.3809
461.282
16656.9
81737.6
81740.6
81743.6
81746.3
81748.4
81750
81751
81751.6
81751.8
81751.3
81750
81747.9
81745.6
81742.8
81742.5
81740.6
81741.6
81740.5
81741
81740.8
81741.6
81740.8
81740.6
81739
81738.3
81737
81736.2
81734.5
81733.3
81731.7
81731.4
81731
81732.5
81732.1
81733.9
901.578
13.171
1.84411
0.643927
0.41913
0.466705
0.897321
3.31065
31.1071
1816.86
81730.2
81730.9
81729.8
81730.7
81726.8
81728.5
81723.3
81724.2
81721.3
81721.3
81718.7
81718.6
81715.7
81715.6
81712.3
81711.9
81708.2
81707.3
81702.9
81701.7
81696.5
81695.1
81688.8
81686.8
81680.2
81677.1
81674.8
81672.1
81673.5
81671.7
81673.6
9629.18
490.037
14352.4
81734.8
81737.4
81740.2
81742.9
81745.5
81747.8
81749.4
81750.4
81751
81751.3
81751
81749.8
81747.5
81744.6
81742.8
81741.1
81741.7
81741.1
81740.8
81741
81741.4
81741.4
81740.9
81739.9
81738.8
81737.7
81736.3
81734.6
81732.6
81731
81730
74912.9
61105.6
69956.6
81732.2
81730.8
81733.4
971.546
17.3034
2.77947
1.11908
0.854048
1.14772
2.81594
14.8773
272.005
81727.7
81727.1
81727
81722
81722.5
81718
81718.6
81714.9
81714.5
81712.9
81712.2
81710.4
81709.6
81707.4
81706.2
81703.7
81702
81698.9
81696.7
81692.9
81690.3
81685.7
81682.8
81677.4
81673.7
81669.7
81666.2
81665.8
81662.9
11097.3
2324.25
1115.51
10977
81732.5
81734.6
81737.1
81739.5
81742.2
81744.9
81747.1
81748.7
81749.8
81750.5
81750.9
81750.7
81749.4
81747.2
81744.6
81742.1
81741.6
81741.2
81741.4
81741
81741.1
81741.5
81741.1
81740.6
81739.5
81738.6
76496.4
76657
81733
81730.9
81729.3
81728.4
61682.4
44895.2
37656.2
46228.9
81731.8
81729.9
81729.8
1321.61
27.3688
5.07268
2.38969
2.18837
3.68173
12.338
110.673
7416.3
81723.6
81718.3
81715.4
81712.1
81712.2
81709.3
81710.2
81707.9
81706.3
81706.4
81704.3
81704
81701.3
81700.7
81697.5
81696.4
81692.9
81691.3
81687.5
81685.6
81681.2
81679.3
81674.1
81672.4
81667.3
81666.4
24944.2
1797.33
461.602
266.288
275.945
81732.3
81733
81734.9
81737
81739.3
81741.6
81744
81746.5
81748.1
81749.2
81750
81750.6
81750.4
81749.3
81747.2
81743.5
81742.1
81739.9
81742
81740.6
81741
81740.9
81741.2
81740.6
81740.3
81739.2
81738.3
81736.1
76449.8
75068.8
79972.5
81727.8
80167
63783.6
45035.5
32097.1
27349.1
35443.5
81730.2
81730.5
81728.3
2440.81
55.3874
11.8566
6.6993
7.71798
17.6773
97.8931
2666.39
81714.5
81713.4
81713.8
81715.2
81713.2
81713.6
81708.5
81707.8
81707.6
81704.4
81705.1
81701.4
81701.5
81697.3
81697.1
81692.8
81692.4
81688.3
81688
81683.9
81684.1
81679.4
81680.1
81675.2
81675.1
50058.4
1317.04
223.127
103.021
98.6454
156.519
81732.1
81733.1
81734.8
81736.6
81738.3
81740.6
81743.3
81745.7
81747.5
81748.7
81749.5
81750.1
81750.1
81749.1
81745.7
81743.9
81740.1
81741.3
81739.8
81740.3
81740.2
81740.7
81740.3
81740.5
81739.5
81738.7
81736.5
81734.3
81731.4
81729.3
81727.4
81727
81726.2
81727.3
60419.2
39405.9
26786.6
22621.2
30042.4
81729.7
81729.3
81725.6
7402.76
158.021
39.7415
30.1325
53.9027
240.568
4621.8
81716
81722.1
81732.3
81735.2
81740.2
81731.7
81731.7
81717.5
81717.5
81716.5
81712
81710.6
81706.1
81704.1
81700.1
81698.2
81695.2
81694.1
81691.8
81691.7
81689.8
81690.5
81688.8
81689.1
81688.5
6765.34
501.197
152.001
122.166
177.539
373.893
81734.3
81734.3
81735.3
81736.5
81738
81739.9
81742.4
81745.2
81747
81748.1
81748.9
81749.7
81749.8
81748.4
81746.7
81742.8
81741.8
81738.9
81738.9
81739.1
81739.6
81739.7
81739.8
81739.4
81738.5
81736.6
81734.3
81731.5
81729.5
81727.3
81726.9
81725.4
81726.7
81725.3
81729.2
69370.7
39941
24766.7
19948
26210.4
81727
81726.7
81723.8
55990.9
813.365
337.772
1342.41
36550.3
81718.1
81734.5
81747.1