/*--------------------------------*- C++ -*----------------------------------*\
  =========                 |
  \\      /  F ield         | OpenFOAM: The Open Source CFD Toolbox
   \\    /   O peration     | Website:  https://openfoam.org
    \\  /    A nd           | Version:  7
     \\/     M anipulation  |
\*---------------------------------------------------------------------------*/
FoamFile
{
    version     2.0;
    format      ascii;
    class       surfaceScalarField;
    location    "25";
    object      phi;
}
// * * * * * * * * * * * * * * * * * * * * * * * * * * * * * * * * * * * * * //

dimensions      [0 3 -1 0 0 0 0];

internalField   nonuniform List<scalar> 
99520
(
-6.77167e-09
2.60652e-10
1.3874e-08
-4.49216e-09
5.08349e-09
-2.37705e-09
5.24789e-09
-1.26484e-09
6.25079e-09
1.1239e-10
5.98577e-09
-2.30443e-09
9.77982e-09
-5.52648e-10
5.61121e-09
-2.87574e-10
7.09792e-09
6.14508e-10
6.46092e-09
4.5532e-10
7.52219e-09
3.04295e-10
7.51402e-09
1.46638e-09
6.20091e-09
2.70739e-09
6.12198e-09
4.88847e-09
5.18192e-09
7.32417e-09
4.9273e-09
1.43426e-08
3.44602e-10
1.0363e-08
1.13425e-08
6.56273e-09
1.11633e-08
3.50224e-09
1.04235e-08
1.69063e-09
9.17459e-09
8.59468e-10
8.19415e-09
4.98891e-10
7.72355e-09
3.19398e-10
7.54246e-09
2.1681e-10
7.46555e-09
1.53361e-10
7.42639e-09
1.11444e-10
7.40485e-09
8.22008e-11
7.39216e-09
6.0992e-11
7.38412e-09
4.51495e-11
7.37874e-09
3.30395e-11
7.37501e-09
2.36061e-11
7.37235e-09
1.61349e-11
7.37041e-09
1.01375e-11
7.36895e-09
5.26176e-12
7.36783e-09
1.26504e-12
7.36697e-09
-2.04157e-12
7.36629e-09
-4.78396e-12
7.36575e-09
-7.08155e-12
7.3653e-09
-9.0133e-12
7.36494e-09
-1.0648e-11
7.36464e-09
-1.20203e-11
7.36439e-09
-1.31755e-11
7.36417e-09
-1.41329e-11
7.36398e-09
-1.4931e-11
7.36381e-09
-1.55717e-11
7.36365e-09
-1.6089e-11
7.36349e-09
-1.64652e-11
7.36335e-09
-1.66766e-11
7.36324e-09
-1.68049e-11
7.36313e-09
-1.67365e-11
7.36305e-09
-1.66824e-11
7.36296e-09
-1.64202e-11
7.36291e-09
-1.62325e-11
7.3628e-09
-1.57934e-11
7.36277e-09
-1.55201e-11
7.36261e-09
-1.49205e-11
7.36262e-09
-1.44362e-11
7.36251e-09
-1.37424e-11
7.36247e-09
-1.30981e-11
7.36241e-09
-1.22984e-11
7.36238e-09
-1.15503e-11
7.36232e-09
-1.06829e-11
7.3623e-09
-9.88472e-12
7.36226e-09
-9.00282e-12
7.36227e-09
-8.21059e-12
7.36224e-09
-7.41613e-12
7.36228e-09
-6.73813e-12
7.36227e-09
-6.11604e-12
7.36234e-09
-5.61405e-12
7.36234e-09
-5.25807e-12
7.36245e-09
-5.0295e-12
7.36246e-09
-5.00031e-12
7.3626e-09
-5.0538e-12
7.3626e-09
-5.39489e-12
7.36274e-09
-5.75831e-12
7.36279e-09
-6.47655e-12
7.36292e-09
-7.08729e-12
7.36305e-09
-8.18109e-12
7.36306e-09
-8.74056e-12
7.36324e-09
7.36318e-09
-1.00335e-11
-3.92754e-09
-1.27853e-09
5.46673e-09
-2.90276e-09
4.05872e-09
-2.48776e-09
4.8329e-09
-2.19775e-09
5.96079e-09
-2.18654e-09
5.97456e-09
-1.1852e-09
8.77848e-09
-1.49286e-11
4.44095e-09
2.25541e-10
6.85746e-09
-5.86815e-10
7.27327e-09
3.71356e-10
6.56401e-09
1.4335e-09
6.45188e-09
1.98506e-09
5.64935e-09
3.06748e-09
5.03957e-09
4.4275e-09
3.8219e-09
4.64984e-09
4.70497e-09
5.63964e-09
-6.45263e-10
1.16302e-08
5.35185e-09
1.06702e-08
1.21232e-08
7.49972e-09
1.35939e-08
4.59301e-09
1.20813e-08
2.67811e-09
1.0109e-08
1.59976e-09
8.80186e-09
1.01337e-09
8.12881e-09
6.79323e-10
7.79954e-09
4.74878e-10
7.63077e-09
3.41307e-10
7.53833e-09
2.49299e-10
7.48406e-09
1.83227e-10
7.45007e-09
1.34201e-10
7.42765e-09
9.68774e-11
7.41225e-09
6.78304e-11
7.40131e-09
4.48419e-11
7.39335e-09
2.63394e-11
7.3874e-09
1.12789e-11
7.38288e-09
-1.14339e-12
7.37938e-09
-1.14499e-11
7.37663e-09
-2.00994e-11
7.37443e-09
-2.73801e-11
7.37265e-09
-3.35703e-11
7.37118e-09
-3.88189e-11
7.36995e-09
-4.33016e-11
7.36892e-09
-4.70936e-11
7.36803e-09
-5.03212e-11
7.36726e-09
-5.30184e-11
7.36656e-09
-5.52986e-11
7.36593e-09
-5.71388e-11
7.36538e-09
-5.86346e-11
7.36488e-09
-5.97196e-11
7.36444e-09
-6.04929e-11
7.36403e-09
-6.09081e-11
7.36363e-09
-6.10505e-11
7.36326e-09
-6.09274e-11
7.36292e-09
-6.04962e-11
7.36259e-09
-5.99339e-11
7.36221e-09
-5.90335e-11
7.36201e-09
-5.7999e-11
7.36166e-09
-5.675e-11
7.36143e-09
-5.52951e-11
7.36114e-09
-5.36576e-11
7.36094e-09
-5.18555e-11
7.36067e-09
-4.98706e-11
7.36053e-09
-4.77966e-11
7.36028e-09
-4.55397e-11
7.3602e-09
-4.32798e-11
7.35996e-09
-4.08308e-11
7.35996e-09
-3.8516e-11
7.35974e-09
-3.6009e-11
7.35982e-09
-3.37599e-11
7.35964e-09
-3.12998e-11
7.35982e-09
-2.92553e-11
7.35967e-09
-2.69977e-11
7.35994e-09
-2.52671e-11
7.35985e-09
-2.33355e-11
7.36021e-09
-2.20174e-11
7.36019e-09
-2.05456e-11
7.36061e-09
-1.96561e-11
7.36072e-09
-1.88109e-11
7.3611e-09
-1.82425e-11
7.36127e-09
-1.77476e-11
7.36155e-09
7.36175e-09
-1.71871e-11
-1.76526e-09
-1.85498e-09
2.34167e-09
-6.65286e-11
2.35995e-09
-3.39543e-09
8.16185e-09
-2.10638e-09
4.67174e-09
-2.25226e-09
6.12045e-09
-1.69097e-10
6.69532e-09
-1.9437e-10
4.46622e-09
2.93326e-10
6.36977e-09
-1.03891e-09
8.60552e-09
-1.72658e-11
5.54238e-09
1.16167e-09
5.27295e-09
2.02331e-09
4.78771e-09
3.0805e-09
3.98239e-09
3.94176e-09
2.96065e-09
5.03983e-09
3.60685e-09
4.83052e-09
-4.36055e-10
6.97426e-09
3.20804e-09
8.78298e-09
1.03144e-08
8.16336e-09
1.42135e-08
6.13635e-09
1.41083e-08
4.07109e-09
1.21743e-08
2.58911e-09
1.02838e-08
1.67651e-09
9.04135e-09
1.12998e-09
8.346e-09
7.90106e-10
7.97056e-09
5.67155e-10
7.76118e-09
4.13527e-10
7.63757e-09
3.03212e-10
7.56026e-09
2.21342e-10
7.50944e-09
1.58908e-10
7.47458e-09
1.1028e-10
7.4499e-09
7.16771e-11
7.43188e-09
4.05917e-11
7.41847e-09
1.51945e-11
7.40824e-09
-5.74479e-12
7.40034e-09
-2.31984e-11
7.3941e-09
-3.78332e-11
7.38913e-09
-5.02142e-11
7.38507e-09
-6.0718e-11
7.38174e-09
-6.96758e-11
7.37895e-09
-7.73025e-11
7.3766e-09
-8.38032e-11
7.37456e-09
-8.93115e-11
7.3728e-09
-9.39715e-11
7.37123e-09
-9.78497e-11
7.36986e-09
-1.01062e-10
7.36861e-09
-1.03568e-10
7.3675e-09
-1.0551e-10
7.3665e-09
-1.06819e-10
7.36553e-09
-1.07704e-10
7.36465e-09
-1.08043e-10
7.36377e-09
-1.07976e-10
7.36302e-09
-1.07409e-10
7.36221e-09
-1.06567e-10
7.36154e-09
-1.05219e-10
7.36085e-09
-1.03646e-10
7.36024e-09
-1.01631e-10
7.35961e-09
-9.94079e-11
7.35908e-09
-9.67929e-11
7.35851e-09
-9.39976e-11
7.35806e-09
-9.08604e-11
7.35756e-09
-8.75878e-11
7.35719e-09
-8.40513e-11
7.35676e-09
-8.04084e-11
7.3565e-09
-7.66007e-11
7.35615e-09
-7.27466e-11
7.35598e-09
-6.88492e-11
7.35574e-09
-6.49296e-11
7.35568e-09
-6.10954e-11
7.35557e-09
-5.72876e-11
7.35562e-09
-5.37019e-11
7.35566e-09
-5.01537e-11
7.35583e-09
-4.69441e-11
7.35604e-09
-4.38035e-11
7.35632e-09
-4.1056e-11
7.3567e-09
-3.85155e-11
7.35708e-09
-3.63326e-11
7.35756e-09
-3.43539e-11
7.35791e-09
-3.25333e-11
7.35841e-09
7.35893e-09
-3.07372e-11
-8.21735e-10
-1.42307e-09
3.89811e-10
-1.35629e-09
2.89451e-09
-1.42651e-09
8.23207e-09
-4.44871e-11
3.28968e-09
-6.62863e-12
6.08266e-09
1.60076e-11
6.6727e-09
-9.41212e-12
4.49167e-09
-6.41729e-11
6.42456e-09
-2.9579e-09
1.14993e-08
-1.82571e-10
2.76705e-09
1.04265e-10
4.98612e-09
7.44347e-10
4.14763e-09
2.30564e-09
2.42109e-09
2.95147e-09
2.31477e-09
3.69247e-09
2.86577e-09
2.96864e-09
2.87719e-10
3.96351e-09
2.21313e-09
6.18253e-09
8.09539e-09
7.18972e-09
1.32063e-08
6.45124e-09
1.48467e-08
4.85701e-09
1.37685e-08
3.33256e-09
1.18082e-08
2.23442e-09
1.01394e-08
1.52469e-09
9.05565e-09
1.07056e-09
8.4246e-09
7.69952e-10
8.06166e-09
5.62007e-10
7.8454e-09
4.12187e-10
7.71e-09
3.0056e-10
7.62101e-09
2.15081e-10
7.56003e-09
1.48194e-10
7.51675e-09
9.48735e-11
7.48517e-09
5.17614e-11
7.46156e-09
1.6416e-11
7.44356e-09
-1.28175e-11
7.42959e-09
-3.72682e-11
7.41857e-09
-5.78111e-11
7.40973e-09
-7.52518e-11
7.40253e-09
-9.00488e-11
7.3966e-09
-1.02724e-10
7.39162e-09
-1.13496e-10
7.38742e-09
-1.22733e-10
7.38378e-09
-1.30529e-10
7.38064e-09
-1.37154e-10
7.37785e-09
-1.42649e-10
7.3754e-09
-1.47165e-10
7.37319e-09
-1.50729e-10
7.37119e-09
-1.53432e-10
7.36933e-09
-1.55385e-10
7.36763e-09
-1.56593e-10
7.36599e-09
-1.57176e-10
7.36448e-09
-1.57018e-10
7.36305e-09
-1.56353e-10
7.3617e-09
-1.55104e-10
7.36043e-09
-1.53315e-10
7.35924e-09
-1.5101e-10
7.35811e-09
-1.48256e-10
7.35704e-09
-1.45039e-10
7.35605e-09
-1.41443e-10
7.3551e-09
-1.37425e-10
7.35425e-09
-1.33103e-10
7.35342e-09
-1.28412e-10
7.35273e-09
-1.23518e-10
7.35202e-09
-1.18302e-10
7.3515e-09
-1.13015e-10
7.35091e-09
-1.07468e-10
7.35058e-09
-1.02e-10
7.35014e-09
-9.63163e-11
7.35003e-09
-9.0876e-11
7.34975e-09
-8.52769e-11
7.34988e-09
-8.00739e-11
7.34977e-09
-7.4762e-11
7.35015e-09
-6.9962e-11
7.35026e-09
-6.51136e-11
7.35087e-09
-6.08662e-11
7.35119e-09
-5.67146e-11
7.35197e-09
-5.31643e-11
7.35245e-09
-4.98569e-11
7.35317e-09
-4.6718e-11
7.35387e-09
7.35476e-09
-4.37703e-11
-1.15012e-09
-6.47518e-10
3.74472e-10
-5.86676e-10
2.33118e-09
1.36069e-09
6.28471e-09
1.06325e-09
3.58721e-09
9.99102e-10
6.14682e-09
9.12532e-10
6.75933e-09
3.84147e-10
5.02005e-09
-7.68599e-10
7.57733e-09
-7.38529e-10
1.14691e-08
-4.73297e-11
2.07582e-09
8.36999e-12
4.93044e-09
2.01197e-11
4.13585e-09
9.38374e-10
1.50283e-09
1.35778e-09
1.89538e-09
2.49128e-09
1.7322e-09
2.32224e-09
4.5676e-10
2.58346e-09
1.95189e-09
4.21882e-09
6.46009e-09
5.76497e-09
1.16602e-08
6.01591e-09
1.45958e-08
5.10986e-09
1.46745e-08
3.80796e-09
1.31101e-08
2.66837e-09
1.1279e-08
1.8522e-09
9.87177e-09
1.30664e-09
8.97005e-09
9.40677e-10
8.42753e-09
6.86692e-10
8.09927e-09
5.03382e-10
7.89328e-09
3.66318e-10
7.75804e-09
2.6093e-10
7.66545e-09
1.7795e-10
7.59967e-09
1.11506e-10
7.55163e-09
5.74145e-11
7.51557e-09
1.29369e-11
7.48806e-09
-2.41165e-11
7.46658e-09
-5.51342e-11
7.44964e-09
-8.1404e-11
7.43596e-09
-1.03659e-10
7.42487e-09
-1.22723e-10
7.41562e-09
-1.38957e-10
7.40794e-09
-1.52926e-10
7.40132e-09
-1.6478e-10
7.39571e-09
-1.74935e-10
7.39073e-09
-1.8341e-10
7.38645e-09
-1.90573e-10
7.38255e-09
-1.96328e-10
7.37908e-09
-2.01011e-10
7.37587e-09
-2.04471e-10
7.37295e-09
-2.07059e-10
7.37022e-09
-2.08578e-10
7.36765e-09
-2.09321e-10
7.36528e-09
-2.09092e-10
7.36304e-09
-2.08248e-10
7.36092e-09
-2.06515e-10
7.35892e-09
-2.04221e-10
7.35703e-09
-2.01113e-10
7.35525e-09
-1.97539e-10
7.35359e-09
-1.93242e-10
7.35201e-09
-1.8855e-10
7.35057e-09
-1.83224e-10
7.34918e-09
-1.7756e-10
7.34797e-09
-1.71381e-10
7.34678e-09
-1.64923e-10
7.34581e-09
-1.58098e-10
7.34483e-09
-1.5105e-10
7.34413e-09
-1.43822e-10
7.34336e-09
-1.3642e-10
7.34295e-09
-1.29044e-10
7.34244e-09
-1.21536e-10
7.34233e-09
-1.14279e-10
7.34211e-09
-1.06927e-10
7.3423e-09
-1.00025e-10
7.34242e-09
-9.30731e-11
7.3429e-09
-8.67099e-11
7.34338e-09
-8.04137e-11
7.34414e-09
-7.47834e-11
7.34495e-09
-6.95325e-11
7.34582e-09
-6.4794e-11
7.34671e-09
-6.02119e-11
7.3478e-09
7.34906e-09
-5.5833e-11
-1.51077e-09
1.36627e-10
7.2672e-10
-1.0167e-09
1.83715e-09
9.69415e-10
4.29868e-09
8.39905e-10
3.71677e-09
1.15421e-09
5.83257e-09
1.32689e-09
6.58662e-09
8.56853e-10
5.49011e-09
7.20352e-10
7.71383e-09
1.33659e-09
1.08529e-08
-1.18143e-10
3.53051e-09
-5.4207e-10
5.35439e-09
-8.30102e-10
4.42382e-09
-9.15499e-10
1.58816e-09
1.70925e-10
8.0888e-10
1.38952e-09
5.13616e-10
1.55659e-09
2.89672e-10
1.79454e-09
1.71397e-09
2.90781e-09
5.34684e-09
4.41933e-09
1.01487e-08
5.2229e-09
1.37923e-08
4.95319e-09
1.49442e-08
4.01585e-09
1.40474e-08
2.96591e-09
1.23289e-08
2.10925e-09
1.07283e-08
1.49825e-09
9.58097e-09
1.07823e-09
8.84743e-09
7.85201e-10
8.39223e-09
5.73681e-10
8.10474e-09
4.15472e-10
7.91627e-09
2.93415e-10
7.78747e-09
1.9694e-10
7.69616e-09
1.19189e-10
7.6293e-09
5.56004e-11
7.57916e-09
2.93207e-12
7.54066e-09
-4.10996e-11
7.51063e-09
-7.82364e-11
7.48674e-09
-1.0974e-10
7.46752e-09
-1.36635e-10
7.45174e-09
-1.59653e-10
7.4387e-09
-1.79427e-10
7.42766e-09
-1.96365e-10
7.41832e-09
-2.10895e-10
7.41019e-09
-2.23166e-10
7.40319e-09
-2.33637e-10
7.39688e-09
-2.4224e-10
7.39133e-09
-2.49458e-10
7.38621e-09
-2.55009e-10
7.38165e-09
-2.59453e-10
7.3773e-09
-2.62412e-10
7.37335e-09
-2.6441e-10
7.36962e-09
-2.65101e-10
7.3662e-09
-2.64947e-10
7.36289e-09
-2.63631e-10
7.35985e-09
-2.61585e-10
7.3569e-09
-2.58467e-10
7.35419e-09
-2.54723e-10
7.35157e-09
-2.50011e-10
7.34918e-09
-2.44773e-10
7.34687e-09
-2.3867e-10
7.34478e-09
-2.32132e-10
7.34279e-09
-2.24835e-10
7.34101e-09
-2.17204e-10
7.33934e-09
-2.08937e-10
7.33788e-09
-2.00454e-10
7.33654e-09
-1.91471e-10
7.33543e-09
-1.82406e-10
7.33444e-09
-1.7299e-10
7.33371e-09
-1.63639e-10
7.33308e-09
-1.54094e-10
7.33278e-09
-1.4477e-10
7.33252e-09
-1.35399e-10
7.33268e-09
-1.26402e-10
7.33279e-09
-1.17473e-10
7.33345e-09
-1.09082e-10
7.33394e-09
-1.00824e-10
7.33514e-09
-9.33811e-11
7.33598e-09
-8.63802e-11
7.33729e-09
-7.99252e-11
7.33841e-09
-7.37748e-11
7.33993e-09
7.34173e-09
-6.77175e-11
-1.45274e-09
7.61208e-10
8.28189e-10
-1.27576e-09
1.66025e-09
-1.55644e-10
3.17858e-09
8.90854e-12
3.55224e-09
5.92159e-10
5.24936e-09
1.11908e-09
6.05971e-09
6.88574e-10
5.92064e-09
8.58059e-10
7.5444e-09
2.3019e-09
9.40903e-09
5.56776e-10
5.27558e-09
3.00363e-10
5.61075e-09
4.04018e-10
4.32008e-09
2.3298e-10
1.75908e-09
5.3314e-10
5.08692e-10
9.96326e-10
5.03899e-11
1.12478e-09
1.61187e-10
1.30947e-09
1.52926e-09
2.07022e-09
4.5861e-09
3.33574e-09
8.88316e-09
4.34271e-09
1.27853e-08
4.53401e-09
1.47529e-08
3.98506e-09
1.45963e-08
3.11665e-09
1.31972e-08
2.28776e-09
1.15572e-08
1.64379e-09
1.02248e-08
1.18309e-09
9.30803e-09
8.57563e-10
8.71768e-09
6.22347e-10
8.33992e-09
4.46614e-10
8.09198e-09
3.10973e-10
7.92309e-09
2.03455e-10
7.80364e-09
1.16409e-10
7.71631e-09
4.48179e-11
7.65071e-09
-1.48284e-11
7.60028e-09
-6.49897e-11
7.56077e-09
-1.07531e-10
7.52928e-09
-1.43813e-10
7.5038e-09
-1.74927e-10
7.48287e-09
-2.01681e-10
7.46544e-09
-2.24721e-10
7.45074e-09
-2.44559e-10
7.43816e-09
-2.61466e-10
7.42731e-09
-2.75988e-10
7.41771e-09
-2.88134e-10
7.40926e-09
-2.98471e-10
7.40156e-09
-3.06683e-10
7.39474e-09
-3.13508e-10
7.38823e-09
-3.18497e-10
7.38245e-09
-3.2212e-10
7.37695e-09
-3.24233e-10
7.37191e-09
-3.25129e-10
7.36709e-09
-3.24657e-10
7.36265e-09
-3.23126e-10
7.35836e-09
-3.20363e-10
7.3544e-09
-3.16671e-10
7.35056e-09
-3.1187e-10
7.34705e-09
-3.06254e-10
7.34365e-09
-2.9965e-10
7.34057e-09
-2.92346e-10
7.33761e-09
-2.84172e-10
7.33497e-09
-2.75421e-10
7.33243e-09
-2.65921e-10
7.33024e-09
-2.55998e-10
7.32814e-09
-2.45441e-10
7.32642e-09
-2.34648e-10
7.32476e-09
-2.23335e-10
7.32355e-09
-2.1202e-10
7.32235e-09
-2.00277e-10
7.32171e-09
-1.88804e-10
7.32097e-09
-1.76978e-10
7.32093e-09
-1.6572e-10
7.32066e-09
-1.54134e-10
7.32127e-09
-1.43434e-10
7.32148e-09
-1.32365e-10
7.3228e-09
-1.2251e-10
7.32353e-09
-1.12686e-10
7.32524e-09
-1.03975e-10
7.32642e-09
-9.5633e-11
7.32809e-09
-8.76004e-11
7.33011e-09
7.33254e-09
-7.98435e-11
-1.19905e-09
1.19124e-09
7.6905e-10
-1.12917e-09
1.59041e-09
-5.50477e-10
2.59991e-09
-3.83544e-10
3.3853e-09
1.62647e-10
4.70317e-09
6.25326e-10
5.59703e-09
4.86277e-10
6.0597e-09
7.77727e-10
7.25297e-09
1.93278e-09
8.25389e-09
1.05613e-09
6.15214e-09
1.21277e-09
5.45402e-09
1.46278e-09
4.06995e-09
1.16173e-09
2.06004e-09
9.79424e-10
6.90912e-10
9.61025e-10
6.87083e-11
9.29811e-10
1.92343e-10
1.02854e-09
1.43049e-09
1.54384e-09
4.07078e-09
2.5311e-09
7.89587e-09
3.53112e-09
1.17852e-08
3.99413e-09
1.42898e-08
3.77747e-09
1.48129e-08
3.12897e-09
1.38456e-08
2.38243e-09
1.23036e-08
1.74028e-09
1.08669e-08
1.25521e-09
9.79301e-09
9.04529e-10
9.06828e-09
6.49757e-10
8.59464e-09
4.59595e-10
8.2821e-09
3.13004e-10
8.06964e-09
1.96689e-10
7.91991e-09
1.02225e-10
7.81074e-09
2.41509e-11
7.72874e-09
-4.12617e-11
7.66566e-09
-9.66039e-11
7.61609e-09
-1.43819e-10
7.57648e-09
-1.84309e-10
7.5443e-09
-2.19215e-10
7.51778e-09
-2.49359e-10
7.49561e-09
-2.75438e-10
7.47684e-09
-2.97836e-10
7.46075e-09
-3.17186e-10
7.4467e-09
-3.33588e-10
7.43437e-09
-3.47677e-10
7.42327e-09
-3.59216e-10
7.41343e-09
-3.68867e-10
7.40421e-09
-3.76453e-10
7.39593e-09
-3.82214e-10
7.38821e-09
-3.86199e-10
7.38106e-09
-3.88586e-10
7.37433e-09
-3.89375e-10
7.36804e-09
-3.88741e-10
7.36208e-09
-3.86677e-10
7.35649e-09
-3.83349e-10
7.35116e-09
-3.78747e-10
7.34617e-09
-3.73018e-10
7.34143e-09
-3.66153e-10
7.33703e-09
-3.58295e-10
7.33287e-09
-3.49436e-10
7.32905e-09
-3.39725e-10
7.32545e-09
-3.29148e-10
7.32222e-09
-3.17888e-10
7.3192e-09
-3.05886e-10
7.31658e-09
-2.93409e-10
7.31413e-09
-2.80303e-10
7.31217e-09
-2.66994e-10
7.31031e-09
-2.53136e-10
7.30906e-09
-2.39406e-10
7.30778e-09
-2.25172e-10
7.30728e-09
-2.11464e-10
7.30658e-09
-1.97227e-10
7.30688e-09
-1.83947e-10
7.30679e-09
-1.70031e-10
7.30795e-09
-1.57507e-10
7.30851e-09
-1.44588e-10
7.31036e-09
-1.3322e-10
7.31158e-09
-1.2218e-10
7.31343e-09
-1.11822e-10
7.3155e-09
-1.01788e-10
7.31814e-09
7.32134e-09
-9.20932e-11
-9.74652e-10
1.50877e-09
6.57168e-10
-9.72351e-10
1.58812e-09
-6.73079e-10
2.30063e-09
-4.4367e-10
3.15586e-09
-3.29534e-11
4.29244e-09
3.30438e-10
5.23362e-09
4.35048e-10
5.95508e-09
7.89694e-10
6.89832e-09
1.56073e-09
7.48281e-09
1.40079e-09
6.31201e-09
1.55141e-09
5.30329e-09
1.69133e-09
3.92995e-09
1.48109e-09
2.27015e-09
1.21196e-09
9.59949e-10
1.01269e-09
2.67879e-10
8.6769e-10
3.37286e-10
8.74184e-10
1.42392e-09
1.20967e-09
3.73527e-09
1.9537e-09
7.15176e-09
2.84775e-09
1.08911e-08
3.4339e-09
1.37036e-08
3.46239e-09
1.47844e-08
3.02814e-09
1.42798e-08
2.3962e-09
1.29355e-08
1.78641e-09
1.14766e-08
1.29458e-09
1.02848e-08
9.2706e-10
9.43572e-09
6.56929e-10
8.86474e-09
4.55022e-10
8.48395e-09
2.99685e-10
8.22497e-09
1.76457e-10
8.04309e-09
7.62516e-11
7.91094e-09
-6.93685e-12
7.81188e-09
-7.69314e-11
7.73566e-09
-1.3656e-10
7.67568e-09
-1.87666e-10
7.62762e-09
-2.31813e-10
7.58843e-09
-2.70025e-10
7.55602e-09
-3.03207e-10
7.52883e-09
-3.31955e-10
7.50571e-09
-3.5686e-10
7.48575e-09
-3.7827e-10
7.46831e-09
-3.96729e-10
7.45281e-09
-4.12252e-10
7.43904e-09
-4.25321e-10
7.42639e-09
-4.36003e-10
7.41496e-09
-4.44426e-10
7.4044e-09
-4.50781e-10
7.39461e-09
-4.55112e-10
7.38547e-09
-4.5761e-10
7.3769e-09
-4.58279e-10
7.36882e-09
-4.57314e-10
7.36121e-09
-4.54694e-10
7.35401e-09
-4.50623e-10
7.3472e-09
-4.45063e-10
7.34077e-09
-4.38215e-10
7.33473e-09
-4.30032e-10
7.32904e-09
-4.20715e-10
7.32375e-09
-4.10225e-10
7.31879e-09
-3.98746e-10
7.31426e-09
-3.86282e-10
7.31003e-09
-3.7297e-10
7.30628e-09
-3.58899e-10
7.30279e-09
-3.44094e-10
7.29985e-09
-3.28822e-10
7.29711e-09
-3.12908e-10
7.29503e-09
-2.96894e-10
7.29304e-09
-2.80278e-10
7.29186e-09
-2.64004e-10
7.29064e-09
-2.47118e-10
7.29039e-09
-2.31058e-10
7.28995e-09
-2.14292e-10
7.29066e-09
-1.98818e-10
7.29104e-09
-1.82764e-10
7.29263e-09
-1.68304e-10
7.29385e-09
-1.54165e-10
7.29579e-09
-1.41013e-10
7.29788e-09
-1.28399e-10
7.30051e-09
-1.16109e-10
7.304e-09
7.30802e-09
-1.04273e-10
-8.14953e-10
1.77887e-09
5.44868e-10
-8.75067e-10
1.64821e-09
-7.21886e-10
2.14742e-09
-5.09862e-10
2.9438e-09
-1.71276e-10
3.95381e-09
1.65015e-10
4.89729e-09
4.13178e-10
5.70689e-09
8.16883e-10
6.4946e-09
1.41308e-09
6.88658e-09
1.55947e-09
6.1655e-09
1.69258e-09
5.17015e-09
1.75435e-09
3.86805e-09
1.60589e-09
2.41856e-09
1.3495e-09
1.21619e-09
1.08821e-09
5.29125e-10
8.74967e-10
5.50394e-10
8.0196e-10
1.49692e-09
9.99218e-10
3.53788e-09
1.54453e-09
6.60644e-09
2.29742e-09
1.01381e-08
2.90786e-09
1.30931e-08
3.09567e-09
1.45964e-08
2.84484e-09
1.45306e-08
2.33841e-09
1.34418e-08
1.78335e-09
1.20316e-08
1.30134e-09
1.07667e-08
9.26095e-10
9.81097e-09
6.44991e-10
9.14574e-09
4.33933e-10
8.69503e-09
2.71588e-10
8.38722e-09
1.43081e-10
8.17163e-09
3.84188e-11
8.01552e-09
-4.85846e-11
7.89894e-09
-1.22237e-10
7.80924e-09
-1.85191e-10
7.7387e-09
-2.39588e-10
7.68197e-09
-2.86745e-10
7.63565e-09
-3.27816e-10
7.59715e-09
-3.63677e-10
7.56471e-09
-3.9484e-10
7.537e-09
-4.21974e-10
7.51295e-09
-4.45405e-10
7.49182e-09
-4.65566e-10
7.47306e-09
-4.8263e-10
7.45609e-09
-4.96977e-10
7.44073e-09
-5.08577e-10
7.42666e-09
-5.17815e-10
7.41362e-09
-5.24573e-10
7.4015e-09
-5.29248e-10
7.39013e-09
-5.31657e-10
7.37947e-09
-5.32212e-10
7.36938e-09
-5.3069e-10
7.35988e-09
-5.27519e-10
7.35086e-09
-5.22455e-10
7.34235e-09
-5.15931e-10
7.3343e-09
-5.07688e-10
7.32673e-09
-4.98162e-10
7.31961e-09
-4.87099e-10
7.31296e-09
-4.74922e-10
7.30679e-09
-4.61403e-10
7.30106e-09
-4.46939e-10
7.29585e-09
-4.31362e-10
7.29106e-09
-4.14994e-10
7.28684e-09
-3.97781e-10
7.28301e-09
-3.79927e-10
7.2798e-09
-3.61561e-10
7.27695e-09
-3.4268e-10
7.27479e-09
-3.23667e-10
7.27294e-09
-3.04251e-10
7.27182e-09
-2.85119e-10
7.271e-09
-2.65646e-10
7.27094e-09
-2.46838e-10
7.27117e-09
-2.27838e-10
7.27213e-09
-2.09822e-10
7.27337e-09
-1.92338e-10
7.27509e-09
-1.75863e-10
7.27722e-09
-1.60235e-10
7.27976e-09
-1.44998e-10
7.28327e-09
-1.30335e-10
7.2875e-09
7.29246e-09
-1.16169e-10
-6.89366e-10
2.02736e-09
4.4088e-10
-7.93232e-10
1.75205e-09
-7.31615e-10
2.08575e-09
-5.6432e-10
2.77644e-09
-2.82186e-10
3.67161e-09
3.99562e-11
4.5751e-09
3.60341e-10
5.38647e-09
7.8944e-10
6.06547e-09
1.31914e-09
6.35677e-09
1.60098e-09
5.88362e-09
1.77227e-09
4.99875e-09
1.81953e-09
3.82075e-09
1.69375e-09
2.54424e-09
1.4496e-09
1.46028e-09
1.16646e-09
8.1213e-10
9.14288e-10
8.02506e-10
7.80428e-10
1.63066e-09
8.70317e-10
3.44796e-09
1.25538e-09
6.22126e-09
1.86346e-09
9.52997e-09
2.43909e-09
1.25174e-08
2.71545e-09
1.432e-08
2.60724e-09
1.46387e-08
2.22157e-09
1.38274e-08
1.7342e-09
1.25189e-08
1.27614e-09
1.12247e-08
9.02162e-10
1.01849e-08
6.14995e-10
9.4329e-09
3.97248e-10
8.91271e-09
2.29591e-10
8.55489e-09
9.69667e-11
8.3042e-09
-1.0958e-11
8.12347e-09
-1.00891e-10
7.98885e-09
-1.77235e-10
7.88562e-09
-2.42874e-10
7.80434e-09
-2.99859e-10
7.73899e-09
-3.49508e-10
7.68543e-09
-3.93105e-10
7.64072e-09
-4.3117e-10
7.60294e-09
-4.64659e-10
7.57038e-09
-4.93678e-10
7.54218e-09
-5.19034e-10
7.51713e-09
-5.40688e-10
7.49481e-09
-5.59233e-10
7.47458e-09
-5.74583e-10
7.45621e-09
-5.87193e-10
7.4392e-09
-5.96918e-10
7.4235e-09
-6.04216e-10
7.40874e-09
-6.08874e-10
7.39497e-09
-6.11352e-10
7.3819e-09
-6.11397e-10
7.36964e-09
-6.09481e-10
7.35793e-09
-6.0533e-10
7.34694e-09
-5.99425e-10
7.33644e-09
-5.9148e-10
7.32661e-09
-5.81978e-10
7.31725e-09
-5.70636e-10
7.30856e-09
-5.57933e-10
7.30034e-09
-5.43597e-10
7.29279e-09
-5.28099e-10
7.28573e-09
-5.11191e-10
7.27934e-09
-4.93333e-10
7.27348e-09
-4.74301e-10
7.26828e-09
-4.54551e-10
7.26362e-09
-4.33879e-10
7.25966e-09
-4.12753e-10
7.25622e-09
-3.9097e-10
7.25351e-09
-3.69025e-10
7.25129e-09
-3.46686e-10
7.24988e-09
-3.24494e-10
7.24887e-09
-3.02134e-10
7.24876e-09
-2.80237e-10
7.24895e-09
-2.58411e-10
7.25008e-09
-2.37508e-10
7.25136e-09
-2.17152e-10
7.25351e-09
-1.98053e-10
7.25589e-09
-1.7941e-10
7.2593e-09
-1.61584e-10
7.26341e-09
-1.44216e-10
7.26861e-09
7.27451e-09
-1.27583e-10
-5.82368e-10
2.2643e-09
3.45361e-10
-7.12591e-10
1.88222e-09
-7.07448e-10
2.08055e-09
-5.8514e-10
2.65407e-09
-3.52771e-10
3.43916e-09
-5.11286e-11
4.27338e-09
2.96774e-10
5.03851e-09
7.29346e-10
5.63282e-09
1.21784e-09
5.86818e-09
1.56365e-09
5.53769e-09
1.77465e-09
4.78768e-09
1.83544e-09
3.7599e-09
1.73317e-09
2.6464e-09
1.50931e-09
1.68406e-09
1.22859e-09
1.09269e-09
9.60204e-10
1.07084e-09
7.84679e-10
1.80605e-09
7.92245e-10
3.44034e-09
1.04899e-09
5.96439e-09
1.52284e-09
9.05608e-09
2.0325e-09
1.20076e-08
2.3447e-09
1.40078e-08
2.33817e-09
1.46451e-08
2.05885e-09
1.41067e-08
1.64373e-09
1.29339e-08
1.22001e-09
1.16484e-08
8.55699e-10
1.0549e-08
5.6755e-10
9.72105e-09
3.45798e-10
9.13435e-09
1.74406e-10
8.72631e-09
3.86866e-11
8.43982e-09
-7.15865e-11
8.23381e-09
-1.63721e-10
8.08089e-09
-2.42015e-10
7.96403e-09
-3.09803e-10
7.87205e-09
-3.6874e-10
7.79814e-09
-4.20644e-10
7.73726e-09
-4.66141e-10
7.68644e-09
-5.06486e-10
7.64305e-09
-5.4162e-10
7.60587e-09
-5.72736e-10
7.573e-09
-5.99547e-10
7.54409e-09
-6.22781e-10
7.51796e-09
-6.42433e-10
7.49436e-09
-6.58917e-10
7.47261e-09
-6.72155e-10
7.45259e-09
-6.8255e-10
7.43382e-09
-6.89975e-10
7.41635e-09
-6.94816e-10
7.39976e-09
-6.96912e-10
7.3842e-09
-6.96652e-10
7.36933e-09
-6.93856e-10
7.35536e-09
-6.88919e-10
7.34197e-09
-6.81657e-10
7.32942e-09
-6.72467e-10
7.31741e-09
-6.61169e-10
7.30622e-09
-6.48158e-10
7.29558e-09
-6.33267e-10
7.28576e-09
-6.16885e-10
7.2765e-09
-5.9886e-10
7.26809e-09
-5.79585e-10
7.26024e-09
-5.58911e-10
7.25327e-09
-5.37257e-10
7.24687e-09
-5.14443e-10
7.24138e-09
-4.90973e-10
7.23644e-09
-4.66572e-10
7.23247e-09
-4.41898e-10
7.22899e-09
-4.165e-10
7.22657e-09
-3.91267e-10
7.22455e-09
-3.65483e-10
7.22368e-09
-3.40312e-10
7.2231e-09
-3.14773e-10
7.22375e-09
-2.90269e-10
7.22456e-09
-2.65826e-10
7.22655e-09
-2.42781e-10
7.22871e-09
-2.20264e-10
7.23199e-09
-1.9879e-10
7.23589e-09
-1.77855e-10
7.241e-09
-1.57731e-10
7.24704e-09
7.254e-09
-1.38402e-10
-4.90331e-10
2.49587e-09
2.58758e-10
-6.37646e-10
2.02948e-09
-6.69215e-10
2.11207e-09
-5.85055e-10
2.56985e-09
-3.92181e-10
3.24622e-09
-1.13151e-10
3.99429e-09
2.3609e-10
4.68921e-09
6.57257e-10
5.21156e-09
1.11105e-09
5.41433e-09
1.47535e-09
5.17328e-09
1.71015e-09
4.55287e-09
1.79307e-09
3.67688e-09
1.72161e-09
2.7178e-09
1.52795e-09
1.87753e-09
1.26555e-09
1.35503e-09
9.97302e-10
1.33882e-09
7.96549e-10
2.00675e-09
7.42408e-10
3.49429e-09
8.97094e-10
5.80967e-09
1.2525e-09
8.70049e-09
1.68317e-09
1.15769e-08
1.99481e-09
1.3696e-08
2.05429e-09
1.45856e-08
1.86225e-09
1.42986e-08
1.51775e-09
1.32784e-08
1.1346e-09
1.20314e-08
7.87256e-10
1.08964e-08
5.02934e-10
1.00052e-08
2.80225e-10
9.35709e-09
1.06501e-10
8.89986e-09
-3.11644e-11
8.57756e-09
-1.43286e-10
8.34578e-09
-2.36814e-10
8.17454e-09
-3.16783e-10
8.04386e-09
-3.85965e-10
7.94146e-09
-4.46809e-10
7.85882e-09
-5.00263e-10
7.79095e-09
-5.47863e-10
7.73376e-09
-5.89605e-10
7.68523e-09
-6.26857e-10
7.64274e-09
-6.59358e-10
7.60564e-09
-6.87798e-10
7.57241e-09
-7.12241e-10
7.54251e-09
-7.3311e-10
7.51513e-09
-7.50369e-10
7.48998e-09
-7.64381e-10
7.46652e-09
-7.7507e-10
7.44466e-09
-7.82778e-10
7.42399e-09
-7.87397e-10
7.40455e-09
-7.89265e-10
7.38602e-09
-7.88256e-10
7.36852e-09
-7.84721e-10
7.35178e-09
-7.78522e-10
7.33598e-09
-7.7002e-10
7.32088e-09
-7.59084e-10
7.30671e-09
-7.46077e-10
7.29321e-09
-7.30881e-10
7.28064e-09
-7.13856e-10
7.26878e-09
-6.94901e-10
7.25786e-09
-6.74376e-10
7.24767e-09
-6.52193e-10
7.23846e-09
-6.28723e-10
7.22998e-09
-6.03868e-10
7.22252e-09
-5.78054e-10
7.21578e-09
-5.51122e-10
7.21011e-09
-5.23615e-10
7.20512e-09
-4.95243e-10
7.20127e-09
-4.6674e-10
7.19803e-09
-4.37601e-10
7.19602e-09
-4.08808e-10
7.19451e-09
-3.796e-10
7.19432e-09
-3.51202e-10
7.19451e-09
-3.22696e-10
7.19605e-09
-2.95413e-10
7.19788e-09
-2.68561e-10
7.201e-09
-2.42984e-10
7.20465e-09
-2.17994e-10
7.20962e-09
-1.94014e-10
7.21549e-09
-1.70814e-10
7.22261e-09
7.23068e-09
-1.48611e-10
-4.1107e-10
2.72598e-09
1.80893e-10
-5.70994e-10
2.18936e-09
-6.2881e-10
2.16983e-09
-5.7589e-10
2.51687e-09
-4.14948e-10
3.08521e-09
-1.59257e-10
3.73853e-09
1.76721e-10
4.35317e-09
5.77669e-10
4.81054e-09
1.00057e-09
4.99135e-09
1.36087e-09
4.81293e-09
1.60713e-09
4.30654e-09
1.71191e-09
3.57204e-09
1.67211e-09
2.75747e-09
1.51204e-09
2.03749e-09
1.2753e-09
1.59159e-09
1.01753e-09
1.59651e-09
8.03792e-10
2.22026e-09
7.04736e-10
3.59327e-09
7.78426e-10
5.7357e-09
1.03235e-09
8.44652e-09
1.38135e-09
1.12277e-08
1.66959e-09
1.34077e-08
1.76616e-09
1.44889e-08
1.64199e-09
1.44227e-08
1.36193e-09
1.35583e-08
1.02236e-09
1.23709e-08
6.97313e-10
1.12213e-08
4.21563e-10
1.02809e-08
2.00677e-10
9.57784e-09
2.64068e-11
9.07409e-09
-1.12434e-10
8.7163e-09
-2.25637e-10
8.45898e-09
-3.20333e-10
8.26918e-09
-4.01313e-10
8.12498e-09
-4.71968e-10
8.01193e-09
-5.34022e-10
7.92103e-09
-5.8933e-10
7.84592e-09
-6.38085e-10
7.78296e-09
-6.8185e-10
7.72856e-09
-7.20426e-10
7.68142e-09
-7.5454e-10
7.63959e-09
-7.84244e-10
7.60217e-09
-8.09985e-10
7.56813e-09
-8.31761e-10
7.53696e-09
-8.49896e-10
7.50803e-09
-8.64365e-10
7.48107e-09
-8.75448e-10
7.45568e-09
-8.83096e-10
7.43175e-09
-8.87583e-10
7.40899e-09
-8.88841e-10
7.38741e-09
-8.87159e-10
7.3668e-09
-8.82461e-10
7.34723e-09
-8.75051e-10
7.32854e-09
-8.64854e-10
7.31086e-09
-8.52193e-10
7.29403e-09
-8.36998e-10
7.27821e-09
-8.19603e-10
7.26326e-09
-7.99948e-10
7.24936e-09
-7.78376e-10
7.23635e-09
-7.54838e-10
7.22443e-09
-7.29691e-10
7.21343e-09
-7.02876e-10
7.20356e-09
-6.748e-10
7.19461e-09
-6.45355e-10
7.18684e-09
-6.15043e-10
7.17995e-09
-5.83651e-10
7.17432e-09
-5.51848e-10
7.16949e-09
-5.19239e-10
7.16601e-09
-4.8672e-10
7.16324e-09
-4.5366e-10
7.16192e-09
-4.21194e-10
7.16118e-09
-3.88483e-10
7.16196e-09
-3.56828e-10
7.16322e-09
-3.25336e-10
7.166e-09
-2.95247e-10
7.16928e-09
-2.65683e-10
7.17412e-09
-2.37402e-10
7.17971e-09
-2.09902e-10
7.1868e-09
-1.83487e-10
7.19495e-09
7.20427e-09
-1.58166e-10
-3.41836e-10
2.95708e-09
1.10673e-10
-5.11598e-10
2.35907e-09
-5.89035e-10
2.24722e-09
-5.61411e-10
2.48919e-09
-4.27698e-10
2.95145e-09
-1.96357e-10
3.50713e-09
1.18261e-10
4.03849e-09
4.93707e-10
4.43503e-09
8.8737e-10
4.59762e-09
1.23424e-09
4.46599e-09
1.48372e-09
4.05699e-09
1.60596e-09
3.44971e-09
1.59465e-09
2.76868e-09
1.46706e-09
2.16496e-09
1.25843e-09
1.80008e-09
1.01653e-09
1.8383e-09
7.98666e-10
2.438e-09
6.67523e-10
3.72424e-09
6.77553e-10
5.72555e-09
8.45596e-10
8.27825e-09
1.11642e-09
1.09568e-08
1.36792e-09
1.31561e-08
1.4799e-09
1.43768e-08
1.40566e-09
1.44969e-08
1.18182e-09
1.3782e-08
8.85888e-10
1.26667e-08
5.86823e-10
1.15202e-08
3.23622e-10
1.0544e-08
1.07365e-10
9.79392e-09
-6.57556e-11
9.24719e-09
-2.04879e-10
8.85527e-09
-3.18631e-10
8.57278e-09
-4.14107e-10
8.36463e-09
-4.96101e-10
8.20688e-09
-5.67702e-10
8.08359e-09
-6.31273e-10
7.98428e-09
-6.87554e-10
7.90251e-09
-7.38173e-10
7.83312e-09
-7.83202e-10
7.77362e-09
-8.23331e-10
7.72138e-09
-8.58748e-10
7.67498e-09
-8.89785e-10
7.63309e-09
-9.16579e-10
7.59489e-09
-9.39307e-10
7.55962e-09
-9.58092e-10
7.5268e-09
-9.7304e-10
7.49599e-09
-9.8427e-10
7.46692e-09
-9.9186e-10
7.43933e-09
-9.95929e-10
7.41309e-09
-9.96558e-10
7.38805e-09
-9.93872e-10
7.36415e-09
-9.87965e-10
7.34134e-09
-9.7897e-10
7.3196e-09
-9.67001e-10
7.29891e-09
-9.52204e-10
7.27931e-09
-9.3471e-10
7.26076e-09
-9.14676e-10
7.24334e-09
-8.92253e-10
7.22701e-09
-8.67599e-10
7.21187e-09
-8.40896e-10
7.19785e-09
-8.12283e-10
7.18508e-09
-7.81998e-10
7.17344e-09
-7.50127e-10
7.16311e-09
-7.17007e-10
7.15388e-09
-6.82613e-10
7.14604e-09
-6.47457e-10
7.13923e-09
-6.11321e-10
7.1339e-09
-5.74964e-10
7.12951e-09
-5.3791e-10
7.1267e-09
-5.01204e-10
7.12471e-09
-4.64094e-10
7.12438e-09