/*--------------------------------*- C++ -*----------------------------------*\
  =========                 |
  \\      /  F ield         | OpenFOAM: The Open Source CFD Toolbox
   \\    /   O peration     | Website:  https://openfoam.org
    \\  /    A nd           | Version:  7
     \\/     M anipulation  |
\*---------------------------------------------------------------------------*/
FoamFile
{
    version     2.0;
    format      ascii;
    class       volVectorField;
    location    "25";
    object      U;
}
// * * * * * * * * * * * * * * * * * * * * * * * * * * * * * * * * * * * * * //

dimensions      [0 1 -1 0 0 0 0];

internalField   nonuniform List<vector> 
49920
(
(-0.00643678 0.000391626 -1.03e-29)
(-0.0133596 0.00491906 7.58674e-30)
(-0.00522501 0.00461889 4.4011e-29)
(-0.00347464 0.00613954 -6.18263e-29)
(-0.000747964 0.00599026 -4.43075e-29)
(-0.00190114 0.00881697 -6.83147e-29)
(-0.00166315 0.00615246 -4.28291e-29)
(-0.000108918 0.0039017 0)
(0.000926755 0.00480289 -6.15745e-29)
(0.00272704 0.00737031 -1.76403e-29)
(0.00218953 0.00653424 1.69115e-28)
(0.00284788 0.00480941 0)
(0.00587584 0.00434762 2.80655e-28)
(0.00672513 0.00217332 9.12105e-36)
(0.0142853 0.000195343 0)
(0.0078268 -0.00199974 -2.05391e-28)
(0.0438579 0.00210657 -3.57519e-28)
(0.0258499 0.00948032 2.19725e-29)
(0.013582 0.0125694 0)
(0.010193 0.0128553 2.46242e-29)
(0.00826895 0.0129726 2.46325e-29)
(0.00733463 0.0131209 5.98402e-30)
(0.00710316 0.0131554 0)
(0.00711579 0.0131161 -5.43471e-30)
(0.00722425 0.0130393 9.1812e-31)
(0.00738431 0.0129397 -1.00219e-32)
(0.00757342 0.0128244 -2.07503e-30)
(0.00777905 0.0126971 0)
(0.00799429 0.0125603 0)
(0.00821504 0.0124153 0)
(0.00843872 0.0122632 0)
(0.00866352 0.0121045 0)
(0.00888824 0.0119398 0)
(0.00911197 0.0117695 -8.33844e-31)
(0.00933408 0.0115937 5.2964e-31)
(0.00955407 0.0114128 -6.35806e-31)
(0.00977155 0.0112269 -5.18273e-33)
(0.00998619 0.0110362 5.81659e-31)
(0.0101977 0.0108409 -6.4069e-31)
(0.0104059 0.010641 -3.53722e-40)
(0.0106106 0.0104368 -4.15989e-40)
(0.0108117 0.0102283 6.44391e-31)
(0.0110089 0.0100156 -5.01471e-31)
(0.0112022 0.00979882 1.61007e-31)
(0.0113915 0.00957808 6.46587e-31)
(0.0115765 0.00935344 -7.97584e-31)
(0.0117573 0.00912503 4.94032e-31)
(0.0119338 0.0088929 0)
(0.0121059 0.00865712 0)
(0.0122736 0.00841788 0)
(0.0124364 0.00817509 0)
(0.0125949 0.00792918 0)
(0.0127481 0.00767981 0)
(0.012897 0.00742761 3.38298e-34)
(0.0130403 0.00717211 -1.28946e-32)
(0.0131793 0.00691409 -1.27033e-30)
(0.0133127 0.00665286 -4.05828e-32)
(0.0134415 0.00638922 0)
(0.0135647 0.00612272 -4.6513e-32)
(0.0136831 0.00585396 -1.03472e-31)
(0.0137957 0.0055826 -5.56425e-32)
(0.0139035 0.00530923 0)
(0.0140054 0.00503351 0)
(0.0141024 0.00475606 6.70573e-32)
(0.0141932 0.00447652 5.5618e-32)
(0.0142792 0.00419555 0)
(0.0143589 0.00391284 1.82205e-39)
(0.0144337 0.00362898 6.24814e-31)
(0.0145021 0.0033437 0)
(0.0145656 0.00305755 3.10227e-31)
(0.0146226 0.00277035 -2.12174e-31)
(0.0146746 0.0024825 -2.41702e-31)
(0.0147203 0.0021939 0)
(0.0147607 0.0019049 -3.02771e-31)
(0.0147951 0.00161543 -3.37566e-31)
(0.014824 0.00132574 1.08067e-31)
(0.0148472 0.00103582 5.00809e-32)
(0.0148645 0.000745841 7.2245e-33)
(0.0148765 0.000455562 -7.83782e-32)
(0.0148823 0.000165274 4.44164e-32)
(-0.00339495 0.000340159 0)
(-0.00762964 0.0102769 0)
(-0.00420712 0.0114292 7.17174e-29)
(-0.00380113 0.0115659 -2.9686e-29)
(-0.0024759 0.0118314 -1.6785e-28)
(-0.0022724 0.0229872 -3.45008e-28)
(0.000654453 0.0104495 -1.49157e-28)
(0.00301131 0.0185705 5.65797e-30)
(0.00196869 0.0139553 0)
(0.00227002 0.0134704 -1.62004e-28)
(0.00504448 0.014297 3.25007e-28)
(0.0058589 0.0109073 -3.02378e-28)
(0.00715917 0.0090638 5.32069e-28)
(0.00927077 0.00811144 3.51372e-28)
(0.0126628 0.00727541 -2.58732e-28)
(0.00430155 -0.000926847 0)
(0.0285202 0.0100273 0)
(0.0309225 0.0152444 3.95796e-29)
(0.0246605 0.0166939 3.82458e-30)
(0.0184345 0.0151146 -1.1665e-29)
(0.0132915 0.0136431 -4.05546e-30)
(0.0101789 0.0130347 0)
(0.00875558 0.0128157 0)
(0.00812231 0.0127171 0)
(0.00785082 0.0126418 2.8166e-31)
(0.00777344 0.0125602 -2.834e-30)
(0.00780501 0.0124664 -2.0977e-30)
(0.0079003 0.0123605 9.38849e-31)
(0.00803498 0.0122434 -1.034e-30)
(0.00819498 0.0121166 -1.09962e-30)
(0.00837151 0.0119808 0)
(0.00855896 0.0118372 -4.70608e-31)
(0.00875341 0.0116864 -3.02473e-31)
(0.00895228 0.0115288 0)
(0.00915359 0.011365 2.36643e-30)
(0.00935604 0.0111954 1.22916e-30)
(0.00955846 0.0110201 3.40527e-33)
(0.00976013 0.0108396 -1.20288e-30)
(0.00996034 0.0106539 4.7047e-40)
(0.0101587 0.0104633 -1.97757e-40)
(0.0103547 0.010268 -2.3142e-40)
(0.010548 0.0100681 7.81516e-40)
(0.0107384 0.00986361 1.15513e-30)
(0.0109256 0.00965485 -1.76117e-31)
(0.0111094 0.00944182 -1.46159e-30)
(0.0112896 0.0092247 -2.80225e-30)
(0.0114661 0.00900354 0)
(0.0116388 0.00877851 -1.27474e-31)
(0.0118075 0.00854957 -1.22709e-31)
(0.0119721 0.00831681 0)
(0.0121326 0.00808048 1.30401e-30)
(0.0122884 0.00784043 1.30442e-30)
(0.0124402 0.00759713 -1.3069e-30)
(0.0125869 0.00735025 -5.3646e-34)
(0.0127295 0.00710042 1.02542e-32)
(0.0128668 0.00684715 1.31021e-30)
(0.0129998 0.00659116 0)
(0.0131273 0.00633201 0)
(0.0132504 0.00607026 0)
(0.0133679 0.00580558 -6.56219e-31)
(0.0134808 0.00553855 -6.58038e-31)
(0.0135879 0.00526885 -7.40914e-32)
(0.0136904 0.00499706 5.92694e-31)
(0.0137868 0.00472288 0)
(0.0138786 0.00444692 0)
(0.0139641 0.00416889 5.8719e-32)
(0.0140449 0.00388939 1.32166e-30)
(0.0141193 0.0036082 1.28547e-30)
(0.014189 0.00332584 -6.39509e-31)
(0.0142521 0.00304215 5.74386e-31)
(0.0143104 0.00275764 -7.57139e-31)
(0.0143623 0.00247218 0)
(0.0144091 0.0021862 1.18056e-31)
(0.0144497 0.00189965 -3.51995e-33)
(0.014485 0.00161288 -1.16243e-31)
(0.0145143 0.00132584 1.1142e-31)
(0.0145381 0.00103894 1.33503e-31)
(0.0145561 0.000751914 1.56041e-31)
(0.0145683 0.000464834 0)
(0.014575 0.000177725 0)
(-0.00455677 -0.00440191 2.56066e-31)
(1.59883e-05 0.00359246 -6.72455e-32)
(-0.00229362 0.0046946 5.84273e-29)
(-0.00561255 0.0116722 0)
(-0.00292654 0.0115366 -7.16486e-29)
(-0.000995142 0.0131019 1.64613e-28)
(0.000739204 0.00786854 4.42984e-30)
(0.0016768 0.0113184 -1.40583e-30)
(0.00228525 0.018077 -1.18047e-29)
(0.00137633 0.0123354 -6.36349e-28)
(0.00330317 0.0107441 -2.33137e-29)
(0.00550472 0.0103011 -7.24113e-28)
(0.00776796 0.00873987 2.50606e-28)
(0.00759289 0.00534838 2.92813e-29)
(0.00547295 0.00312134 -1.15035e-28)
(0.0135706 -0.00659917 0)
(0.013314 0.00407207 0)
(0.0227148 0.0156333 1.33826e-36)
(0.0260187 0.0200925 5.45657e-30)
(0.0227873 0.0188598 -1.15944e-29)
(0.0173822 0.016183 -2.95481e-30)
(0.0130774 0.014268 -6.8399e-30)
(0.0105751 0.0132558 -3.81918e-30)
(0.00924733 0.0127732 -2.03027e-30)
(0.00855712 0.0125247 -9.82442e-31)
(0.00821861 0.0123649 0)
(0.00807801 0.0122366 0)
(0.00805379 0.0121172 3.50091e-31)
(0.00810195 0.0119972 -4.52737e-38)
(0.00819697 0.0118729 -1.46815e-30)
(0.00832338 0.0117427 -1.34441e-30)
(0.00847111 0.0116062 8.48211e-31)
(0.00863361 0.0114633 0)
(0.00880617 0.0113141 9.43021e-31)
(0.00898567 0.0111589 9.75626e-31)
(0.00916963 0.0109977 1.51778e-40)
(0.00935638 0.010831 -1.98115e-32)
(0.00954446 0.0106587 -2.15635e-30)
(0.00973297 0.0104812 9.64752e-31)
(0.00992098 0.0102986 9.32037e-31)
(0.010108 0.0101112 -9.46478e-31)
(0.0102933 0.00991882 -9.2138e-31)
(0.0104766 0.00972188 1.24947e-30)
(0.0106575 0.00952033 1.79147e-31)
(0.0108357 0.00931442 -1.26144e-39)
(0.0110109 0.00910416 -1.11587e-30)
(0.0111832 0.00888977 -1.11423e-30)
(0.0113519 0.00867109 0)
(0.0115172 0.00844844 -1.10506e-30)
(0.0116786 0.00822174 1.04209e-30)
(0.0118362 0.0079912 1.03046e-30)
(0.01199 0.00775705 1.94716e-39)
(0.0121393 0.007519 1.14489e-30)
(0.0122845 0.00727759 0)
(0.0124253 0.00703272 0)
(0.0125616 0.00678453 -1.1307e-30)
(0.0126932 0.00653312 -1.12522e-30)
(0.0128201 0.00627863 -1.1375e-30)
(0.0129422 0.00602114 -1.13125e-30)
(0.0130594 0.00576082 1.19416e-31)
(0.0131715 0.00549774 -3.8735e-31)
(0.0132787 0.0052321 6.22143e-32)
(0.0133806 0.004964 -4.55626e-39)
(0.0134773 0.00469362 0)
(0.0135686 0.00442111 0)
(0.0136546 0.00414665 -5.68686e-31)
(0.0137352 0.00387047 6.01384e-31)
(0.0138102 0.00359267 1.14677e-30)
(0.0138798 0.00331352 -1.14368e-30)
(0.0139436 0.00303312 -6.88196e-32)
(0.0140021 0.00275177 -1.02887e-30)
(0.0140547 0.00246954 8.87715e-32)
(0.014102 0.00218671 -1.1576e-31)
(0.0141432 0.00190335 -1.55519e-31)
(0.0141793 0.00161971 2.63216e-31)
(0.0142091 0.00133594 0)
(0.0142339 0.00105222 0)
(0.0142523 0.00076855 1.28069e-31)
(0.0142657 0.000484902 4.0892e-32)
(0.014273 0.000201255 2.98462e-32)
(-0.000917752 -0.00311523 8.18462e-31)
(-0.00158126 0.00895131 -5.02453e-31)
(-0.00312324 0.0251578 3.86329e-29)
(0.000271096 0.00485425 -3.07219e-29)
(0.000562968 0.00689053 0)
(0.000627436 0.00566538 -1.6147e-38)
(0.000559728 0.00431492 0)
(0.000806111 0.00584696 0)
(-0.00162286 0.00713808 0)
(-0.00152667 0.00818661 -2.77629e-28)
(0.00155291 0.00779097 -4.05847e-28)
(0.0024481 0.00705851 -1.8962e-28)
(0.00451875 0.00482057 2.95033e-28)
(0.00240923 0.00183171 1.4723e-29)
(0.0123441 0.00834946 -5.99734e-29)
(0.00726665 -0.00124028 1.77344e-29)
(0.0064565 0.00277536 0)
(0.0148338 0.0133028 1.65588e-30)
(0.0221917 0.0201813 -7.77873e-30)
(0.0231122 0.0211133 -1.96713e-29)
(0.0196915 0.0188258 -3.65445e-30)
(0.0154738 0.0161674 -7.18202e-30)
(0.0123139 0.014305 -6.72316e-30)
(0.0103756 0.013253 -5.18498e-30)
(0.00927848 0.012689 -3.75184e-30)
(0.00867999 0.0123627 -2.45356e-30)
(0.00836772 0.0121456 -9.22286e-33)
(0.00822479 0.011978 1.08012e-30)
(0.00818708 0.011832 2.90372e-38)
(0.00821761 0.0116943 3.20741e-31)
(0.00829404 0.0115583 -8.95649e-31)
(0.00840211 0.0114205 2.19067e-31)
(0.00853249 0.0112793 -6.15328e-31)
(0.00867864 0.0111336 6.75701e-31)
(0.00883609 0.0109831 5.70735e-32)
(0.00900144 0.0108275 -7.7454e-31)
(0.0091723 0.0106667 -6.1542e-32)
(0.00934671 0.0105007 -8.93383e-31)
(0.00952333 0.0103297 5.97502e-31)
(0.00970095 0.0101536 -1.46774e-31)
(0.00987879 0.00997263 1.46196e-31)
(0.010056 0.00978681 -5.51816e-31)
(0.0102322 0.00959629 1.81368e-31)
(0.0104068 0.00940109 1.66902e-31)
(0.0105794 0.00920144 3.52543e-31)
(0.0107497 0.0089973 1.75684e-31)
(0.0109173 0.0087887 -9.06692e-31)
(0.0110823 0.00857591 9.03933e-31)
(0.0112438 0.00835868 -1.0035e-30)
(0.0114023 0.00813757 1.80075e-30)
(0.0115571 0.00791227 9.92045e-31)
(0.0117084 0.00768312 1.82992e-30)
(0.0118556 0.00745003 2.22014e-32)
(0.011999 0.00721341 1.82213e-32)
(0.0121381 0.00697303 9.24409e-31)
(0.0122732 0.00672928 -9.27128e-31)
(0.0124035 0.00648198 -8.91959e-31)
(0.0125297 0.00623158 -8.91298e-31)
(0.0126509 0.00597789 -9.54321e-31)
(0.0127676 0.00572135 -1.13716e-31)
(0.0128792 0.00546176 -2.40734e-31)
(0.0129862 0.00519962 -5.26255e-32)
(0.0130877 0.00493473 -4.18087e-31)
(0.0131845 0.00466762 0)
(0.0132756 0.0043981 -7.15838e-32)
(0.013362 0.00412674 -9.4506e-31)
(0.0134424 0.00385336 5.12699e-31)
(0.013518 0.00357852 9.39232e-31)
(0.0135875 0.00330207 -4.67341e-31)
(0.0136522 0.00302456 -8.64455e-31)
(0.0137106 0.00274588 -3.44139e-31)
(0.0137642 0.0024665 0)
(0.0138115 0.00218638 0)
(0.0138539 0.00190588 0)
(0.0138901 0.00162504 2.15518e-31)
(0.0139212 0.00134424 0)
(0.0139462 0.00106349 -1.2718e-31)
(0.0139658 0.00078306 -7.45447e-32)
(0.0139797 0.000502665 8.17804e-32)
(0.0139883 0.000222388 -1.24592e-32)
(-0.00156899 -0.00212237 3.02798e-32)
(-0.00162683 0.00496205 3.68965e-32)
(0.000805534 0.0166706 0)
(0.00408503 0.0114701 -1.23264e-30)
(0.00356405 0.0198224 0)
(0.00400581 0.021088 2.07333e-37)
(0.00323946 0.0149563 -1.02954e-29)
(0.00314632 0.0213379 0)
(0.00311589 0.0335519 -1.97624e-28)
(0.000400699 0.00226764 -5.98135e-29)
(0.00125595 0.00626757 2.52352e-31)
(0.00107307 0.0045369 -1.18473e-28)
(0.000521924 0.00200324 5.28131e-29)
(0.00430869 0.00668043 3.89649e-29)
(0.00535759 0.00316731 0)
(0.00430436 -0.000960016 1.33382e-29)
(0.00474802 0.00227513 -3.33936e-30)
(0.00994235 0.010642 1.30676e-29)
(0.0173252 0.0183501 3.39465e-29)
(0.0210792 0.0215154 1.05411e-29)
(0.0202281 0.0206046 -7.46751e-30)
(0.0170342 0.0180255 -5.70379e-30)
(0.0137793 0.0156212 3.96016e-30)
(0.0114251 0.0140071 0)
(0.00996712 0.0130599 0)
(0.00911997 0.0125077 1.11915e-30)
(0.00864227 0.0121611 -6.44523e-31)
(0.00838616 0.0119185 2.96769e-31)
(0.00826715 0.0117281 6.71525e-31)
(0.00823678 0.0115641 3.05497e-31)
(0.0082657 0.0114127 4.28097e-32)
(0.00833594 0.0112666 -4.14899e-31)
(0.00843529 0.0111216 -9.77879e-31)
(0.00855587 0.0109753 -4.9878e-31)
(0.00869163 0.0108261 -6.14387e-31)
(0.00883872 0.0106734 6.56047e-31)
(0.0089937 0.0105163 0)
(0.00915454 0.010355 -8.30096e-31)
(0.00931912 0.0101889 7.35206e-31)
(0.00948637 0.0100182 9.37184e-31)
(0.00965484 0.00984267 -9.5759e-31)
(0.00982399 0.00966258 -8.26682e-31)
(0.00999276 0.00947765 1.01934e-30)
(0.010161 0.00928828 0)
(0.0103277 0.00909412 -1.67919e-30)
(0.0104929 0.00889558 8.33155e-31)
(0.0106559 0.00869245 9.77556e-31)
(0.0108165 0.00848487 1.68147e-30)
(0.0109747 0.00827312 8.27139e-31)
(0.0111296 0.00805689 -9.3559e-31)
(0.0112816 0.00783664 -7.90588e-31)
(0.0114302 0.00761221 1.76404e-30)
(0.0115753 0.00738386 8.6832e-31)
(0.0117166 0.0071516 -8.65954e-31)
(0.0118541 0.0069156 8.78736e-31)
(0.0119875 0.00667588 0)
(0.0121168 0.00643266 0)
(0.0122417 0.00618597 8.86367e-31)
(0.0123622 0.00593603 -9.02999e-31)
(0.0124781 0.0056829 -8.98426e-31)
(0.0125893 0.00542679 1.2511e-31)
(0.0126956 0.00516778 1.16615e-30)
(0.0127972 0.00490612 1.30461e-31)
(0.0128936 0.00464191 4.54275e-31)
(0.012985 0.00437541 0)
(0.013071 0.00410676 -4.51094e-31)
(0.0131519 0.0038362 4.0484e-31)
(0.0132274 0.00356394 4.26927e-31)
(0.0132976 0.00329019 -4.43277e-31)
(0.0133623 0.00301519 4.68397e-32)
(0.0134215 0.00273912 1.05021e-31)
(0.0134753 0.00246225 0)
(0.0135235 0.00218473 0)
(0.0135663 0.00190679 -2.03955e-31)
(0.0136034 0.00162863 0)
(0.0136352 0.00135047 0)
(0.0136609 0.00107264 0)
(0.0136814 0.000795159 0)
(0.0136962 0.000517884 -7.95233e-32)
(0.0137058 0.000240697 -8.80342e-32)
(-0.00231991 -0.000487975 -5.34788e-31)
(-0.00276392 0.00327208 8.07733e-31)
(0.000511507 0.00826234 -8.65055e-32)
(0.00258993 0.00597621 -1.25685e-30)
(0.00258251 0.011028 1.73673e-30)
(0.00367772 0.0125605 -3.1009e-29)
(0.00333476 0.00929123 -1.11474e-30)
(0.00360296 0.0147099 -1.64574e-29)
(0.00538303 0.0239458 3.24952e-29)
(0.00321065 0.00743075 2.47869e-29)
(0.00212447 0.0163613 4.0074e-29)
(0.00190928 0.0137439 -4.19426e-29)
(-0.000609789 0.00560404 -7.03378e-30)
(-9.02686e-05 0.00249353 -1.62332e-29)
(0.00184435 0.000801629 -6.82989e-30)
(0.00282448 -0.000209231 -3.34394e-30)
(0.00364109 0.00232831 -9.58839e-31)
(0.00707752 0.00873667 2.50055e-32)
(0.0132467 0.0161535 -8.02838e-30)
(0.0182084 0.0207728 0)
(0.0194577 0.0214116 -5.2928e-30)
(0.017681 0.0194878 -7.78586e-30)
(0.0148372 0.0169492 2.00695e-30)
(0.012334 0.0149094 1.14065e-31)
(0.010601 0.013577 -3.95274e-31)
(0.00952619 0.0127654 0)
(0.00889019 0.0122606 -1.16324e-30)
(0.00852618 0.0119225 -9.0474e-32)
(0.00833115 0.0116738 1.1755e-31)
(0.00824426 0.0114732 0)
(0.00822954 0.0112991 -2.11239e-31)
(0.0082646 0.0111389 1.3104e-31)
(0.00833518 0.0109857 -3.57504e-31)
(0.00843147 0.0108351 -4.83433e-31)
(0.0085468 0.0106845 -1.0853e-30)
(0.00867611 0.0105322 5.87249e-31)
(0.00881589 0.0103773 -7.4224e-31)
(0.00896324 0.0102188 -1.47099e-30)
(0.00911617 0.0100566 0)
(0.00927288 0.00989004 -3.50498e-40)
(0.00943221 0.00971924 -3.71866e-40)
(0.00959299 0.00954392 0)
(0.00975462 0.00936417 1.72448e-30)
(0.009916 0.00917965 9.7232e-31)
(0.0100771 0.00899084 -7.79064e-31)
(0.0102366 0.00879717 1.58237e-30)
(0.010395 0.00859932 7.82442e-31)
(0.0105513 0.00839671 9.18629e-31)
(0.0107054 0.00818982 -9.06598e-31)
(0.0108569 0.00797843 8.02318e-31)
(0.0110059 0.00776293 8.01897e-31)
(0.0111516 0.007543 8.17749e-31)
(0.0112944 0.00731916 7.81753e-31)
(0.0114334 0.00709106 -8.71791e-31)
(0.0115692 0.00685927 0)
(0.0117007 0.00662343 1.55704e-32)
(0.0118288 0.00638413 2.06795e-32)
(0.0119523 0.00614103 7.99217e-31)
(0.012072 0.00589474 -9.18418e-31)
(0.0121869 0.00564491 -8.72328e-31)
(0.0122977 0.00539219 0)
(0.0124033 0.00513624 7.49266e-31)
(0.0125047 0.00487773 1.71638e-32)
(0.0126005 0.00461635 1.02102e-30)
(0.0126922 0.0043528 4.36631e-31)
(0.0127779 0.00408678 3.7506e-31)
(0.0128593 0.00381902 -9.52567e-32)
(0.0129346 0.00354923 -2.21701e-32)
(0.0130055 0.00327816 -4.21634e-31)
(0.0130701 0.00300555 4.69844e-31)
(0.0131302 0.00273208 4.109e-31)
(0.013184 0.00245758 0)
(0.0132333 0.00218261 1.9887e-31)
(0.0132763 0.00190713 -1.36951e-31)
(0.0133147 0.00163153 -1.54463e-31)
(0.0133468 0.00135596 -4.13041e-31)
(0.0133738 0.00108096 -2.46343e-31)
(0.0133948 0.000806274 -1.39354e-31)
(0.0134107 0.000531946 -1.56879e-31)
(0.0134214 0.000257687 2.02931e-32)
(-0.00220959 0.000895466 -1.98049e-31)
(-0.002751 0.003043 4.97556e-31)
(-0.000706397 0.00591882 0)
(0.000446255 0.00573481 0)
(0.0010022 0.00857392 -1.14443e-30)
(0.00275257 0.00968009 -1.65907e-30)
(0.00280355 0.00886162 -2.5068e-30)
(0.00275567 0.0120775 -3.22065e-30)
(0.0056279 0.0157938 0)
(0.00441025 0.00694979 0)
(0.00196417 0.00957351 1.69173e-29)
(0.00239269 0.00739158 0)
(0.00111594 0.00229466 0)
(0.000677886 0.000423857 0)
(0.00137258 -0.000204442 -3.56441e-30)
(0.00191208 -0.000242899 -2.74553e-30)
(0.00276264 0.00212031 -2.67556e-30)
(0.00536851 0.00739608 -5.65832e-30)
(0.0102872 0.0141658 -7.66273e-30)
(0.0153642 0.0194813 -2.54443e-30)
(0.0179445 0.0214315 6.49527e-30)
(0.0175433 0.0204321 -6.37714e-32)
(0.0154231 0.0181164 -1.7377e-30)
(0.0130394 0.0158529 -8.43485e-31)
(0.0111555 0.0141907 0)
(0.00989288 0.0131123 8.99895e-31)
(0.00910971 0.0124299 -3.23686e-31)
(0.00864283 0.0119806 3.63032e-31)
(0.00837602 0.0116624 -7.641e-33)
(0.00823703 0.0114177 0)
(0.00818247 0.0112149 -2.76879e-31)
(0.00818575 0.0110363 -2.60443e-32)
(0.00823007 0.0108713 2.58635e-32)
(0.00830421 0.0107135 4.07428e-31)
(0.00840049 0.0105592 4.31062e-39)
(0.00851329 0.0104055 -1.27515e-31)
(0.00863855 0.0102508 -7.13993e-31)
(0.00877313 0.010094 -5.87402e-31)
(0.00891468 0.00993423 0)
(0.00906127 0.00977098 -6.45967e-31)
(0.00921153 0.00960395 6.68294e-31)
(0.0093643 0.00943277 0)
(0.00951843 0.00925721 6.9471e-31)
(0.00967348 0.00907742 8.81825e-31)
(0.00982808 0.00889285 1.91137e-31)
(0.0099828 0.00870429 7.03349e-39)
(0.0101358 0.00851064 0)
(0.0102878 0.008313 5.92843e-31)
(0.0104377 0.00811046 6.05103e-31)
(0.0105859 0.00790382 7.35803e-31)
(0.0107313 0.00769245 7.45562e-31)
(0.0108745 0.00747708 -6.91668e-31)
(0.0110143 0.00725711 7.77588e-31)
(0.0111515 0.00703332 -7.15714e-32)
(0.0112848 0.00680513 7.49937e-31)
(0.0114151 0.00657336 0)
(0.0115411 0.00633742 -2.90225e-32)
(0.0116638 0.00609813 7.09369e-31)
(0.0117818 0.00585492 1.58149e-32)
(0.0118964 0.00560867 7.64822e-32)
(0.0120057 0.00535878 0)
(0.0121115 0.00510618 -9.51272e-31)
(0.0122117 0.00485028 -1.24821e-31)
(0.0123081 0.00459204 4.14211e-31)
(0.0123986 0.00433091 4.16395e-31)
(0.0124853 0.00406784 8.25438e-31)
(0.0125657 0.00380236 0)
(0.0126422 0.00353537 0)
(0.0127123 0.00326649 0)
(0.0127784 0.00299653 -3.96426e-31)
(0.012838 0.00272525 3.93593e-31)
(0.0128932 0.0024533 0)
(0.0129423 0.00218059 1.90202e-31)
(0.0129868 0.00190755 1.83834e-31)
(0.0130253 0.0016343 1.80164e-31)
(0.0130587 0.00136145 1.73376e-31)
(0.0130862 0.00108891 0)
(0.0131082 0.00081709 0)
(0.0131254 0.000545445 -1.13905e-31)
(0.0131374 0.000273974 -6.45748e-32)
(-0.00178159 0.00177537 0)
(-0.00214125 0.00290785 4.7422e-31)
(-0.00113879 0.0050697 2.73049e-31)
(-0.000339103 0.00618835 2.4789e-31)
(0.000434416 0.00865469 5.97354e-31)
(0.00195833 0.00993393 -1.78844e-31)
(0.0023359 0.0102938 0)
(0.0024476 0.0125083 3.93409e-30)
(0.00500918 0.0139898 0)
(0.00467462 0.00897645 0)
(0.00319391 0.0083186 -8.97766e-31)
(0.0037193 0.00591763 -1.10573e-30)
(0.00302898 0.00243744 0)
(0.00197585 0.000432508 1.30504e-30)
(0.00155943 -0.000451292 -2.04958e-30)
(0.00157534 -0.000235999 4.34448e-31)
(0.00224596 0.001932 8.97646e-32)
(0.00431308 0.00642577 -3.62317e-30)
(0.00823148 0.0124892 1.17363e-30)
(0.0129099 0.0179948 -7.0382e-31)
(0.0161545 0.0209002 1.92471e-30)
(0.0168555 0.0208621 0)
(0.015559 0.0190135 1.97422e-30)
(0.0134981 0.0167383 -1.43358e-30)
(0.0116011 0.0148448 -6.57229e-31)
(0.0102099 0.0135211 5.20699e-31)
(0.00929896 0.0126545 1.09865e-32)
(0.00873573 0.0120832 3.93749e-31)
(0.008401 0.0116868 -1.73582e-31)
(0.00821356 0.011392 0)
(0.00812275 0.0111564 -9.10654e-32)
(0.0080975 0.0109559 -1.90699e-31)
(0.00811835 0.0107765 0)
(0.0081726 0.0106095 6.79542e-31)
(0.00825162 0.0104494 3.94538e-31)
(0.00834929 0.0102927 0)
(0.00846112 0.010137 1.89847e-31)
(0.00858372 0.00998061 7.29562e-31)
(0.00871449 0.00982236 0)
(0.00885144 0.00966151 -5.70232e-31)
(0.00899302 0.00949741 5.87314e-31)
(0.00913777 0.00932954 0)
(0.00928493 0.00915784 -8.1193e-31)
(0.00943298 0.00898168 -8.39001e-31)
(0.00958226 0.00880171 0)
(0.00973082 0.00861671 6.3496e-31)
(0.00987929 0.00842778 0)
(0.0100265 0.00823401 6.52175e-31)
(0.0101727 0.00803602 6.61882e-31)
(0.0103168 0.00783321 0)
(0.0104593 0.00762622 0)
(0.0105991 0.0074145 -6.8663e-31)
(0.0107366 0.00719873 6.44062e-31)
(0.0108709 0.00697838 -1.38001e-32)
(0.0110026 0.00675418 7.44885e-31)
(0.0111304 0.00652561 -3.12731e-34)
(0.0112554 0.00629343 -6.69805e-33)
(0.0113761 0.00605711 7.34652e-31)
(0.0114936 0.00581745 0)
(0.0116063 0.00557392 7.51721e-31)
(0.0117157 0.00532737 0)
(0.0118199 0.00507728 -7.66579e-31)
(0.0119205 0.00482452 -1.36179e-31)
(0.0120156 0.0045686 1.52421e-32)
(0.012107 0.00431043 1.31495e-31)
(0.0121925 0.00404955 4.57559e-31)
(0.0122741 0.00378684 -3.38211e-31)
(0.0123496 0.00352195 0)
(0.0124211 0.00325568 3.81116e-31)
(0.0124864 0.00298782 -7.55317e-31)
(0.0125474 0.00271899 -3.71203e-31)
(0.0126024 0.00244918 -3.67208e-31)
(0.0126528 0.00217878 3.57374e-31)
(0.0126975 0.00190794 0)
(0.0127372 0.00163716 1.5709e-31)
(0.0127712 0.00136657 3.58379e-31)
(0.0127994 0.00109685 -1.13798e-31)
(0.0128228 0.000827445 -5.58218e-32)
(0.0128409 0.000558397 -6.92509e-32)
(0.0128546 0.000289574 0)
(-0.00140087 0.0023547 9.22574e-33)
(-0.00166507 0.00275952 -4.90131e-32)
(-0.00117826 0.00426533 -2.70003e-31)
(-0.000547281 0.00576451 0)
(0.000227343 0.00790027 4.38881e-31)
(0.00138134 0.00941436 1.07858e-31)
(0.00201234 0.0104241 0)
(0.00250716 0.0121678 6.52394e-31)
(0.00436966 0.0130845 0)
(0.00464721 0.0102509 0)
(0.00409602 0.00864805 -2.13508e-30)
(0.00421267 0.00609609 1.60242e-30)
(0.00356784 0.00301511 -2.64093e-32)
(0.00252629 0.000813134 1.07508e-30)
(0.00180611 -0.000256247 2.13055e-31)
(0.00155592 -5.13811e-05 1.04948e-30)
(0.00201103 0.00186705 2.62002e-30)
(0.00364992 0.00574391 4.84802e-30)
(0.00680951 0.0111388 3.37837e-32)
(0.0109326 0.0165357 -4.6882e-30)
(0.0143848 0.0200488 -4.07362e-30)
(0.0158543 0.0208643 -8.30919e-30)
(0.0153289 0.0196017 -7.23943e-30)
(0.0137038 0.0174913 -5.77969e-31)
(0.0119152 0.0154836 0)
(0.0104648 0.0139606 0)
(0.00945433 0.0129174 -4.62599e-31)
(0.00880458 0.0122196 2.34432e-31)
(0.0084061 0.0117394 -3.03831e-33)
(0.00817331 0.0113899 -1.58217e-31)
(0.00804924 0.0111183 0)
(0.00799843 0.0108939 0)
(0.00799842 0.0106983 2.27246e-31)
(0.00803508 0.0105205 2.8607e-31)
(0.00809869 0.0103534 0)
(0.00818277 0.0101926 0)
(0.00828232 0.0100347 1.95298e-31)
(0.0083939 0.00987782 2.05488e-31)
(0.00851466 0.00972026 -4.76058e-31)
(0.00864252 0.00956097 -3.59303e-39)
(0.0087757 0.00939907 -3.53409e-39)
(0.00891298 0.00923407 5.26972e-31)
(0.00905277 0.00906528 -3.22645e-31)
(0.00919493 0.00889298 -8.98235e-31)
(0.00933768 0.00871606 0)
(0.00948123 0.00853528 0)
(0.00962454 0.00834988 0)
(0.00976751 0.0081602 -5.90409e-31)
(0.00990927 0.00796577 0)
(0.01005 0.00776701 0)
(0.0101887 0.00756351 9.54247e-32)
(0.0103257 0.00735572 1.23463e-32)
(0.0104601 0.00714328 -7.47969e-32)
(0.0105922 0.0069267 -6.46817e-31)
(0.0107212 0.00670563 0)
(0.0108476 0.00648064 0)
(0.0109703 0.00625137 6.56266e-31)
(0.01109 0.00601843 -7.32796e-31)
(0.0112056 0.00578147 -8.94206e-32)
(0.0113179 0.00554113 6.41878e-31)
(0.0114257 0.00529707 -7.96e-31)
(0.0115299 0.00504998 1.4105e-32)
(0.0116292 0.00479954 2.41561e-31)
(0.0117247 0.00454645 2.65731e-31)
(0.011815 0.00429045 2.70749e-31)
(0.0119012 0.00403223 2.58471e-31)
(0.011982 0.00377161 -5.67472e-31)
(0.0120585 0.00350921 -7.17739e-33)
(0.0121294 0.00324499 -6.15836e-33)
(0.0121958 0.00297947 -3.58892e-31)
(0.0122567 0.00271272 -3.52117e-31)
(0.0123127 0.00244509 -3.47844e-31)
(0.0123635 0.00217679 3.3904e-31)
(0.012409 0.00190818 0)
(0.0124494 0.00163952 -1.49089e-31)
(0.0124839 0.00137159 -3.42705e-31)
(0.0125134 0.00110409 0)
(0.0125376 0.000837199 6.91091e-32)
(0.0125576 0.000570558 6.76812e-32)
(0.0125727 0.000304138 6.03692e-32)
(-0.00111164 0.00278822 0)
(-0.001364 0.00273665 -1.67733e-31)
(-0.00114825 0.00375255 5.4682e-32)
(-0.00067286 0.00516647 -6.41457e-32)
(2.34107e-05 0.00694896 1.02817e-30)
(0.000954859 0.0084937 -5.90942e-31)
(0.00172486 0.00975355 0)
(0.00248543 0.0111131 0)
(0.00387217 0.0117023 5.97492e-31)
(0.0044493 0.0100455 -8.03369e-31)
(0.00435879 0.00826314 -1.2997e-30)
(0.00424314 0.00585432 1.09503e-30)
(0.00366404 0.00320535 -5.03924e-31)
(0.00279507 0.00115859 3.64041e-31)
(0.00205004 9.07437e-05 -3.26697e-30)
(0.00167657 0.000236989 -3.21452e-30)
(0.00195012 0.00190766 3.01652e-30)
(0.00324346 0.00528514 1.68601e-30)
(0.00582333 0.0100898 2.68045e-30)
(0.0093937 0.0152245 -7.63132e-31)
(0.0127836 0.019063 4.22089e-30)
(0.0147228 0.0205596 3.75227e-30)
(0.0148387 0.0199006 -9.63951e-31)
(0.0136813 0.018074 6.86898e-38)
(0.0120888 0.0160633 -6.94073e-31)
(0.010647 0.014401 0)
(0.00957153 0.0132017 -3.65766e-31)
(0.00884887 0.0123797 -1.39282e-31)
(0.00839209 0.0118131 -2.99174e-31)
(0.00811672 0.0114059 2.62639e-31)
(0.00796204 0.0110964 2.4446e-31)
(0.00788796 0.0108463 0)
(0.00786959 0.0106336 1.90392e-31)
(0.00789062 0.010444 0)
(0.0079408 0.0102692 2.9066e-31)
(0.00801264 0.0101033 -5.07023e-31)
(0.00810131 0.00994278 3.50162e-31)
(0.0082028 0.0097846 1.52972e-32)
(0.0083143 0.00962707 -5.41627e-31)
(0.00843366 0.00946878 -6.8825e-40)
(0.00855897 0.00930855 -6.59404e-40)
(0.00868877 0.00914571 4.86094e-31)
(0.00882212 0.00897984 1.89017e-32)
(0.00895761 0.00881015 1.32691e-30)
(0.00909481 0.00863673 4.11188e-31)
(0.00923297 0.00845915 -5.02684e-31)
(0.00937145 0.00827729 0)
(0.00950977 0.00809095 -5.2382e-31)
(0.00964752 0.00790013 -5.42514e-31)
(0.00978424 0.00770471 -1.20747e-31)
(0.00991963 0.00750476 -1.15779e-31)
(0.0100533 0.00730022 8.84984e-32)
(0.010185 0.00709122 8.29936e-32)
(0.0103144 0.00687774 -5.83054e-31)
(0.0104413 0.00665995 0)
(0.0105653 0.00643787 -6.01993e-31)
(0.0106865 0.00621169 1.8477e-40)
(0.0108043 0.00598147 -6.21196e-31)
(0.0109188 0.00574742 4.13741e-32)
(0.0110297 0.00550962 6.8932e-31)
(0.0111368 0.0052683 4.20843e-39)
(0.0112399 0.00502359 1.02553e-31)
(0.0113389 0.00477573 1.0711e-31)
(0.0114336 0.00452488 -6.69219e-31)
(0.011524 0.00427129 6.89286e-31)
(0.0116097 0.00401521 0)
(0.0116908 0.00375686 -4.62125e-31)
(0.0117672 0.00349655 2.67927e-31)
(0.0118386 0.00323447 -3.42608e-31)
(0.0119052 0.00297101 3.12725e-31)
(0.0119666 0.00270629 2.64211e-31)
(0.0120233 0.00244073 0)
(0.0120744 0.00217444 0)
(0.0121209 0.00190788 0)
(0.0121615 0.00164156 1.50983e-31)
(0.0121973 0.00137574 -1.14117e-31)
(0.0122274 0.00111063 1.0571e-31)
(0.0122534 0.000845925 -1.16791e-31)
(0.0122747 0.000581441 4.9674e-39)
(0.0122916 0.000317368 -1.24917e-32)
(-0.000880242 0.0031541 -2.06629e-32)
(-0.00113536 0.00282215 -1.20905e-31)
(-0.00107137 0.00351023 -1.48041e-31)
(-0.000732327 0.00473805 7.39067e-31)
(-0.000144216 0.00627159 8.16401e-31)
(0.000648024 0.0077426 4.10255e-31)
(0.00145634 0.00901657 1.23619e-30)
(0.00232601 0.0100912 1.65525e-32)
(0.00346395 0.0104421 7.76883e-31)
(0.00416355 0.00934706 2.25183e-32)
(0.00432393 0.00767991 -5.35549e-31)
(0.00420326 0.00554005 2.62612e-30)
(0.00371575 0.00329381 -3.55856e-31)
(0.00297939 0.00148635 2.19337e-30)
(0.00226976 0.000489715 -6.79956e-32)
(0.00184649 0.000581982 -5.47161e-30)
(0.00198786 0.00203226 -7.14212e-31)
(0.00300938 0.00499813 0)
(0.00513768 0.0092937 0)
(0.00821335 0.0141035 1.83867e-30)
(0.0114018 0.0180649 3.30479e-30)
(0.0135822 0.020063 0)
(0.0141865 0.01996 -6.2788e-31)
(0.0134725 0.0184798 -6.88013e-38)
(0.0121259 0.0165559 8.59981e-31)
(0.0107502 0.0148177 9.09416e-31)
(0.00964591 0.0134914 0)
(0.00886772 0.012554 1.75299e-38)
(0.00835954 0.0119014 -7.90397e-31)
(0.008045 0.0114355 -6.719e-31)
(0.00786171 0.0110866 6.30926e-31)
(0.00776656 0.0108103 7.13808e-31)
(0.00773163 0.0105797 5.82956e-31)
(0.00773907 0.0103781 7.93666e-31)
(0.0077773 0.010195 2.4391e-31)
(0.00783855 0.0100239 0)
(0.00791742 0.00986003 0)
(0.00800979 0.00970021 -5.66516e-31)
(0.00811295 0.00954234 -2.19008e-31)
(0.00822421 0.0093844 -3.76315e-31)
(0.00834225 0.00922564 3.84731e-31)
(0.0084651 0.00906457 1.00343e-31)
(0.00859187 0.00890091 -4.86427e-31)
(0.00872132 0.00873383 0)
(0.00885302 0.0085633 0)
(0.00898582 0.00838861 -4.51175e-31)
(0.00911955 0.00820988 -8.10595e-31)
(0.00925328 0.0080266 -3.42857e-31)
(0.00938695 0.007839 -1.2529e-30)
(0.00951973 0.00764666 -2.81716e-31)
(0.00965169 0.0074499 7.31001e-31)
(0.009782 0.00724837 2.1777e-31)
(0.00991087 0.00704246 -5.2222e-31)
(0.0100375 0.00683186 0)
(0.0101621 0.00661701 -4.75e-32)
(0.0102839 0.00639764 -6.01772e-31)
(0.0104032 0.00617425 -5.30957e-40)
(0.0105193 0.00594657 -5.82217e-31)
(0.0106325 0.00571514 0)
(0.0107419 0.00547971 5.15109e-32)
(0.0108482 0.00524086 6.12627e-32)
(0.0109502 0.00499836 0)
(0.0110489 0.00475284 0)
(0.0111428 0.00450406 -7.59036e-31)
(0.0112332 0.00425271 1.12941e-30)
(0.0113184 0.00399858 -5.10793e-31)
(0.0113999 0.00374238 -5.2541e-31)
(0.0114759 0.00348393 2.34811e-31)
(0.0115481 0.00322394 -3.34037e-31)
(0.0116146 0.0029623 3.29084e-31)
(0.011677 0.00269962 3.10128e-31)
(0.0117336 0.00243588 -5.94695e-33)
(0.011786 0.00217164 5.73154e-33)
(0.0118325 0.00190706 -7.21789e-31)
(0.0118744 0.00164282 -4.16491e-31)
(0.0119107 0.00137909 -6.05086e-31)