/*--------------------------------*- C++ -*----------------------------------*\
  =========                 |
  \\      /  F ield         | OpenFOAM: The Open Source CFD Toolbox
   \\    /   O peration     | Website:  https://openfoam.org
    \\  /    A nd           | Version:  7
     \\/     M anipulation  |
\*---------------------------------------------------------------------------*/
FoamFile
{
    version     2.0;
    format      ascii;
    class       volVectorField;
    location    "25";
    object      Ur;
}
// * * * * * * * * * * * * * * * * * * * * * * * * * * * * * * * * * * * * * //

dimensions      [0 1 -1 0 0 0 0];

internalField   uniform (0 0 0);

boundaryField
{
    innerWall
    {
        type            calculated;
        value           nonuniform List<vector> 
320
(
(-0.000149638 -0.0152414 0)
(-0.000647483 -0.0219776 0)
(-0.00215682 -0.0439031 0)
(-0.00252524 -0.0366877 0)
(-0.00327341 -0.0369509 0)
(-0.00340084 -0.031369 0)
(-0.00444944 -0.0346733 0)
(-0.00728739 -0.0491276 0)
(-0.0070856 -0.0420599 0)
(-0.0064093 -0.0339609 0)
(-0.00751 -0.0359092 0)
(-0.00957179 -0.0416673 0)
(-0.00917576 -0.0366317 0)
(-0.0124998 -0.0460465 0)
(-0.00898836 -0.0307129 0)
(-0.00497386 -0.0158353 0)
(-0.00479729 -0.0142858 0)
(-0.00505354 -0.0141237 0)
(-0.00532967 -0.0140212 0)
(-0.00560393 -0.0139139 0)
(-0.00587603 -0.0138012 0)
(-0.00614586 -0.0136831 0)
(-0.00641333 -0.0135598 0)
(-0.00667832 -0.0134313 0)
(-0.00694074 -0.0132976 0)
(-0.00720048 -0.0131588 0)
(-0.00745745 -0.0130149 0)
(-0.00771154 -0.0128659 0)
(-0.00796266 -0.012712 0)
(-0.00821071 -0.0125533 0)
(-0.0084556 -0.0123896 0)
(-0.00869722 -0.0122212 0)
(-0.00893549 -0.0120481 0)
(-0.00917032 -0.0118704 0)
(-0.00940161 -0.011688 0)
(-0.00962927 -0.0115012 0)
(-0.00985323 -0.0113099 0)
(-0.0100734 -0.0111143 0)
(-0.0102897 -0.0109143 0)
(-0.010502 -0.0107102 0)
(-0.0107102 -0.010502 0)
(-0.0109143 -0.0102897 0)
(-0.0111143 -0.0100734 0)
(-0.0113099 -0.00985323 0)
(-0.0115012 -0.00962927 0)
(-0.011688 -0.00940161 0)
(-0.0118704 -0.00917032 0)
(-0.0120481 -0.00893549 0)
(-0.0122212 -0.00869722 0)
(-0.0123896 -0.0084556 0)
(-0.0125533 -0.00821071 0)
(-0.012712 -0.00796266 0)
(-0.0128659 -0.00771154 0)
(-0.0130149 -0.00745745 0)
(-0.0131588 -0.00720048 0)
(-0.0132976 -0.00694074 0)
(-0.0134313 -0.00667832 0)
(-0.0135598 -0.00641333 0)
(-0.0136831 -0.00614586 0)
(-0.0138012 -0.00587603 0)
(-0.0139139 -0.00560393 0)
(-0.0140212 -0.00532967 0)
(-0.0141232 -0.00505335 0)
(-0.0142197 -0.00477509 0)
(-0.0143107 -0.00449498 0)
(-0.0143962 -0.00421314 0)
(-0.0144761 -0.00392968 0)
(-0.0145505 -0.00364471 0)
(-0.0146192 -0.00335832 0)
(-0.0146823 -0.00307065 0)
(-0.0147398 -0.00278179 0)
(-0.0147916 -0.00249185 0)
(-0.0148376 -0.00220096 0)
(-0.014878 -0.00190922 0)
(-0.0149126 -0.00161674 0)
(-0.0149415 -0.00132364 0)
(-0.0149646 -0.00103002 0)
(-0.0149819 -0.000736016 0)
(-0.0149935 -0.000441723 0)
(-0.0149993 -0.00014726 0)
(0.0149993 -0.00014726 0)
(0.0149935 -0.000441723 0)
(0.0149819 -0.000736016 0)
(0.0149646 -0.00103002 0)
(0.0149415 -0.00132364 0)
(0.0149126 -0.00161674 0)
(0.014878 -0.00190922 0)
(0.0148376 -0.00220096 0)
(0.0147916 -0.00249185 0)
(0.0147398 -0.00278179 0)
(0.0146823 -0.00307065 0)
(0.0146192 -0.00335832 0)
(0.0145505 -0.00364471 0)
(0.0144761 -0.00392968 0)
(0.0143962 -0.00421314 0)
(0.0143107 -0.00449498 0)
(0.0142197 -0.00477509 0)
(0.0141232 -0.00505335 0)
(0.0140212 -0.00532967 0)
(0.0139139 -0.00560395 0)
(0.0138249 -0.00588614 0)
(0.0141125 -0.00633872 0)
(0.0223824 -0.0105861 0)
(0.0465771 -0.0231591 0)
(0.0374121 -0.0195274 0)
(0.0374614 -0.0204989 0)
(0.0380958 -0.0218287 0)
(0.0140816 -0.00844016 0)
(0.0127129 -0.00796318 0)
(0.0125533 -0.00821071 0)
(0.0123896 -0.0084556 0)
(0.0122212 -0.00869722 0)
(0.0120481 -0.00893549 0)
(0.0118704 -0.00917032 0)
(0.011688 -0.00940161 0)
(0.0115012 -0.00962927 0)
(0.0113099 -0.00985323 0)
(0.0111143 -0.0100734 0)
(0.0109143 -0.0102897 0)
(0.0107102 -0.010502 0)
(0.0105021 -0.0107104 0)
(0.0113952 -0.012087 0)
(0.0356914 -0.0393794 0)
(0.0279829 -0.0321198 0)
(0.022823 -0.0272597 0)
(0.0207342 -0.0257766 0)
(0.0242429 -0.0313808 0)
(0.028783 -0.0388094 0)
(0.0223505 -0.0314066 0)
(0.0212323 -0.0311108 0)
(0.0183349 -0.028032 0)
(0.0276037 -0.0440682 0)
(0.0219321 -0.0365914 0)
(0.0195811 -0.0341733 0)
(0.00773652 -0.0141384 0)
(0.00694103 -0.0132981 0)
(0.00667832 -0.0134313 0)
(0.00641333 -0.0135598 0)
(0.00614586 -0.0136831 0)
(0.00587603 -0.0138012 0)
(0.00560393 -0.0139139 0)
(0.00532967 -0.0140212 0)
(0.00505335 -0.0141232 0)
(0.00477509 -0.0142197 0)
(0.00449498 -0.0143107 0)
(0.00421314 -0.0143962 0)
(0.00392968 -0.0144761 0)
(0.00364471 -0.0145505 0)
(0.00335832 -0.0146192 0)
(0.00307065 -0.0146823 0)
(0.00278179 -0.0147398 0)
(0.00249185 -0.0147916 0)
(0.00220096 -0.0148376 0)
(0.00190922 -0.014878 0)
(0.00161674 -0.0149126 0)
(0.00132364 -0.0149415 0)
(0.00103002 -0.0149646 0)
(0.000736016 -0.0149819 0)
(0.000441723 -0.0149935 0)
(0.00014726 -0.0149993 0)
(0.00014726 0.0149993 0)
(0.000441723 0.0149935 0)
(0.000736016 0.0149819 0)
(0.00103002 0.0149646 0)
(0.00132364 0.0149415 0)
(0.00161674 0.0149126 0)
(0.00190922 0.014878 0)
(0.00220096 0.0148376 0)
(0.00249303 0.0147986 0)
(0.00298607 0.0158222 0)
(0.00847707 0.0405332 0)
(0.0105022 0.0457177 0)
(0.00927118 0.0370126 0)
(0.0108694 0.0400404 0)
(0.0131918 0.0450761 0)
(0.0112857 0.0359303 0)
(0.0129974 0.0387048 0)
(0.0140819 0.0393563 0)
(0.0135315 0.0355986 0)
(0.0124231 0.030845 0)
(0.00926881 0.0217699 0)
(0.0063178 0.0140659 0)
(0.00642574 0.0135861 0)
(0.00667836 0.0134314 0)
(0.00694074 0.0132976 0)
(0.00720048 0.0131588 0)
(0.00745745 0.0130149 0)
(0.00771154 0.0128659 0)
(0.00796266 0.012712 0)
(0.00821071 0.0125533 0)
(0.0084556 0.0123896 0)
(0.00869722 0.0122212 0)
(0.00893549 0.0120481 0)
(0.00917032 0.0118704 0)
(0.00940161 0.011688 0)
(0.00962927 0.0115012 0)
(0.00985323 0.0113099 0)
(0.0100734 0.0111143 0)
(0.0102897 0.0109143 0)
(0.010502 0.0107102 0)
(0.0107102 0.010502 0)
(0.0109143 0.0102897 0)
(0.0111143 0.0100734 0)
(0.0113099 0.00985323 0)
(0.0115012 0.00962927 0)
(0.011688 0.00940161 0)
(0.0118704 0.00917032 0)
(0.0120481 0.00893549 0)
(0.0122212 0.00869722 0)
(0.0123896 0.0084556 0)
(0.0125533 0.00821071 0)
(0.012712 0.00796266 0)
(0.0128659 0.00771154 0)
(0.0130149 0.00745745 0)
(0.0131588 0.00720048 0)
(0.0132976 0.00694074 0)
(0.0134313 0.00667832 0)
(0.0135598 0.00641333 0)
(0.0136831 0.00614586 0)
(0.0138012 0.00587603 0)
(0.0139139 0.00560393 0)
(0.0140212 0.00532967 0)
(0.0141232 0.00505335 0)
(0.0142197 0.00477509 0)
(0.0143107 0.00449498 0)
(0.0143962 0.00421314 0)
(0.0144761 0.00392968 0)
(0.0145505 0.00364471 0)
(0.0146192 0.00335832 0)
(0.0146823 0.00307065 0)
(0.0147398 0.00278179 0)
(0.0147916 0.00249185 0)
(0.0148376 0.00220096 0)
(0.014878 0.00190922 0)
(0.0149126 0.00161674 0)
(0.0149415 0.00132364 0)
(0.0149646 0.00103002 0)
(0.0149819 0.000736016 0)
(0.0149935 0.000441723 0)
(0.0149993 0.00014726 0)
(-0.0149993 0.00014726 0)
(-0.0149935 0.000441723 0)
(-0.0149819 0.000736016 0)
(-0.0149646 0.00103002 0)
(-0.0149415 0.00132364 0)
(-0.0149126 0.00161674 0)
(-0.014878 0.00190922 0)
(-0.0148376 0.00220096 0)
(-0.0147916 0.00249185 0)
(-0.0147398 0.00278179 0)
(-0.0146823 0.00307065 0)
(-0.0146192 0.00335832 0)
(-0.0145505 0.00364471 0)
(-0.0144761 0.00392968 0)
(-0.0143962 0.00421314 0)
(-0.0143107 0.00449498 0)
(-0.0142197 0.00477509 0)
(-0.0141232 0.00505335 0)
(-0.0140212 0.00532967 0)
(-0.0139139 0.00560393 0)
(-0.0138012 0.00587603 0)
(-0.0136831 0.00614586 0)
(-0.0135598 0.00641333 0)
(-0.0134313 0.00667832 0)
(-0.0132976 0.00694074 0)
(-0.0131588 0.00720048 0)
(-0.0130149 0.00745745 0)
(-0.0128659 0.00771154 0)
(-0.012712 0.00796266 0)
(-0.0125533 0.00821071 0)
(-0.0123896 0.0084556 0)
(-0.0127002 0.00903805 0)
(-0.0229878 0.0170489 0)
(-0.0339465 0.026225 0)
(-0.0269815 0.0217034 0)
(-0.0266032 0.0222733 0)
(-0.0350722 0.030555 0)
(-0.0416452 0.037745 0)
(-0.0241763 0.0227925 0)
(-0.0304362 0.0298444 0)
(-0.0261183 0.0266363 0)
(-0.0220036 0.0233394 0)
(-0.0107281 0.0118366 0)
(-0.00986468 0.011323 0)
(-0.00962938 0.0115013 0)
(-0.00940161 0.011688 0)
(-0.00917032 0.0118704 0)
(-0.00893549 0.0120481 0)
(-0.00869722 0.0122212 0)
(-0.0084556 0.0123896 0)
(-0.00821071 0.0125533 0)
(-0.00796266 0.012712 0)
(-0.00771154 0.0128659 0)
(-0.00745745 0.0130149 0)
(-0.00720048 0.0131588 0)
(-0.00694074 0.0132976 0)
(-0.00667832 0.0134313 0)
(-0.00641333 0.0135598 0)
(-0.00614586 0.0136831 0)
(-0.00587603 0.0138012 0)
(-0.00560393 0.0139139 0)
(-0.00532967 0.0140212 0)
(-0.00505335 0.0141232 0)
(-0.00477509 0.0142197 0)
(-0.00449498 0.0143107 0)
(-0.00421314 0.0143962 0)
(-0.00392968 0.0144761 0)
(-0.00364471 0.0145505 0)
(-0.00335832 0.0146192 0)
(-0.00307065 0.0146823 0)
(-0.00278179 0.0147398 0)
(-0.00249185 0.0147916 0)
(-0.00220096 0.0148376 0)
(-0.00190922 0.014878 0)
(-0.00161674 0.0149126 0)
(-0.00132364 0.0149415 0)
(-0.00103002 0.0149646 0)
(-0.000736016 0.0149819 0)
(-0.000441723 0.0149935 0)
(-0.00014726 0.0149993 0)
)
;
    }
    outerWall
    {
        type            calculated;
        value           uniform (0 0 0);
    }
    frontAndBack
    {
        type            empty;
    }
}


// ************************************************************************* //
