/*--------------------------------*- C++ -*----------------------------------*\
  =========                 |
  \\      /  F ield         | OpenFOAM: The Open Source CFD Toolbox
   \\    /   O peration     | Website:  https://openfoam.org
    \\  /    A nd           | Version:  7
     \\/     M anipulation  |
\*---------------------------------------------------------------------------*/
FoamFile
{
    version     2.0;
    format      ascii;
    class       volVectorField;
    location    "25";
    object      Us;
}
// * * * * * * * * * * * * * * * * * * * * * * * * * * * * * * * * * * * * * //

dimensions      [0 1 -1 0 0 0 0];

internalField   nonuniform List<vector> 
49920
(
(-1.1381e-10 -1.28847e-10 0)
(-7.1191e-11 -5.39801e-12 0)
(-4.90194e-11 2.96691e-11 0)
(-3.36579e-11 4.24933e-11 0)
(-1.99704e-11 4.70302e-11 0)
(-1.06987e-11 4.67781e-11 0)
(-3.81137e-12 4.67493e-11 0)
(2.10272e-12 4.56999e-11 0)
(7.67487e-12 4.7173e-11 0)
(1.51243e-11 4.91002e-11 0)
(2.41044e-11 4.82682e-11 0)
(3.53202e-11 4.3595e-11 0)
(4.78861e-11 3.25602e-11 0)
(5.91143e-11 1.20912e-11 0)
(6.06568e-11 -2.59353e-11 0)
(5.54079e-11 -1.19825e-10 0)
(-4.81725e-11 -2.29334e-10 0)
(-1.2329e-09 5.76015e-09 0)
(1.84467e-08 4.87747e-08 0)
(8.2178e-08 1.40029e-07 0)
(1.88928e-07 2.69193e-07 0)
(3.30262e-07 4.24226e-07 0)
(4.98327e-07 5.95562e-07 0)
(6.86989e-07 7.75858e-07 0)
(8.91542e-07 9.59609e-07 0)
(1.10837e-06 1.14287e-06 0)
(1.33472e-06 1.32301e-06 0)
(1.56852e-06 1.49844e-06 0)
(1.80827e-06 1.66838e-06 0)
(2.05289e-06 1.83262e-06 0)
(2.30162e-06 1.99142e-06 0)
(2.55396e-06 2.14526e-06 0)
(2.80954e-06 2.29482e-06 0)
(3.06806e-06 2.44085e-06 0)
(3.32926e-06 2.58411e-06 0)
(3.59283e-06 2.72532e-06 0)
(3.85835e-06 2.86509e-06 0)
(4.12528e-06 3.00391e-06 0)
(4.39285e-06 3.14211e-06 0)
(4.66012e-06 3.27985e-06 0)
(4.92586e-06 3.41706e-06 0)
(5.18857e-06 3.55346e-06 0)
(5.44647e-06 3.68856e-06 0)
(5.69748e-06 3.8216e-06 0)
(5.93927e-06 3.95162e-06 0)
(6.16924e-06 4.07743e-06 0)
(6.3846e-06 4.19762e-06 0)
(6.5824e-06 4.31063e-06 0)
(6.75965e-06 4.41478e-06 0)
(6.91336e-06 4.50828e-06 0)
(7.04066e-06 4.58932e-06 0)
(7.13891e-06 4.65614e-06 0)
(7.20579e-06 4.70706e-06 0)
(7.23942e-06 4.74059e-06 0)
(7.23846e-06 4.75545e-06 0)
(7.20216e-06 4.75067e-06 0)
(7.13047e-06 4.72563e-06 0)
(7.02402e-06 4.68006e-06 0)
(6.88418e-06 4.61415e-06 0)
(6.71301e-06 4.52846e-06 0)
(6.51319e-06 4.424e-06 0)
(6.28799e-06 4.30214e-06 0)
(6.04113e-06 4.16461e-06 0)
(5.77668e-06 4.01345e-06 0)
(5.49891e-06 3.85089e-06 0)
(5.21217e-06 3.67937e-06 0)
(4.92075e-06 3.50138e-06 0)
(4.62876e-06 3.3194e-06 0)
(4.34e-06 3.13586e-06 0)
(4.0579e-06 2.95302e-06 0)
(3.78542e-06 2.77293e-06 0)
(3.52501e-06 2.59738e-06 0)
(3.2786e-06 2.42787e-06 0)
(3.04759e-06 2.26556e-06 0)
(2.83285e-06 2.11129e-06 0)
(2.63477e-06 1.96557e-06 0)
(2.45334e-06 1.82862e-06 0)
(2.28815e-06 1.70039e-06 0)
(2.13847e-06 1.58058e-06 0)
(2.00334e-06 1.46874e-06 0)
(-4.0183e-07 1.10736e-07 0)
(-1.84664e-10 4.75381e-11 0)
(-1.16148e-10 8.16297e-11 0)
(-8.21432e-11 1.03374e-10 0)
(-5.17279e-11 1.18697e-10 0)
(-2.60959e-11 1.19848e-10 0)
(-5.53146e-12 1.19425e-10 0)
(7.73541e-12 1.14455e-10 0)
(1.73618e-11 1.19559e-10 0)
(3.68039e-11 1.29978e-10 0)
(6.22491e-11 1.26394e-10 0)
(8.94438e-11 1.11643e-10 0)
(1.16338e-10 8.19248e-11 0)
(1.39404e-10 3.42072e-11 0)
(1.59424e-10 -2.86362e-11 0)
(1.85228e-10 -1.35333e-10 0)
(1.69533e-10 -1.94226e-10 0)
(3.85109e-08 8.48475e-08 0)
(1.71447e-07 3.20799e-07 0)
(4.119e-07 6.84685e-07 0)
(7.40734e-07 1.12128e-06 0)
(1.13363e-06 1.58829e-06 0)
(1.57088e-06 2.05979e-06 0)
(2.03825e-06 2.5209e-06 0)
(2.52586e-06 2.96359e-06 0)
(3.02696e-06 3.38409e-06 0)
(3.53694e-06 3.78129e-06 0)
(4.05273e-06 4.15569e-06 0)
(4.5723e-06 4.50877e-06 0)
(5.09431e-06 4.84254e-06 0)
(5.61789e-06 5.15924e-06 0)
(6.14242e-06 5.46117e-06 0)
(6.66739e-06 5.75051e-06 0)
(7.19232e-06 6.02928e-06 0)
(7.71662e-06 6.29927e-06 0)
(8.23956e-06 6.56197e-06 0)
(8.76016e-06 6.81856e-06 0)
(9.27722e-06 7.0699e-06 0)
(9.78921e-06 7.31647e-06 0)
(1.02943e-05 7.55845e-06 0)
(1.07904e-05 7.79563e-06 0)
(1.12749e-05 8.02748e-06 0)
(1.17452e-05 8.25315e-06 0)
(1.21981e-05 8.47148e-06 0)
(1.26304e-05 8.68107e-06 0)
(1.30386e-05 8.88027e-06 0)
(1.3419e-05 9.06725e-06 0)
(1.37681e-05 9.24005e-06 0)
(1.40822e-05 9.39664e-06 0)
(1.43576e-05 9.53494e-06 0)
(1.45912e-05 9.65291e-06 0)
(1.47796e-05 9.74858e-06 0)
(1.49201e-05 9.82013e-06 0)
(1.50103e-05 9.86591e-06 0)
(1.50482e-05 9.88448e-06 0)
(1.50325e-05 9.87467e-06 0)
(1.49623e-05 9.83563e-06 0)
(1.48376e-05 9.76681e-06 0)
(1.46588e-05 9.66802e-06 0)
(1.44274e-05 9.53945e-06 0)
(1.41453e-05 9.38169e-06 0)
(1.38153e-05 9.19573e-06 0)
(1.34411e-05 8.98295e-06 0)
(1.30269e-05 8.74517e-06 0)
(1.25777e-05 8.48454e-06 0)
(1.20988e-05 8.2036e-06 0)
(1.15962e-05 7.90518e-06 0)
(1.10761e-05 7.59236e-06 0)
(1.05449e-05 7.26838e-06 0)
(1.00088e-05 6.93657e-06 0)
(9.47394e-06 6.60027e-06 0)
(8.94612e-06 6.26268e-06 0)
(8.43058e-06 5.92684e-06 0)
(7.93192e-06 5.59547e-06 0)
(7.454e-06 5.27096e-06 0)
(6.99988e-06 4.95527e-06 0)
(6.57176e-06 4.64992e-06 0)
(6.17099e-06 4.35595e-06 0)
(5.79816e-06 4.074e-06 0)
(5.45308e-06 3.80428e-06 0)
(-2.372e-07 4.48021e-07 0)
(4.50183e-09 3.61549e-07 0)
(-2.16772e-10 2.42123e-10 0)
(-1.2988e-10 1.73145e-10 0)
(-7.77947e-11 2.00667e-10 0)
(-3.34644e-11 2.00602e-10 0)
(3.08442e-12 2.09125e-10 0)
(1.63267e-11 1.87441e-10 0)
(1.0975e-11 1.95674e-10 0)
(4.48009e-11 1.94528e-10 0)
(8.78988e-11 1.87377e-10 0)
(1.29732e-10 1.6486e-10 0)
(1.76266e-10 1.27759e-10 0)
(2.2868e-10 6.2577e-11 0)
(2.9637e-10 -6.52503e-12 0)
(2.84796e-10 -1.11847e-10 0)
(4.98113e-08 1.44306e-07 0)
(2.07632e-07 5.41249e-07 0)
(5.06758e-07 1.15156e-06 0)
(9.36219e-07 1.86922e-06 0)
(1.46393e-06 2.61136e-06 0)
(2.05761e-06 3.33301e-06 0)
(2.69254e-06 4.01382e-06 0)
(3.35183e-06 4.64656e-06 0)
(4.02449e-06 5.23069e-06 0)
(4.7036e-06 5.76891e-06 0)
(5.38489e-06 6.26536e-06 0)
(6.0658e-06 6.72468e-06 0)
(6.74479e-06 7.15151e-06 0)
(7.42095e-06 7.55023e-06 0)
(8.09371e-06 7.92484e-06 0)
(8.7626e-06 8.27889e-06 0)
(9.42716e-06 8.61546e-06 0)
(1.00868e-05 8.93718e-06 0)
(1.07408e-05 9.24617e-06 0)
(1.13883e-05 9.54414e-06 0)
(1.20278e-05 9.83232e-06 0)
(1.26581e-05 1.01115e-05 0)
(1.32773e-05 1.03822e-05 0)
(1.38833e-05 1.06443e-05 0)
(1.4474e-05 1.08977e-05 0)
(1.50467e-05 1.11416e-05 0)
(1.55989e-05 1.13752e-05 0)
(1.61276e-05 1.15974e-05 0)
(1.66299e-05 1.18068e-05 0)
(1.71027e-05 1.2002e-05 0)
(1.7543e-05 1.21816e-05 0)
(1.79479e-05 1.23439e-05 0)
(1.83143e-05 1.24873e-05 0)
(1.86394e-05 1.26103e-05 0)
(1.89206e-05 1.27115e-05 0)
(1.91554e-05 1.27894e-05 0)
(1.93415e-05 1.28427e-05 0)
(1.94769e-05 1.28703e-05 0)
(1.95597e-05 1.28713e-05 0)
(1.95887e-05 1.28448e-05 0)
(1.95625e-05 1.27902e-05 0)
(1.94806e-05 1.2707e-05 0)
(1.93425e-05 1.25948e-05 0)
(1.91484e-05 1.24537e-05 0)
(1.88989e-05 1.22838e-05 0)
(1.85953e-05 1.20854e-05 0)
(1.82394e-05 1.18593e-05 0)
(1.78337e-05 1.16064e-05 0)
(1.73813e-05 1.13278e-05 0)
(1.68862e-05 1.10252e-05 0)
(1.63529e-05 1.07004e-05 0)
(1.57865e-05 1.03555e-05 0)
(1.51927e-05 9.99309e-06 0)
(1.45777e-05 9.6158e-06 0)
(1.3948e-05 9.22651e-06 0)
(1.331e-05 8.82823e-06 0)
(1.26705e-05 8.42402e-06 0)
(1.20358e-05 8.01687e-06 0)
(1.14117e-05 7.60965e-06 0)
(1.08037e-05 7.20499e-06 0)
(1.02164e-05 6.80525e-06 0)
(9.65354e-06 6.41242e-06 0)
(9.11801e-06 6.02811e-06 0)
(8.61173e-06 5.65354e-06 0)
(-2.0095e-07 1.22394e-06 0)
(-2.83489e-08 6.56513e-07 0)
(2.19237e-09 1.99073e-09 0)
(-1.0063e-10 4.45646e-10 0)
(-4.94997e-10 3.48538e-09 0)
(1.56667e-09 3.02132e-08 0)
(2.90098e-09 2.82032e-08 0)
(5.39252e-09 3.56872e-08 0)
(-3.64527e-10 5.31677e-09 0)
(3.55104e-11 2.71264e-10 0)
(1.07554e-10 2.53178e-10 0)
(1.71845e-10 2.24097e-10 0)
(2.91946e-10 2.20565e-10 0)
(4.62607e-10 1.96678e-10 0)
(4.37239e-10 6.33204e-11 0)
(7.09091e-08 2.65224e-07 0)
(2.63235e-07 8.94204e-07 0)
(6.08968e-07 1.79351e-06 0)
(1.10135e-06 2.80207e-06 0)
(1.70926e-06 3.80162e-06 0)
(2.39652e-06 4.73535e-06 0)
(3.13282e-06 5.58498e-06 0)
(3.89655e-06 6.35029e-06 0)
(4.67358e-06 7.03829e-06 0)
(5.45513e-06 7.65818e-06 0)
(6.23599e-06 8.21924e-06 0)
(7.01312e-06 8.73001e-06 0)
(7.78484e-06 9.198e-06 0)
(8.5502e-06 9.62967e-06 0)
(9.30866e-06 1.00306e-05 0)
(1.00598e-05 1.04053e-05 0)
(1.08032e-05 1.07578e-05 0)
(1.15383e-05 1.10912e-05 0)
(1.22645e-05 1.1408e-05 0)
(1.29809e-05 1.17104e-05 0)
(1.36864e-05 1.19998e-05 0)
(1.43796e-05 1.22772e-05 0)
(1.50589e-05 1.25432e-05 0)
(1.57227e-05 1.27982e-05 0)
(1.63689e-05 1.3042e-05 0)
(1.69956e-05 1.32744e-05 0)
(1.76003e-05 1.34946e-05 0)
(1.8181e-05 1.37019e-05 0)
(1.87351e-05 1.38954e-05 0)
(1.92603e-05 1.4074e-05 0)
(1.97542e-05 1.42367e-05 0)
(2.02146e-05 1.43823e-05 0)
(2.06392e-05 1.45097e-05 0)
(2.10259e-05 1.46178e-05 0)
(2.13725e-05 1.47058e-05 0)
(2.16773e-05 1.47725e-05 0)
(2.19384e-05 1.48173e-05 0)
(2.21541e-05 1.48393e-05 0)
(2.23229e-05 1.48379e-05 0)
(2.24434e-05 1.48125e-05 0)
(2.25142e-05 1.47628e-05 0)
(2.25344e-05 1.46884e-05 0)
(2.25028e-05 1.45888e-05 0)
(2.24188e-05 1.44641e-05 0)
(2.22819e-05 1.43139e-05 0)
(2.20918e-05 1.41384e-05 0)
(2.18486e-05 1.39375e-05 0)
(2.15527e-05 1.37115e-05 0)
(2.12052e-05 1.34608e-05 0)
(2.08075e-05 1.31858e-05 0)
(2.03616e-05 1.28872e-05 0)
(1.98702e-05 1.25659e-05 0)
(1.93365e-05 1.22232e-05 0)
(1.87646e-05 1.18604e-05 0)
(1.81591e-05 1.14791e-05 0)
(1.75251e-05 1.10813e-05 0)
(1.68686e-05 1.0669e-05 0)
(1.61956e-05 1.02446e-05 0)
(1.55124e-05 9.81057e-06 0)
(1.48256e-05 9.36939e-06 0)
(1.41415e-05 8.92362e-06 0)
(1.34661e-05 8.47573e-06 0)
(1.28049e-05 8.02807e-06 0)
(1.21627e-05 7.58278e-06 0)
(1.15435e-05 7.14178e-06 0)
(-2.35639e-07 2.90081e-06 0)
(-1.21065e-08 1.89323e-06 0)
(3.98715e-08 7.8896e-07 0)
(-1.04032e-09 1.20816e-09 0)
(-1.63605e-08 7.85628e-09 0)
(-1.3765e-08 4.78561e-08 0)
(-1.30835e-09 3.72306e-08 0)
(1.43543e-08 4.80625e-08 0)
(1.65541e-08 7.44358e-09 0)
(2.09121e-09 4.02905e-09 0)
(5.09695e-10 1.13769e-09 0)
(3.33937e-10 8.13239e-10 0)
(7.25182e-10 1.73678e-09 0)
(5.83586e-10 3.56483e-10 0)
(1.07549e-07 5.4312e-07 0)
(3.41417e-07 1.52878e-06 0)
(7.38348e-07 2.76702e-06 0)
(1.28623e-06 4.05723e-06 0)
(1.95087e-06 5.27263e-06 0)
(2.69559e-06 6.36288e-06 0)
(3.49016e-06 7.32201e-06 0)
(4.31272e-06 8.16215e-06 0)
(5.14869e-06 8.90034e-06 0)
(5.98882e-06 9.55317e-06 0)
(6.8275e-06 1.01351e-05 0)
(7.66138e-06 1.06582e-05 0)
(8.48854e-06 1.11323e-05 0)
(9.30784e-06 1.15655e-05 0)
(1.01186e-05 1.19643e-05 0)
(1.09202e-05 1.2334e-05 0)
(1.17123e-05 1.2679e-05 0)
(1.24942e-05 1.30026e-05 0)
(1.32653e-05 1.33076e-05 0)
(1.40246e-05 1.35961e-05 0)
(1.47712e-05 1.38698e-05 0)
(1.55038e-05 1.41298e-05 0)
(1.62211e-05 1.43769e-05 0)
(1.69215e-05 1.46114e-05 0)
(1.76033e-05 1.48334e-05 0)
(1.82647e-05 1.50427e-05 0)
(1.8904e-05 1.52391e-05 0)
(1.95192e-05 1.54219e-05 0)
(2.01085e-05 1.55905e-05 0)
(2.06699e-05 1.57442e-05 0)
(2.12016e-05 1.58821e-05 0)
(2.17019e-05 1.60036e-05 0)
(2.21689e-05 1.61077e-05 0)
(2.26011e-05 1.61939e-05 0)
(2.29969e-05 1.62614e-05 0)
(2.33549e-05 1.63096e-05 0)
(2.36737e-05 1.6338e-05 0)
(2.3952e-05 1.63462e-05 0)
(2.41886e-05 1.63337e-05 0)
(2.43824e-05 1.63004e-05 0)
(2.45322e-05 1.62459e-05 0)
(2.46371e-05 1.61701e-05 0)
(2.4696e-05 1.60727e-05 0)
(2.47079e-05 1.59538e-05 0)
(2.46721e-05 1.58132e-05 0)
(2.45877e-05 1.56508e-05 0)
(2.44542e-05 1.54666e-05 0)
(2.42709e-05 1.52605e-05 0)
(2.40377e-05 1.50326e-05 0)
(2.37546e-05 1.47829e-05 0)
(2.34218e-05 1.45116e-05 0)
(2.30401e-05 1.42187e-05 0)
(2.26107e-05 1.39048e-05 0)
(2.21353e-05 1.357e-05 0)
(2.16162e-05 1.32152e-05 0)
(2.10565e-05 1.2841e-05 0)
(2.04597e-05 1.24485e-05 0)
(1.983e-05 1.20389e-05 0)
(1.91725e-05 1.16135e-05 0)
(1.84925e-05 1.11742e-05 0)
(1.77958e-05 1.07226e-05 0)
(1.70885e-05 1.02608e-05 0)
(1.6377e-05 9.79089e-06 0)
(1.56672e-05 9.31507e-06 0)
(1.4965e-05 8.83548e-06 0)
(1.42758e-05 8.35424e-06 0)
(-4.9365e-07 5.74378e-06 0)
(-1.90373e-07 4.62343e-06 0)
(-4.29687e-08 3.34904e-06 0)
(-6.58876e-08 2.07293e-06 0)
(-1.44222e-07 1.40859e-06 0)
(-1.03377e-07 1.09932e-06 0)
(-4.414e-08 8.98362e-07 0)
(1.12042e-08 7.31524e-07 0)
(4.06369e-08 5.18259e-07 0)
(2.33857e-08 2.35808e-07 0)
(2.30178e-09 1.30832e-09 0)
(1.39675e-10 1.6366e-09 0)
(6.95602e-08 3.59351e-07 0)
(1.9563e-07 1.35188e-06 0)
(4.58903e-07 2.7714e-06 0)
(9.04372e-07 4.3195e-06 0)
(1.50116e-06 5.80697e-06 0)
(2.20809e-06 7.13923e-06 0)
(2.98803e-06 8.29317e-06 0)
(3.81318e-06 9.28203e-06 0)
(4.66436e-06 1.01309e-05 0)
(5.52888e-06 1.08651e-05 0)
(6.39848e-06 1.15066e-05 0)
(7.26788e-06 1.2073e-05 0)
(8.13368e-06 1.25781e-05 0)
(8.99371e-06 1.3033e-05 0)
(9.8465e-06 1.34462e-05 0)
(1.0691e-05 1.38246e-05 0)
(1.15264e-05 1.41734e-05 0)
(1.2352e-05 1.4497e-05 0)
(1.31669e-05 1.47987e-05 0)
(1.39704e-05 1.50813e-05 0)
(1.47614e-05 1.53468e-05 0)
(1.55389e-05 1.55968e-05 0)
(1.63017e-05 1.58324e-05 0)
(1.70486e-05 1.60543e-05 0)
(1.7778e-05 1.6263e-05 0)
(1.84886e-05 1.64588e-05 0)
(1.91787e-05 1.66414e-05 0)
(1.98467e-05 1.68108e-05 0)
(2.04911e-05 1.69664e-05 0)
(2.11103e-05 1.71079e-05 0)
(2.17026e-05 1.72348e-05 0)
(2.22666e-05 1.73464e-05 0)
(2.28008e-05 1.74422e-05 0)
(2.33038e-05 1.75215e-05 0)
(2.37744e-05 1.7584e-05 0)
(2.42114e-05 1.76292e-05 0)
(2.46135e-05 1.76566e-05 0)
(2.49798e-05 1.76659e-05 0)
(2.53092e-05 1.76569e-05 0)
(2.56009e-05 1.76293e-05 0)
(2.58538e-05 1.7583e-05 0)
(2.60672e-05 1.75179e-05 0)
(2.62402e-05 1.74341e-05 0)
(2.6372e-05 1.73313e-05 0)
(2.64616e-05 1.72097e-05 0)
(2.65083e-05 1.70692e-05 0)
(2.65113e-05 1.69099e-05 0)
(2.64697e-05 1.67316e-05 0)
(2.63827e-05 1.65345e-05 0)
(2.62497e-05 1.63184e-05 0)
(2.607e-05 1.60833e-05 0)
(2.58431e-05 1.58291e-05 0)
(2.55687e-05 1.55558e-05 0)
(2.52469e-05 1.52633e-05 0)
(2.48778e-05 1.49517e-05 0)
(2.44622e-05 1.46208e-05 0)
(2.40012e-05 1.4271e-05 0)
(2.34964e-05 1.39023e-05 0)
(2.29501e-05 1.35152e-05 0)
(2.2365e-05 1.31103e-05 0)
(2.17448e-05 1.26881e-05 0)
(2.10934e-05 1.22497e-05 0)
(2.04158e-05 1.17962e-05 0)
(1.9717e-05 1.13289e-05 0)
(1.90027e-05 1.08493e-05 0)
(1.82787e-05 1.03592e-05 0)
(1.75511e-05 9.86043e-06 0)
(1.68256e-05 9.35489e-06 0)
(-1.04969e-06 9.38993e-06 0)
(-6.73165e-07 8.4857e-06 0)
(-4.0685e-07 7.43776e-06 0)
(-2.89958e-07 6.28744e-06 0)
(-2.52793e-07 5.26891e-06 0)
(-1.68431e-07 4.52377e-06 0)
(-3.98351e-08 3.98064e-06 0)
(1.07511e-07 3.54184e-06 0)
(2.43841e-07 3.14511e-06 0)
(3.25013e-07 2.77365e-06 0)
(3.38046e-07 2.58794e-06 0)
(3.36631e-07 2.87742e-06 0)
(4.26842e-07 3.80123e-06 0)
(7.01139e-07 5.24976e-06 0)
(1.16316e-06 6.79906e-06 0)
(1.77862e-06 8.24132e-06 0)
(2.49889e-06 9.50424e-06 0)
(3.28687e-06 1.05826e-05 0)
(4.11725e-06 1.14986e-05 0)
(4.97349e-06 1.22807e-05 0)
(5.84482e-06 1.29551e-05 0)
(6.72409e-06 1.35433e-05 0)
(7.60641e-06 1.40621e-05 0)
(8.48833e-06 1.45245e-05 0)
(9.36732e-06 1.49406e-05 0)
(1.02415e-05 1.53181e-05 0)
(1.11093e-05 1.56633e-05 0)
(1.19694e-05 1.59808e-05 0)
(1.28208e-05 1.62744e-05 0)
(1.36622e-05 1.65472e-05 0)
(1.44927e-05 1.68015e-05 0)
(1.5311e-05 1.70391e-05 0)
(1.61159e-05 1.72615e-05 0)
(1.69062e-05 1.74695e-05 0)
(1.76806e-05 1.7664e-05 0)
(1.84377e-05 1.78452e-05 0)
(1.9176e-05 1.80135e-05 0)
(1.98942e-05 1.81687e-05 0)
(2.05907e-05 1.83108e-05 0)
(2.12641e-05 1.84395e-05 0)
(2.19131e-05 1.85543e-05 0)
(2.25361e-05 1.8655e-05 0)
(2.3132e-05 1.87409e-05 0)
(2.36994e-05 1.88118e-05 0)
(2.42371e-05 1.88672e-05 0)
(2.47442e-05 1.89067e-05 0)
(2.52194e-05 1.89299e-05 0)
(2.5662e-05 1.89366e-05 0)
(2.60711e-05 1.89266e-05 0)
(2.64457e-05 1.88996e-05 0)
(2.67853e-05 1.88556e-05 0)
(2.7089e-05 1.87945e-05 0)
(2.73562e-05 1.87162e-05 0)
(2.75862e-05 1.86209e-05 0)
(2.77783e-05 1.85086e-05 0)
(2.79318e-05 1.83793e-05 0)
(2.8046e-05 1.8233e-05 0)
(2.81202e-05 1.80699e-05 0)
(2.81537e-05 1.789e-05 0)
(2.81457e-05 1.76934e-05 0)
(2.80953e-05 1.74799e-05 0)
(2.8002e-05 1.72497e-05 0)
(2.78648e-05 1.70026e-05 0)
(2.76832e-05 1.67384e-05 0)
(2.74567e-05 1.64572e-05 0)
(2.71847e-05 1.61588e-05 0)
(2.6867e-05 1.58429e-05 0)
(2.65037e-05 1.55095e-05 0)
(2.60952e-05 1.51585e-05 0)
(2.56422e-05 1.47897e-05 0)
(2.5146e-05 1.44031e-05 0)
(2.46082e-05 1.39989e-05 0)
(2.40312e-05 1.35773e-05 0)
(2.3418e-05 1.31387e-05 0)
(2.2772e-05 1.26836e-05 0)
(2.20974e-05 1.22129e-05 0)
(2.13989e-05 1.17274e-05 0)
(2.06816e-05 1.12284e-05 0)
(1.9951e-05 1.07172e-05 0)
(1.92126e-05 1.01954e-05 0)
(-1.80203e-06 1.31898e-05 0)
(-1.36421e-06 1.25941e-05 0)
(-9.91416e-07 1.19048e-05 0)
(-7.03525e-07 1.11259e-05 0)
(-4.75548e-07 1.03082e-05 0)
(-2.55922e-07 9.564e-06 0)
(-1.68175e-08 8.95029e-06 0)
(2.39438e-07 8.46878e-06 0)
(4.90737e-07 8.12067e-06 0)
(7.00119e-07 7.93543e-06 0)
(8.48082e-07 8.00858e-06 0)
(9.8355e-07 8.46215e-06 0)
(1.21247e-06 9.30277e-06 0)
(1.61011e-06 1.03557e-05 0)
(2.17002e-06 1.14121e-05 0)
(2.84689e-06 1.23774e-05 0)
(3.60129e-06 1.32264e-05 0)
(4.40632e-06 1.39647e-05 0)
(5.24461e-06 1.46076e-05 0)
(6.10482e-06 1.51711e-05 0)
(6.9793e-06 1.56693e-05 0)
(7.86258e-06 1.61137e-05 0)
(8.75057e-06 1.65134e-05 0)
(9.64008e-06 1.68754e-05 0)
(1.05285e-05 1.72056e-05 0)
(1.14138e-05 1.75084e-05 0)
(1.22939e-05 1.77874e-05 0)
(1.31674e-05 1.80454e-05 0)
(1.40325e-05 1.82847e-05 0)
(1.4888e-05 1.85073e-05 0)
(1.57323e-05 1.87144e-05 0)
(1.65641e-05 1.89071e-05 0)
(1.7382e-05 1.90863e-05 0)
(1.81845e-05 1.92525e-05 0)
(1.89703e-05 1.9406e-05 0)
(1.9738e-05 1.95469e-05 0)
(2.0486e-05 1.96752e-05 0)
(2.1213e-05 1.97909e-05 0)
(2.19176e-05 1.98936e-05 0)
(2.25985e-05 1.9983e-05 0)
(2.32544e-05 2.00589e-05 0)
(2.3884e-05 2.01208e-05 0)
(2.44863e-05 2.01684e-05 0)
(2.50601e-05 2.02013e-05 0)
(2.56045e-05 2.02192e-05 0)
(2.61184e-05 2.02219e-05 0)
(2.66012e-05 2.02091e-05 0)
(2.70519e-05 2.01805e-05 0)
(2.74699e-05 2.01362e-05 0)
(2.78546e-05 2.0076e-05 0)
(2.82052e-05 1.99998e-05 0)
(2.85213e-05 1.99078e-05 0)
(2.88022e-05 1.97999e-05 0)
(2.90474e-05 1.96762e-05 0)
(2.92563e-05 1.95368e-05 0)
(2.94284e-05 1.93818e-05 0)
(2.9563e-05 1.92113e-05 0)
(2.96595e-05 1.90253e-05 0)
(2.97173e-05 1.8824e-05 0)
(2.97357e-05 1.86073e-05 0)
(2.9714e-05 1.83753e-05 0)
(2.96515e-05 1.8128e-05 0)
(2.95474e-05 1.78653e-05 0)
(2.94012e-05 1.75871e-05 0)
(2.92121e-05 1.72932e-05 0)
(2.89796e-05 1.69835e-05 0)
(2.87031e-05 1.66578e-05 0)
(2.83825e-05 1.63159e-05 0)
(2.80177e-05 1.59575e-05 0)
(2.76089e-05 1.55824e-05 0)
(2.71566e-05 1.51905e-05 0)
(2.66619e-05 1.47816e-05 0)
(2.61261e-05 1.43556e-05 0)
(2.55512e-05 1.39126e-05 0)
(2.49398e-05 1.34527e-05 0)
(2.4295e-05 1.29763e-05 0)
(2.36205e-05 1.2484e-05 0)
(2.29204e-05 1.19763e-05 0)
(2.21995e-05 1.14543e-05 0)
(2.14628e-05 1.0919e-05 0)
(-2.60038e-06 1.67243e-05 0)
(-2.10245e-06 1.63671e-05 0)
(-1.63878e-06 1.59602e-05 0)
(-1.21608e-06 1.55028e-05 0)
(-8.2784e-07 1.50053e-05 0)
(-4.56953e-07 1.45118e-05 0)
(-8.75825e-08 1.40764e-05 0)
(2.8496e-07 1.37407e-05 0)
(6.53419e-07 1.35365e-05 0)
(1.00472e-06 1.34935e-05 0)
(1.33713e-06 1.36363e-05 0)
(1.68021e-06 1.39688e-05 0)
(2.08654e-06 1.44507e-05 0)
(2.59361e-06 1.50053e-05 0)
(3.20499e-06 1.55695e-05 0)
(3.90104e-06 1.61089e-05 0)
(4.66001e-06 1.66099e-05 0)
(5.46451e-06 1.70695e-05 0)
(6.30174e-06 1.74896e-05 0)
(7.16244e-06 1.78738e-05 0)
(8.0397e-06 1.82257e-05 0)
(8.92823e-06 1.85489e-05 0)
(9.82382e-06 1.88464e-05 0)
(1.0723e-05 1.91211e-05 0)
(1.16229e-05 1.93752e-05 0)
(1.2521e-05 1.96106e-05 0)
(1.34151e-05 1.98291e-05 0)
(1.43031e-05 2.00321e-05 0)
(1.51834e-05 2.02206e-05 0)
(1.6054e-05 2.03956e-05 0)
(1.69135e-05 2.05577e-05 0)
(1.77602e-05 2.07075e-05 0)
(1.85925e-05 2.08452e-05 0)
(1.9409e-05 2.09711e-05 0)
(2.02082e-05 2.10852e-05 0)
(2.09886e-05 2.11874e-05 0)
(2.17488e-05 2.12776e-05 0)
(2.24875e-05 2.13556e-05 0)
(2.32032e-05 2.1421e-05 0)
(2.38948e-05 2.14736e-05 0)
(2.45612e-05 2.1513e-05 0)
(2.5201e-05 2.15389e-05 0)
(2.58134e-05 2.1551e-05 0)
(2.63973e-05 2.1549e-05 0)
(2.69518e-05 2.15326e-05 0)
(2.74762e-05 2.15016e-05 0)
(2.79697e-05 2.14558e-05 0)
(2.84316e-05 2.13952e-05 0)
(2.88612e-05 2.13197e-05 0)
(2.9258e-05 2.12292e-05 0)
(2.96214e-05 2.11237e-05 0)
(2.9951e-05 2.10033e-05 0)
(3.02461e-05 2.0868e-05 0)
(3.05063e-05 2.07178e-05 0)
(3.07311e-05 2.0553e-05 0)
(3.092e-05 2.03734e-05 0)
(3.10725e-05 2.01794e-05 0)
(3.11881e-05 1.99708e-05 0)
(3.12661e-05 1.97479e-05 0)
(3.1306e-05 1.95105e-05 0)
(3.13071e-05 1.92587e-05 0)
(3.1269e-05 1.89926e-05 0)
(3.11908e-05 1.87119e-05 0)
(3.1072e-05 1.84167e-05 0)
(3.0912e-05 1.81069e-05 0)
(3.07101e-05 1.77821e-05 0)
(3.04659e-05 1.74423e-05 0)
(3.01789e-05 1.70872e-05 0)
(2.98489e-05 1.67165e-05 0)
(2.94758e-05 1.633e-05 0)
(2.90598e-05 1.59274e-05 0)
(2.86013e-05 1.55085e-05 0)
(2.81012e-05 1.5073e-05 0)
(2.75607e-05 1.46207e-05 0)
(2.69817e-05 1.41517e-05 0)
(2.63664e-05 1.36659e-05 0)
(2.57175e-05 1.31635e-05 0)
(2.50385e-05 1.26449e-05 0)
(2.43332e-05 1.21107e-05 0)
(2.36058e-05 1.15615e-05 0)
(-3.35691e-06 1.9894e-05 0)
(-2.7955e-06 1.96778e-05 0)
(-2.25101e-06 1.94375e-05 0)
(-1.72559e-06 1.91746e-05 0)
(-1.21762e-06 1.88941e-05 0)
(-7.21515e-07 1.86128e-05 0)
(-2.30665e-07 1.83585e-05 0)
(2.59258e-07 1.8162e-05 0)
(7.49254e-07 1.80481e-05 0)
(1.23955e-06 1.8032e-05 0)
(1.73509e-06 1.81137e-05 0)
(2.24997e-06 1.82778e-05 0)
(2.80439e-06 1.84997e-05 0)
(3.41464e-06 1.87556e-05 0)
(4.08655e-06 1.90296e-05 0)
(4.8158e-06 1.93109e-05 0)
(5.59366e-06 1.95915e-05 0)
(6.4107e-06 1.98662e-05 0)
(7.25842e-06 2.01315e-05 0)
(8.1296e-06 2.03854e-05 0)
(9.01827e-06 2.06267e-05 0)
(9.91944e-06 2.08548e-05 0)
(1.08289e-05 2.10696e-05 0)
(1.17432e-05 2.12714e-05 0)
(1.26591e-05 2.14603e-05 0)
(1.3574e-05 2.1637e-05 0)
(1.44855e-05 2.18016e-05 0)
(1.53912e-05 2.19547e-05 0)
(1.62894e-05 2.20966e-05 0)
(1.71779e-05 2.22274e-05 0)
(1.80551e-05 2.23474e-05 0)
(1.89192e-05 2.24567e-05 0)
(1.97687e-05 2.25553e-05 0)
(2.06019e-05 2.26431e-05 0)
(2.14173e-05 2.27199e-05 0)
(2.22134e-05 2.27856e-05 0)
(2.2989e-05 2.28398e-05 0)
(2.37426e-05 2.28824e-05 0)
(2.44729e-05 2.29129e-05 0)
(2.51788e-05 2.29311e-05 0)
(2.58591e-05 2.29366e-05 0)
(2.65128e-05 2.29292e-05 0)
(2.7139e-05 2.29085e-05 0)
(2.77366e-05 2.28744e-05 0)
(2.83049e-05 2.28265e-05 0)
(2.88431e-05 2.27648e-05 0)
(2.93505e-05 2.26891e-05 0)
(2.98264e-05 2.25993e-05 0)
(3.02703e-05 2.24953e-05 0)
(3.06816e-05 2.23771e-05 0)
(3.10598e-05 2.22447e-05 0)
(3.14043e-05 2.20981e-05 0)
(3.17147e-05 2.19375e-05 0)
(3.19905e-05 2.17627e-05 0)
(3.22312e-05 2.1574e-05 0)
(3.24364e-05 2.13712e-05 0)
(3.26056e-05 2.11546e-05 0)
(3.27383e-05 2.09241e-05 0)
(3.28341e-05 2.06798e-05 0)
(3.28924e-05 2.04216e-05 0)
(3.29127e-05 2.01496e-05 0)
(3.28944e-05 1.98638e-05 0)
(3.2837e-05 1.9564e-05 0)
(3.274e-05 1.92502e-05 0)
(3.26028e-05 1.89222e-05 0)
(3.24249e-05 1.85799e-05 0)
(3.22057e-05 1.8223e-05 0)
(3.19449e-05 1.78515e-05 0)
(3.16421e-05 1.74649e-05 0)
(3.1297e-05 1.70631e-05 0)
(3.09098e-05 1.66456e-05 0)
(3.04805e-05 1.62123e-05 0)
(3.00097e-05 1.57628e-05 0)
(2.94981e-05 1.52969e-05 0)
(2.89469e-05 1.48144e-05 0)
(2.83578e-05 1.43151e-05 0)
(2.77328e-05 1.3799e-05 0)
(2.70746e-05 1.32662e-05 0)
(2.63862e-05 1.27169e-05 0)
(2.56711e-05 1.21517e-05 0)
(-4.04784e-06 2.27614e-05 0)
(-3.42062e-06 2.26162e-05 0)
(-2.80076e-06 2.24592e-05 0)
(-2.18902e-06 2.2293e-05 0)
(-1.58475e-06 2.21216e-05 0)
(-9.85727e-07 2.19527e-05 0)
(-3.88754e-07 2.17988e-05 0)
(2.09458e-07 2.16746e-05 0)
(8.11925e-07 2.1593e-05 0)
(1.42194e-06 2.15606e-05 0)
(2.04422e-06 2.15761e-05 0)
(2.68559e-06 2.16314e-05 0)
(3.35421e-06 2.17171e-05 0)
(4.05729e-06 2.18262e-05 0)
(4.79892e-06 2.19543e-05 0)
(5.57924e-06 2.20973e-05 0)
(6.39534e-06 2.22511e-05 0)
(7.24265e-06 2.24114e-05 0)
(8.11602e-06 2.25745e-05 0)
(9.01036e-06 2.27372e-05 0)
(9.92095e-06 2.28969e-05 0)
(1.08435e-05 2.30518e-05 0)
(1.17743e-05 2.32004e-05 0)
(1.27098e-05 2.33419e-05 0)
(1.36472e-05 2.34756e-05 0)
(1.45835e-05 2.3601e-05 0)
(1.55165e-05 2.37179e-05 0)
(1.64437e-05 2.3826e-05 0)
(1.73631e-05 2.39252e-05 0)
(1.82727e-05 2.40153e-05 0)
(1.91707e-05 2.40961e-05 0)
(2.00553e-05 2.41675e-05 0)
(2.09249e-05 2.42293e-05 0)
(2.17778e-05 2.42812e-05 0)
(2.26125e-05 2.43229e-05 0)
(2.34277e-05 2.43542e-05 0)
(2.42218e-05 2.43746e-05 0)
(2.49936e-05 2.4384e-05 0)
(2.57418e-05 2.43819e-05 0)
(2.64654e-05 2.4368e-05 0)
(2.71632e-05 2.43421e-05 0)
(2.78341e-05 2.43038e-05 0)
(2.84774e-05 2.42529e-05 0)
(2.9092e-05 2.41892e-05 0)
(2.96772e-05 2.41124e-05 0)
(3.02322e-05 2.40225e-05 0)
(3.07564e-05 2.39192e-05 0)
(3.12492e-05 2.38026e-05 0)
(3.17098e-05 2.36724e-05 0)
(3.21377e-05 2.35288e-05 0)
(3.25325e-05 2.33717e-05 0)
(3.28936e-05 2.3201e-05 0)
(3.32206e-05 2.30168e-05 0)
(3.35129e-05 2.28191e-05 0)
(3.37701e-05 2.26079e-05 0)
(3.39917e-05 2.23832e-05 0)
(3.41774e-05 2.2145e-05 0)
(3.43266e-05 2.18934e-05 0)
(3.44389e-05 2.16284e-05 0)
(3.45138e-05 2.13498e-05 0)
(3.4551e-05 2.10576e-05 0)
(3.45499e-05 2.07519e-05 0)
(3.451e-05 2.04325e-05 0)
(3.4431e-05 2.00992e-05 0)
(3.43122e-05 1.97521e-05 0)
(3.41534e-05 1.93908e-05 0)
(3.3954e-05 1.90152e-05 0)
(3.37136e-05 1.86251e-05 0)
(3.3432e-05 1.82202e-05 0)
(3.31088e-05 1.78003e-05 0)
(3.27441e-05 1.7365e-05 0)
(3.23378e-05 1.69141e-05 0)
(3.18901e-05 1.64472e-05 0)
(3.14017e-05 1.5964e-05 0)
(3.08732e-05 1.54644e-05 0)
(3.03059e-05 1.49479e-05 0)
(2.97014e-05 1.44145e-05 0)
(2.90615e-05 1.38641e-05 0)
(2.83888e-05 1.32967e-05 0)
(2.76861e-05 1.27126e-05 0)
(-4.67991e-06 2.54205e-05 0)
(-3.98654e-06 2.53065e-05 0)
(-3.29479e-06 2.51857e-05 0)
(-2.60495e-06 2.50608e-05 0)
(-1.9166e-06 2.49349e-05 0)
(-1.22846e-06 2.48123e-05 0)
(-5.38633e-07 2.46986e-05 0)
(1.5527e-07 2.46003e-05 0)
(8.559e-07 2.45235e-05 0)
(1.5662e-06 2.44714e-05 0)
(2.2895e-06 2.44446e-05 0)
(3.0296e-06 2.44411e-05 0)
(3.79045e-06 2.4458e-05 0)
(4.57559e-06 2.44933e-05 0)
(5.38739e-06 2.45451e-05 0)
(6.22649e-06 2.46113e-05 0)
(7.0919e-06 2.46896e-05 0)
(7.98127e-06 2.47769e-05 0)
(8.89148e-06 2.48706e-05 0)
(9.81903e-06 2.49677e-05 0)
(1.07603e-05 2.50659e-05 0)
(1.1712e-05 2.51632e-05 0)
(1.26706e-05 2.5258e-05 0)
(1.36333e-05 2.5349e-05 0)
(1.45971e-05 2.54351e-05 0)
(1.55594e-05 2.55155e-05 0)
(1.65179e-05 2.55897e-05 0)
(1.74704e-05 2.5657e-05 0)
(1.84146e-05 2.5717e-05 0)
(1.93486e-05 2.57693e-05 0)
(2.02707e-05 2.58137e-05 0)
(2.11789e-05 2.58496e-05 0)
(2.20716e-05 2.58768e-05 0)
(2.29473e-05 2.58949e-05 0)
(2.38045e-05 2.59036e-05 0)
(2.46416e-05 2.59024e-05 0)
(2.54573e-05 2.58911e-05 0)
(2.62505e-05 2.58693e-05 0)
(2.70198e-05 2.58367e-05 0)
(2.77641e-05 2.57929e-05 0)
(2.84824e-05 2.57376e-05 0)
(2.91736e-05 2.56706e-05 0)
(2.98369e-05 2.55916e-05 0)
(3.04714e-05 2.55005e-05 0)
(3.10764e-05 2.5397e-05 0)
(3.16509e-05 2.52809e-05 0)
(3.21944e-05 2.51522e-05 0)
(3.27063e-05 2.50108e-05 0)
(3.31858e-05 2.48565e-05 0)
(3.36325e-05 2.46893e-05 0)
(3.40457e-05 2.45092e-05 0)
(3.44249e-05 2.43161e-05 0)
(3.47698e-05 2.411e-05 0)
(3.50796e-05 2.38908e-05 0)
(3.53541e-05 2.36585e-05 0)
(3.55927e-05 2.34131e-05 0)
(3.57951e-05 2.31545e-05 0)
(3.59607e-05 2.28827e-05 0)
(3.60891e-05 2.25977e-05 0)
(3.618e-05 2.22993e-05 0)
(3.62329e-05 2.19875e-05 0)
(3.62474e-05 2.16621e-05 0)
(3.62231e-05 2.13231e-05 0)
(3.61596e-05 2.09702e-05 0)
(3.60565e-05 2.06035e-05 0)
(3.59135e-05 2.02225e-05 0)
(3.57301e-05 1.98273e-05 0)
(3.55062e-05 1.94175e-05 0)
(3.52413e-05 1.89928e-05 0)
(3.49353e-05 1.85531e-05 0)
(3.4588e-05 1.80981e-05 0)
(3.41995e-05 1.76273e-05 0)
(3.37699e-05 1.71405e-05 0)
(3.32995e-05 1.66375e-05 0)
(3.27888e-05 1.61178e-05 0)
(3.22389e-05 1.55812e-05 0)
(3.16507e-05 1.50275e-05 0)
(3.1026e-05 1.44564e-05 0)
(3.03665e-05 1.3868e-05 0)
(2.96746e-05 1.32622e-05 0)
(-5.26786e-06 2.7947e-05 0)
(-4.50931e-06 2.78434e-05 0)
(-3.74851e-06 2.77352e-05 0)
(-2.98565e-06 2.76244e-05 0)
(-2.22042e-06 2.75133e-05 0)
(-1.45203e-06 2.74047e-05 0)
(-6.79199e-07 2.73016e-05 0)
(9.96856e-08 2.72073e-05 0)
(8.86519e-07 2.71249e-05 0)
(1.68338e-06 2.70565e-05 0)
(2.4925e-06 2.70033e-05 0)
(3.31616e-06 2.69657e-05 0)
(4.15661e-06 2.6943e-05 0)
(5.01575e-06 2.69347e-05 0)
(5.89484e-06 2.69398e-05 0)
(6.79426e-06 2.69569e-05 0)
(7.71344e-06 2.69845e-05 0)
(8.65094e-06 2.70206e-05 0)
(9.60465e-06 2.70632e-05 0)
(1.05721e-05 2.71103e-05 0)
(1.15504e-05 2.71598e-05 0)
(1.25369e-05 2.72101e-05 0)
(1.35288e-05 2.72596e-05 0)
(1.45234e-05 2.73071e-05 0)
(1.55182e-05 2.73514e-05 0)
(1.65106e-05 2.73916e-05 0)
(1.74985e-05 2.7427e-05 0)
(1.84797e-05 2.74569e-05 0)
(1.94521e-05 2.74808e-05 0)
(2.04138e-05 2.7498e-05 0)
(2.13629e-05 2.75081e-05 0)
(2.22978e-05 2.75106e-05 0)
(2.32167e-05 2.75052e-05 0)
(2.41181e-05 2.74915e-05 0)
(2.50006e-05 2.74689e-05 0)
(2.58626e-05 2.74372e-05 0)
(2.6703e-05 2.73959e-05 0)
(2.75203e-05 2.73448e-05 0)
(2.83134e-05 2.72834e-05 0)
(2.90813e-05 2.72115e-05 0)
(2.98229e-05 2.71287e-05 0)
(3.05371e-05 2.70349e-05 0)
(3.12231e-05 2.69297e-05 0)
(3.18801e-05 2.6813e-05 0)
(3.25071e-05 2.66845e-05 0)
(3.31035e-05 2.65442e-05 0)
(3.36686e-05 2.63918e-05 0)
(3.42016e-05 2.62273e-05 0)
(3.4702e-05 2.60506e-05 0)
(3.51691e-05 2.58614e-05 0)
(3.56024e-05 2.56599e-05 0)
(3.60013e-05 2.54458e-05 0)
(3.63653e-05 2.52192e-05 0)
(3.66939e-05 2.49798e-05 0)
(3.69866e-05 2.47277e-05 0)
(3.72429e-05 2.44627e-05 0)
(3.74625e-05 2.41848e-05 0)
(3.76448e-05 2.38939e-05 0)
(3.77894e-05 2.35897e-05 0)
(3.7896e-05 2.32723e-05 0)
(3.79642e-05 2.29414e-05 0)
(3.79936e-05 2.25969e-05 0)
(3.79838e-05 2.22387e-05 0)
(3.79344e-05 2.18665e-05 0)
(3.78453e-05 2.14802e-05 0)
(3.7716e-05 2.10796e-05 0)
(3.75463e-05 2.06644e-05 0)
(3.73359e-05 2.02343e-05 0)
(3.70846e-05 1.97893e-05 0)
(3.67922e-05 1.93288e-05 0)
(3.64587e-05 1.88528e-05 0)
(3.6084e-05 1.83608e-05 0)
(3.56682e-05 1.78525e-05 0)
(3.52116e-05 1.73277e-05 0)
(3.47146e-05 1.67859e-05 0)
(3.41779e-05 1.62269e-05 0)
(3.36023e-05 1.56505e-05 0)
(3.29891e-05 1.50563e-05 0)
(3.23398e-05 1.44442e-05 0)
(3.16564e-05 1.38142e-05 0)
(-5.82564e-06 3.03906e-05 0)
(-5.00336e-06 3.02874e-05 0)
(-4.17599e-06 3.01803e-05 0)
(-3.34377e-06 3.00708e-05 0)
(-2.50656e-06 2.99609e-05 0)
(-1.66388e-06 2.98523e-05 0)
(-8.14958e-07 2.97472e-05 0)
(4.1263e-08 2.96475e-05 0)
(9.06018e-07 2.95553e-05 0)
(1.78067e-06 2.94721e-05 0)
(2.66664e-06 2.93992e-05 0)