/*--------------------------------*- C++ -*----------------------------------*\
  =========                 |
  \\      /  F ield         | OpenFOAM: The Open Source CFD Toolbox
   \\    /   O peration     | Website:  https://openfoam.org
    \\  /    A nd           | Version:  7
     \\/     M anipulation  |
\*---------------------------------------------------------------------------*/
FoamFile
{
    version     2.0;
    format      ascii;
    class       surfaceScalarField;
    location    "10";
    object      alphaPhi;
}
// * * * * * * * * * * * * * * * * * * * * * * * * * * * * * * * * * * * * * //

dimensions      [0 3 -1 0 0 0 0];

internalField   nonuniform List<scalar> 
99520
(
0
0
0
0
0
0
0
0
0
0
0
0
0
0
0
0
0
0
0
0
0
0
0
0
0
0
0
0
0
0
0
0
0
0
0
0
0
0
0
0
0
0
0
0
0
0
0
0
0
8.63689e-315
-7.45997e-315
2.17603e-312
-1.76982e-312
2.58247e-310
-2.06738e-310
2.19223e-308
-1.74556e-308
1.51287e-306
-1.20339e-306
9.00807e-305
-7.17533e-305
4.78559e-303
-3.82338e-303
2.31732e-301
-1.85904e-301
1.03799e-299
-8.36883e-300
4.34844e-298
-3.52593e-298
1.71835e-296
-1.40218e-296
6.45037e-295
-5.30029e-295
2.31397e-293
-1.91581e-293
7.97527e-292
-6.65663e-292
2.65351e-290
-2.23389e-290
8.56007e-289
-7.27226e-289
2.68814e-287
-2.30576e-287
8.2485e-286
-7.14707e-286
2.48166e-284
-2.17328e-284
7.34467e-283
-6.50425e-283
2.14477e-281
-1.92171e-281
6.19787e-280
-5.62129e-280
1.77725e-278
-1.63229e-278
5.07038e-277
-4.71684e-277
1.44129e-275
-1.35896e-275
4.09161e-274
-3.91173e-274
1.16077e-272
-1.1265e-272
3.30227e-271
-3.25278e-271
9.40808e-270
-9.42123e-270
2.695e-268
-2.74262e-268
7.74523e-267
-8.0239e-267
2.23517e-265
-2.36421e-265
6.49503e-264
-6.97891e-264
1.90205e-262
-2.08197e-262
5.59578e-261
-6.25006e-261
1.65804e-259
-1.88986e-259
4.93481e-258
-5.74785e-258
1.47764e-256
-1.75952e-256
4.44182e-255
-5.41214e-255
1.34094e-253
-1.67366e-253
4.06273e-252
-5.19386e-252
1.23361e-250
-1.61804e-250
3.75985e-249
-5.05123e-249
1.14502e-247
-1.58065e-247
3.50428e-246
-4.95117e-246
1.06926e-244
-1.55273e-244
3.28811e-243
-4.87182e-243
1.00505e-241
-1.52953e-241
3.10855e-240
-4.80717e-240
9.55662e-239
-1.51297e-238
2.9946e-237
-4.77766e-237
9.33744e-236
-1.5144e-235
2.9863e-234
-4.83507e-234
9.51654e-233
-1.55554e-232
3.12533e-231
-5.06707e-231
-1.67101e-229
1.00101e-229
0
6.75098e-212
-8.65778e-212
0
0
0
0
0
0
0
0
0
0
0
0
0
0
0
0
0
0
0
0
0
0
0
0
0
0
0
0
4.08275e-296
-1.76837e-296
3.34728e-296
1.7085e-296
1.71518e-296
2.20152e-296
6.50055e-297
1.39504e-296
1.89234e-297
6.34362e-297
4.07359e-298
2.22304e-297
5.68204e-299
5.65137e-298
3.99672e-300
8.87577e-299
-2.92571e-274
-3.28974e-272
5.47179e-256
-7.84565e-256
2.5021e-254
-3.51142e-254
5.19901e-253
-7.59196e-253
6.81288e-252
-1.12813e-251
4.73124e-251
-1.20391e-250
-3.7544e-250
-7.23782e-250
-2.07344e-248
5.14749e-249
-4.71435e-247
2.60461e-247
-8.25335e-246
5.51026e-246
-1.25159e-244
9.07923e-245
-1.72353e-243
1.3077e-243
-2.20996e-242
1.72324e-242
-2.68063e-241
2.12828e-241
-3.10996e-240
2.50085e-240
-3.47994e-239
2.82545e-239
-3.78055e-238
3.09358e-238
-4.00975e-237
3.30336e-237
-4.17152e-236
3.45815e-236
-4.27453e-235
3.5651e-235
-4.33002e-234
3.63357e-234
-4.35048e-233
3.67396e-233
-4.34865e-232
3.69679e-232
-4.33663e-231
3.71215e-231
-4.32494e-230
3.72901e-230
-4.32247e-229
3.7556e-229
-4.33614e-228
3.79899e-228
-4.37641e-227
3.86754e-227
-4.44832e-226
3.9678e-226
-4.56399e-225
4.10897e-225
-4.72543e-224
4.29886e-224
-4.95292e-223
4.54943e-223
-5.25098e-222
4.87307e-222
-5.64374e-221
5.28997e-221
-6.14548e-220
5.82002e-220
-6.79136e-219
6.49649e-219
-7.61221e-218
7.35605e-218
-8.6663e-217
8.45738e-217
-1.00158e-215
9.86922e-216
-1.17619e-214
1.16999e-214
-1.40321e-213
1.40834e-213
-1.70107e-212
1.72279e-212
-2.09658e-211
2.14038e-211
-2.62458e-210
2.70275e-210
-3.34265e-209
3.46671e-209
-4.32026e-208
4.51941e-208
-5.68712e-207
5.98523e-207
-7.58931e-206
8.05537e-206
-1.0327e-204
1.10159e-204
-1.42333e-203
1.53108e-203
-2.00518e-202
2.16393e-202
-2.86264e-201
3.11072e-201
-4.18967e-200
4.555e-200
-6.22203e-199
6.79597e-199
-9.50186e-198
1.03567e-197
-1.47744e-196
1.61282e-196
2.57381e-195
-2.34405e-195
0
1.237e-211
-1.23473e-211
0
0
0
0
0
0
0
0
0
0
0
0
0
0
0
0
0
0
0
0
0
0
0
0
0
0
0
0
1.38637e-295
-5.70875e-296
1.44471e-295
8.66393e-296
8.16896e-296
1.20826e-295
3.47161e-296
7.89181e-296
1.19632e-296
3.83817e-296
3.26825e-297
1.54035e-296
6.23377e-298
4.92208e-297
6.17117e-299
1.0662e-297
-2.54051e-253
-3.82652e-251
5.81406e-236
-7.65363e-236
1.47767e-234
-1.85539e-234
2.03574e-233
-2.49531e-233
2.07634e-232
-2.52171e-232
1.73573e-231
-2.11502e-231
1.23954e-230
-1.53773e-230
7.63452e-230
-9.8653e-230
3.9581e-229
-5.57489e-229
1.54331e-228
-2.6912e-228
1.85761e-228
-9.88064e-228
-4.40052e-227
-1.12976e-227
-6.32057e-226
2.56135e-226
-6.06203e-225
3.54335e-225
-4.95543e-224
3.29197e-224
-3.70372e-223
2.62021e-223
-2.61301e-222
1.91598e-222
-1.772e-221
1.3284e-221
-1.1689e-220
8.89008e-221
-7.56521e-220
5.81037e-220
-4.83552e-219
3.73976e-219
-3.06874e-218
2.3857e-218
-1.94198e-217
1.51604e-217
-1.23e-216
9.6367e-217
-7.81928e-216
6.14772e-216
-5.00162e-215
3.94685e-215
-3.22578e-214
2.55596e-214
-2.1012e-213
1.67258e-213
-1.38871e-212
1.10797e-212
-9.26371e-212
7.45621e-212
-6.26582e-211
5.07552e-211
-4.29865e-210
3.50641e-210
-2.99351e-209
2.46009e-209
-2.11601e-208
1.75298e-208
-1.519e-207
1.2691e-207
-1.10711e-206
9.33266e-207
-8.19458e-206
6.97217e-206
-6.15711e-205
5.28901e-205
-4.69625e-204
4.07396e-204
-3.63445e-203
3.1844e-203
-2.85331e-202
2.52559e-202
-2.27162e-201
2.0311e-201
-1.83324e-200
1.65607e-200
-1.49962e-199
1.36821e-199
-1.24256e-198
1.1453e-198
-1.04348e-197
9.70993e-198
-8.87352e-197
8.33812e-197
-7.65074e-196
7.25217e-196
-6.68029e-195
6.39014e-195
-5.9205e-194
5.70704e-194
-5.31954e-193
5.16848e-193
-4.86073e-192
4.75163e-192
-4.51096e-191
4.43759e-191
-4.26756e-190
4.21692e-190
-4.11466e-189
4.08166e-189
-4.04817e-188
4.03079e-188
4.06624e-187
-4.04229e-187
-1.66004e-309
5.77437e-212
-2.36829e-212
0
6.13708e-309
0
0
0
0
0
0
0
0
0
0
0
0
0
0
0
0
0
0
0
0
0
0
0
0
0
0
4.91726e-295
1.03807e-295
6.54268e-295
6.11749e-295
3.44656e-295
6.77462e-295
1.3602e-295
3.80293e-295
4.53318e-296
1.68699e-295
1.26423e-296
6.58773e-296
2.60709e-297
2.21221e-296
2.69462e-298
5.4365e-297
3.57424e-226
-5.12137e-226
3.36078e-224
-4.2627e-224
5.03853e-223
-6.08633e-223
4.70772e-222
-5.53514e-222
3.39175e-221
-3.93712e-221
2.03903e-220
-2.36748e-220
1.05611e-219
-1.24641e-219
4.72941e-219
-5.82008e-219
1.77083e-218
-2.39543e-218
4.79412e-218
-8.35884e-218
1.19776e-218
-2.13147e-217
-1.06364e-216
-5.05894e-218
-1.0327e-215
4.2986e-216
-7.19866e-215
4.01857e-215
-4.34865e-214
2.7124e-214
-2.41736e-213
1.59473e-213
-1.27209e-212
8.66909e-213
-6.44201e-212
4.48108e-212
-3.174e-211
2.23851e-211
-1.53359e-210
1.0923e-210
-7.31152e-210
5.24679e-210
-3.4566e-209
2.49565e-209
-1.62719e-208
1.1811e-208
-7.65316e-208
5.5831e-208
-3.60747e-207
2.6448e-207
-1.70811e-206
1.2589e-206
-8.14403e-206
6.03536e-206
-3.92658e-205
2.9198e-205
-1.90731e-204
1.43148e-204
-9.37039e-204
7.0828e-204
-4.66237e-203
3.55072e-203
-2.35073e-202
1.80478e-202
-1.20208e-201
9.30732e-202
-6.23497e-201
4.87111e-201
-3.28209e-200
2.5881e-200
-1.75303e-199
1.39588e-199
-9.50336e-199
7.64294e-199
-5.22674e-198
4.24684e-198
-2.91651e-197
2.39453e-197
-1.65029e-196
1.36927e-196
-9.46735e-196
7.93951e-196
-5.50425e-195
4.66502e-195
-3.24169e-194
2.7771e-194
-1.93377e-193
1.6739e-193
-1.16755e-192
1.02149e-192
-7.13835e-192
6.30773e-192
-4.41476e-191
3.94182e-191
-2.7655e-190
2.49218e-190
-1.75212e-189
1.59472e-189
-1.12547e-188
1.03289e-188
-7.31662e-188
6.77629e-188
-4.83113e-187
4.50576e-187
-3.23344e-186
3.03974e-186
-2.20415e-185
2.08326e-185
-1.52724e-184
1.45233e-184
-1.07948e-183
1.03158e-183
7.47684e-183
-7.73565e-183
-4.13173e-291
1.38793e-212
-1.32243e-212
0
8.55449e-291
0
0
6.26797e-311
2.01465e-310
2.49973e-311
1.51794e-310
7.36005e-312
5.55015e-311
3.89533e-312
4.9794e-311
9.96815e-266
-1.61304e-265
1.23759e-264
-1.51051e-264
0
-3.20063e-264
0
0
-1.29741e-302
-2.59092e-300
-3.93727e-242
-5.87737e-242
-6.72046e-242
-8.90318e-242
-8.73624e-242
-6.68488e-242
-3.0091e-241
-1.57879e-241
-2.05207e-241
-3.61572e-241
-6.37297e-242
-1.94491e-241
-1.50212e-242
-5.87658e-242
-2.90526e-243
-1.43056e-242
-4.39547e-244
-2.95986e-243
-4.33638e-245
-4.92775e-244
-1.34828e-246
-5.42161e-245
6.71334e-217
-8.46512e-217
1.52972e-215
-1.84275e-215
1.5144e-214
-1.74266e-214
1.05132e-213
-1.17395e-213
5.8791e-213
-6.4469e-213
2.81002e-212
-3.05972e-212
1.17874e-211
-1.2912e-211
4.3661e-211
-4.9034e-211
1.40319e-210
-1.67277e-210
3.64499e-210
-5.01505e-210
5.42851e-210
-1.22736e-209
-1.57075e-209
-1.73631e-209
-2.01726e-208
4.80529e-209
-1.28106e-207
5.93894e-208
-6.61553e-207
3.64948e-207
-3.07412e-206
1.83297e-206
-1.33803e-205
8.32324e-206
-5.57125e-205
3.55602e-205
-2.24821e-204
1.45956e-204
-8.8721e-204
5.82945e-204
-3.44706e-203
2.28565e-203
-1.32553e-202
8.85523e-203
-5.06681e-202
3.40725e-202
-1.93229e-201
1.30748e-201
-7.37415e-201
5.02051e-201
-2.83285e-200
1.93484e-200
-1.09068e-199
7.52368e-200
-4.23184e-199
2.9398e-199
-1.65706e-198
1.15985e-198
-6.55863e-198
4.62757e-198
-2.62641e-197
1.86895e-197
-1.06527e-196
7.6486e-197
-4.37829e-196
3.1733e-196
-1.82467e-195
1.33551e-195
-7.7114e-195
5.70189e-195
-3.30593e-194
2.47025e-194
-1.43738e-193
1.08567e-193
-6.33857e-193
4.84055e-193
-2.83381e-192
2.18832e-192
-1.2842e-191
1.00295e-191
-5.89613e-191
4.65714e-191
-2.74165e-190
2.1904e-190
-1.29062e-189
1.04278e-189
-6.14739e-189
5.0237e-189
-2.96233e-188
2.44766e-188
-1.4432e-187
1.20587e-187
-7.11089e-187
6.00494e-187
-3.54055e-186
3.02244e-186
-1.78319e-185
1.53762e-185
-9.07706e-185
7.90778e-185
-4.67819e-184
4.11338e-184
-2.43936e-183
2.1651e-183
-1.29003e-182
1.15447e-182
-6.91817e-182
6.24136e-182
-3.77172e-181
3.42685e-181
-2.09054e-180
1.91313e-180
1.08814e-179
-1.1747e-179
-1.01417e-280
-3.46327e-213
-1.40143e-212
0
1.2622e-280
0
0
2.64627e-305
1.18374e-304
1.19239e-305
6.19799e-305
4.49257e-306
2.29725e-305
2.03136e-306
1.37132e-305
-1.96215e-266
-2.33228e-265
-2.17788e-265
-1.81203e-264
-8.82108e-218
2.54839e-217
-2.84963e-216
4.37449e-216
-1.62165e-215
2.36092e-215
-8.85034e-216
3.05533e-215
2.58808e-216
8.39175e-216
-2.80449e-215
-1.72689e-215
-1.65079e-214
-1.66837e-214
-6.29025e-215
-2.49583e-214
-1.10853e-215
-6.85028e-215
-1.6467e-216
-1.11033e-215
-2.09685e-217
-1.6473e-216
-2.02943e-218
-2.18469e-217
-1.03006e-219
-2.27018e-218
1.38123e-211
-1.77765e-211
8.93513e-210
-1.07575e-209
1.0489e-208
-1.19244e-208
7.52133e-208
-8.19023e-208
4.12674e-207
-4.35203e-207
1.89594e-206
-1.95424e-206
7.61997e-206
-7.74366e-206
2.73948e-205
-2.77086e-205
8.88454e-205
-9.05739e-205
2.58758e-204
-2.71156e-204
6.5925e-204
-7.37395e-204
1.34799e-203
-1.77044e-203
1.41124e-203
-3.43763e-203
-5.43366e-203
-3.44036e-203
-4.89575e-202
1.27374e-202
-2.50811e-201
1.10953e-201
-1.06889e-200
5.52296e-201
-4.13909e-200
2.29781e-200
-1.51027e-199
8.72557e-200
-5.29417e-199
3.13549e-199
-1.80466e-198
1.08692e-198
-6.03233e-198
3.67826e-198
-1.98978e-197
1.22521e-197
-6.50849e-197
4.04159e-197
-2.11983e-196
1.32652e-196
-6.92257e-196
4.34896e-196
-2.25629e-195
1.43373e-195
-7.38594e-195
4.73039e-195
-2.43361e-194
1.57143e-194
-8.0842e-194
5.2659e-194
-2.71178e-193
1.78259e-193
-9.19512e-193
6.10344e-193
-3.15512e-192
2.11552e-192
-1.09613e-191
7.4284e-192
-3.85812e-191
2.64349e-191
-1.37596e-190
9.53655e-191
-4.97367e-190
3.48774e-190
-1.82182e-189
1.29304e-189
-6.7622e-189
4.85837e-189
-2.54252e-188
1.84946e-188
-9.6813e-188
7.13031e-188
-3.73187e-187
2.7828e-187
-1.45571e-186
1.099e-186
-5.74467e-186
4.38967e-186
-2.29233e-185
1.77285e-185
-9.24999e-185
7.2362e-185
-3.77201e-184
2.98497e-184
-1.55532e-183
1.24394e-183
-6.47905e-183
5.23861e-183
-2.73004e-182
2.2289e-182
-1.1623e-181
9.58757e-182
-5.00945e-181
4.16908e-181
-2.18275e-180
1.83451e-180
-9.64028e-180
8.17005e-180
-4.31042e-179
3.68739e-179
-1.95719e-178
1.68756e-178
-9.01309e-178
7.84158e-178
3.7047e-177
-4.19931e-177
-2.38144e-241
3.0581e-204
2.73356e-204
-4.6417e-258
2.88087e-241
-2.32105e-258
1.18175e-257
-6.5435e-263
4.82737e-257
7.6532e-262
7.86623e-261
4.23482e-262
2.51762e-261
1.12694e-262
1.17604e-261
1.77705e-263
1.83941e-262
4.18218e-264
1.79145e-263
3.56371e-218
3.78851e-217
3.31166e-217
6.45729e-216
4.18786e-216
3.77887e-215
-5.76967e-202
-2.9053e-201
-1.13396e-186
-1.10006e-186
-3.3457e-186
-2.14981e-186
-2.01557e-186
-5.0844e-186
-9.81081e-188
-2.53249e-186
-2.3251e-189
-9.94396e-188
-1.00671e-190
-2.20793e-189
-4.66038e-192
-9.62571e-191
-1.39656e-193
-4.56713e-192
-8.87664e-201
-1.40431e-193
-1.47217e-198
1.29757e-198
-2.80471e-197
2.32645e-197
-2.91699e-196
2.30586e-196
-2.18707e-195
1.66814e-195
-1.32691e-194
9.85996e-195
-6.91025e-194
5.03593e-194
-3.19668e-193
2.29495e-193
-1.3427e-192
9.52557e-193
-5.19933e-192
3.65332e-192
-1.87704e-191
1.30867e-191
-6.373e-191
4.4154e-191
-2.04937e-190
1.41285e-190
-6.27873e-190
4.31247e-190
-1.8422e-189
1.26201e-189
-5.20018e-189
3.55693e-189
-1.41836e-188
9.69589e-189
-3.75354e-188
2.56643e-188
-9.67794e-188
6.62211e-188
-2.44161e-187
1.67227e-187
-6.0551e-187
4.15002e-187
-1.48359e-186
1.01664e-186
-3.61155e-186
2.47047e-186
-8.78838e-186
5.98783e-186
-2.14311e-185
1.45614e-185
-5.31573e-185
3.56077e-185
-1.34236e-184
8.88707e-185
-3.46367e-184
2.265e-184
-9.15016e-184
5.91588e-184
-2.47385e-183
1.58593e-183
-6.83538e-183
4.3617e-183
-1.92557e-182
1.22833e-182
-5.52273e-182
3.5335e-182
-1.61174e-181
1.03629e-181
-4.79619e-181
3.09669e-181
-1.46121e-180
9.4431e-181
-4.59036e-180
2.95064e-180
-1.49897e-179
9.50955e-180
-5.12835e-179
3.18703e-179
-1.84496e-178
1.11889e-178
-6.96731e-178
4.13069e-178
-2.73999e-177
1.6e-177
-1.1095e-176
6.45212e-177
-4.56958e-176
2.6773e-176
-1.89268e-175
1.12938e-175
-7.81171e-175
4.78795e-175
-3.18609e-174
2.02133e-174
-1.27639e-173
8.4286e-174
-4.98592e-173
3.44949e-173
-1.88936e-172
1.37638e-172
-6.88285e-172
5.32313e-172
-2.39358e-171
1.98004e-171
-7.82753e-171
7.02477e-171
-2.36776e-170
2.34637e-170
-6.38083e-170
7.24352e-170
-1.42029e-169
1.99586e-169
-1.93491e-169
4.53891e-169
3.0294e-169
6.32852e-169
-1.01567e-168
3.71022e-168
-4.65295e-222
9.36781e-202
4.76307e-202
-4.02406e-241
6.81094e-222
-2.19876e-246
9.63398e-241
-5.83792e-261
1.30537e-245
5.40328e-262
5.99846e-260
7.39321e-262
8.96512e-261
2.01922e-262
4.25097e-261
4.6154e-263
5.96563e-262
1.55358e-263
7.43789e-263
7.027e-218
4.85803e-217
1.67705e-216
8.10409e-216
1.75164e-215
4.80636e-215
-3.30341e-201
-5.65861e-201
-2.66197e-184
-2.56713e-184
1.525e-180
2.06729e-180
2.07575e-181
4.28388e-180
5.65368e-189
2.10551e-181
1.24971e-190
-1.01839e-187
2.32516e-192
-2.1412e-189
-4.70414e-191
-5.85565e-191
-2.14156e-189
1.65149e-189
-7.55178e-188
5.6516e-188
-1.50219e-186
1.06711e-186
-1.86001e-185
1.25079e-185
-1.65978e-184
1.06601e-184
-1.17881e-183
7.3156e-184
-7.07687e-183
4.2843e-183
-3.72629e-182
2.21521e-182
-1.76258e-181
1.03344e-181
-7.6149e-181
4.41667e-181
-3.04178e-180
1.74899e-180
-1.13406e-179
6.47523e-180
-3.97639e-179
2.25778e-179
-1.3195e-178
7.46004e-179
-4.16601e-178
2.34819e-178
-1.25724e-177
7.07422e-178
-3.64147e-177
2.0482e-177
-1.01593e-176
5.72052e-177
-2.73905e-176
1.54645e-176
-7.15754e-176
4.05894e-176
-1.81769e-175
1.03725e-175
-4.49716e-175
2.5874e-175
-1.08638e-174
6.31485e-175
-2.5677e-174
1.51117e-174
-5.93244e-174
3.55246e-174
-1.34789e-173
8.19448e-174
-3.01121e-173
1.86595e-173
-6.62203e-173
4.19225e-173
-1.43524e-172
9.30264e-173
-3.06807e-172
2.04053e-172
-6.47414e-172
4.42707e-172
-1.349e-171
9.50418e-172
-2.77701e-171
2.01935e-171
-5.64715e-171
4.24642e-171
-1.1346e-170
8.83597e-171
-2.25102e-170
1.81867e-170
-4.40918e-170
3.70054e-170
-8.51798e-170
7.43822e-170
-1.62173e-169
1.47547e-169
-3.0368e-169
2.88459e-169
-5.57761e-169
5.54749e-169
-9.98297e-169
1.04604e-168
-1.71709e-168
1.92172e-168
-2.73695e-168
3.39054e-168
-3.61407e-168
5.54095e-168
-1.97104e-168
7.49566e-168
1.07963e-167
4.18527e-168
5.60271e-167
-2.34524e-167
1.31242e-166
-1.24414e-166
-2.71496e-166
-2.97763e-166
-5.76327e-165
6.2883e-166
-4.71214e-164
1.36261e-164
-3.01039e-163
1.13632e-163
-1.6846e-162
7.40797e-163
-8.54804e-162
4.22689e-162
-3.99674e-161
2.18901e-161
-1.7277e-160
1.04347e-160
-6.91181e-160
4.59858e-160
-2.55936e-159
1.8741e-159
7.06794e-159
-8.72545e-159
3.71032e-208
-2.23081e-198
-7.22505e-199
8.5879e-221
-6.95725e-208
2.02222e-232
-2.14663e-220
2.12163e-243
-9.14552e-232
3.06722e-251
-1.69292e-242
-1.57862e-251
-8.14008e-250
-3.83273e-252
-1.52706e-250
-8.71369e-253
-1.28514e-251
-3.17312e-246
1.80002e-246
1.05074e-217
5.97947e-217
-8.03308e-209
8.19098e-209
1.12686e-191
2.85111e-191
-1.37626e-178
-2.40569e-178
-4.12789e-175
-6.07379e-175
5.97311e-173
2.39742e-172
-1.49623e-182
1.37921e-172
-9.4372e-185
2.26754e-181
-1.18066e-183
7.93436e-184
-1.31015e-182
9.67969e-183
-1.55157e-181
1.20508e-181
-1.96114e-180
1.55169e-180
-2.3135e-179
1.81715e-179
-2.21413e-178
1.69695e-178
-1.64898e-177
1.22703e-177
-9.81531e-177
7.12639e-177
-4.8556e-176
3.47172e-176
-2.05745e-175
1.46318e-175
-7.60601e-175
5.43711e-175
-2.47143e-174
1.7994e-174
-7.0196e-174
5.31428e-174
-1.6928e-173
1.38807e-173
-3.1355e-173
3.10738e-173
-2.40572e-173
5.38509e-173
1.41223e-172
3.89204e-173
9.90634e-172
-2.16523e-172
4.28325e-171
-1.44736e-171
1.53876e-170
-5.99439e-171
4.9654e-170
-2.07294e-170
1.48848e-169
-6.46964e-170
4.22234e-169
-1.8845e-169
1.14677e-168
-5.21814e-169
3.0066e-168
-1.38963e-168
7.65651e-168
-3.58827e-168
1.91741e-167
-9.03884e-168
4.66395e-167
-2.24841e-167
1.11533e-166
-5.45515e-167
2.62915e-166
-1.30631e-166
6.12395e-166
-3.09531e-166
1.41207e-165
-7.27235e-166
3.22885e-165
-1.69707e-165
7.33029e-165
-3.93851e-165
1.65428e-164
-9.09976e-165
3.71378e-164
-2.09484e-164
8.30036e-164
-4.80745e-164
1.84731e-163
-1.10013e-163
4.09571e-163
-2.5106e-163
9.04435e-163
-5.71291e-163
1.98942e-162
-1.29592e-162
4.35675e-162
-2.92912e-162
9.49836e-162
-6.59376e-162
2.06038e-161
-1.47737e-161
4.44723e-161
-3.29319e-161
9.55191e-161
-7.30007e-161
2.04373e-160
-1.60957e-160
4.3648e-160
-3.53228e-160
9.34142e-160
-7.73257e-160
2.01598e-159
-1.69468e-159
4.42354e-159
-3.74227e-159
9.96712e-159
-8.39499e-159
2.32239e-158
-1.9322e-158
5.61085e-158
-4.59629e-158
1.3953e-157
-1.13273e-157
3.52862e-157
-2.87319e-157
8.90899e-157
-7.40604e-157
2.21054e-156
-1.90684e-156
5.30194e-156
-4.82237e-156
1.21223e-155
-1.17948e-155
2.60826e-155
-2.75116e-155
5.20173e-155
-6.04485e-155
-1.23477e-154
9.26714e-155
1.37468e-187
-2.7374e-185
-5.86287e-186
6.90434e-193
-3.30398e-187
2.44686e-199
-1.81004e-192
-2.34397e-201
-9.57053e-199
-8.84449e-201
1.47764e-200
-2.6802e-200
1.1496e-199
9.80237e-201
1.21977e-198
-6.14494e-196
6.82871e-195
4.82182e-184
5.17391e-183
-1.34795e-176
5.63332e-177
6.71996e-171
4.15946e-170
2.68117e-165
7.45044e-165
1.91846e-164
4.17182e-164
2.52746e-164
6.6662e-164
-6.3847e-173
3.86985e-164
9.18342e-177
1.56052e-170
2.84088e-175
-6.79808e-176
4.51579e-174
-1.62891e-174
5.69212e-173
-2.53189e-173
6.7556e-172
-3.34231e-172
7.93231e-171
-4.08168e-171
8.85203e-170
-4.54689e-170
8.73926e-169
-4.40321e-169
7.30006e-168
-3.61119e-168
5.12217e-167
-2.51301e-167
3.05407e-166
-1.50221e-166
1.57151e-165
-7.81312e-166
7.07393e-165
-3.57555e-165
2.81269e-164
-1.45296e-164
9.93437e-164
-5.27684e-164
3.12161e-163
-1.71849e-163
8.71026e-163
-5.01847e-163
2.14844e-162
-1.31024e-162
4.65642e-162
-3.04223e-162
8.81559e-162
-6.24083e-162
1.45522e-161
-1.12406e-161
2.12198e-161
-1.7739e-161
2.89558e-161
-2.48468e-161
4.28765e-161
-3.27195e-161
8.20048e-161
-4.69722e-161
1.62382e-160
-5.52232e-161
2.72338e-160
-8.50046e-161
3.86209e-160
-1.3104e-160
4.38318e-160
-1.23849e-160
4.467e-160
-2.02961e-160
4.65089e-160
-2.33539e-160
7.00698e-160
-3.48587e-160
1.14646e-159
-5.31632e-160
1.88678e-159
-8.68508e-160
3.06648e-159
-1.43174e-159
4.95873e-159
-2.3909e-159
9.30027e-159
-5.25777e-159
1.79785e-158
-1.00755e-158
3.48002e-158
-1.99244e-158
6.75378e-158
-3.95286e-158
1.31535e-157
-7.87346e-158
2.5732e-157
-1.57572e-157
5.05894e-157
-3.16967e-157
9.99924e-157
-6.41144e-157
1.98635e-156
-1.30388e-156
3.96253e-156
-2.6651e-156
7.92138e-156
-5.46788e-156
1.58107e-155
-1.12373e-155
3.12911e-155
-2.30397e-155
6.06044e-155
-4.68063e-155
1.11634e-154
-9.29614e-155
1.81351e-154
-1.75437e-154
1.91539e-154
-2.91685e-154
-2.65453e-154
-3.14989e-154
-1.53803e-152
1.511e-152
-8.90236e-151
8.74845e-151
-2.15982e-149
9.15802e-150
-1.42289e-148
3.87329e-149
-8.71821e-148
2.66489e-148
-3.65054e-148
4.33541e-148
-8.60121e-148
5.71464e-148
-1.90823e-147
1.27969e-147
-1.4604e-147
2.46694e-147
-1.45507e-147
2.90923e-147
2.96317e-147
-1.41272e-147
5.46658e-171
-3.77472e-170
-5.34765e-171
9.57301e-171
-1.68656e-170
-2.60246e-170
-2.70626e-170
-1.57376e-169
9.42947e-170
-5.54885e-169
8.27636e-169
-1.67818e-168
4.86713e-168
-3.56432e-168
2.9677e-167
1.20077e-167
2.69685e-166
2.25688e-159
-2.14073e-157
1.05304e-159
8.45824e-158
1.31526e-159
5.89228e-159
2.02554e-159
6.55208e-159
-8.04449e-159
-2.45622e-158
-3.18233e-159
-2.06721e-158
-4.69665e-167
-3.79905e-159
-1.35103e-166
4.88136e-166
-4.26418e-166
6.83825e-166
-8.59204e-166
-8.55439e-166
-5.80957e-165
2.9958e-165
-3.617e-164
1.86356e-164
-2.74333e-163
1.61019e-163
-2.14717e-162
1.19972e-162
-1.64796e-161
8.26879e-162
-1.21865e-160
5.46379e-161
-8.56238e-160
3.48605e-160
-5.59104e-159
2.14198e-159
-3.33261e-158
1.24251e-158
-1.79893e-157
6.67335e-158
-8.86241e-157
3.29083e-157
-3.9818e-156
1.09682e-156
-1.9986e-155
5.85462e-156
-7.18974e-155
2.2964e-155
-2.14915e-154
6.83777e-155
-5.93207e-154
1.8078e-154
-1.82184e-153
5.40733e-154
-6.54466e-153
2.09565e-153
-2.23199e-152
7.82562e-153
-6.52155e-152
2.38161e-152
-1.63981e-151
5.99429e-152
-3.6194e-151
1.29349e-151
-7.04012e-151
2.40033e-151
-1.15589e-150
3.76061e-151
-1.589e-150
4.56598e-151
-1.68771e-150
3.52247e-151
-1.65893e-150
6.95126e-151
-1.72396e-150
8.68589e-151
-2.81731e-150
1.47314e-150
-4.78292e-150
2.25578e-150
-8.14305e-150
3.8066e-150
-1.37695e-149
6.53898e-150
-2.31108e-149
1.12236e-149
-3.85331e-149
1.91931e-149
-6.38911e-149
3.27e-149
-1.05439e-148
5.55417e-149
-1.73332e-148
9.40862e-149
-2.83986e-148
1.59029e-148
-4.63953e-148
2.6823e-148
-7.55918e-148
4.51543e-148
-1.22849e-147
7.58493e-148
-1.99099e-147
1.27121e-147
-3.21726e-147
2.12457e-147
-5.1805e-147
3.53942e-147
-8.30773e-147
5.87298e-147
-1.3256e-146
9.69915e-147
-2.1024e-146
1.59256e-146
-3.30958e-146
2.59694e-146
-5.16099e-146
4.19944e-146
-7.94839e-146
6.72102e-146
-1.20185e-145
1.06154e-145
-1.76207e-145
1.64544e-145
-2.42365e-145
2.47416e-145
-2.8171e-145
3.50109e-145
-1.4253e-145
4.2443e-145
8.978e-145
2.26257e-145
6.00394e-144
-1.44982e-144
2.80525e-143
-9.86123e-144
1.19663e-142
-4.68512e-143
5.87444e-142
-2.06715e-142
9.46778e-143
-3.24282e-142
-1.67458e-142
9.83716e-143
-4.83647e-161
1.34904e-160
1.20743e-161
-4.52776e-161
1.89327e-160
-5.81781e-161
1.42692e-160
-4.70137e-161
1.18537e-160
-3.84398e-161
1.20637e-160
-2.63373e-161
1.16182e-160
-1.40958e-161
1.14714e-160
7.00853e-162
1.038e-160
-3.91736e-154
-4.31343e-153
2.59113e-152
5.78057e-154
-1.6157e-152
7.45659e-157
-1.39423e-150
1.37805e-150
-6.68416e-151
1.36552e-150
-8.68808e-150
8.83733e-150
1.78161e-148
-1.85822e-148
1.78007e-152
1.78143e-148
2.45455e-155
1.77762e-152
-3.68127e-156
2.30364e-155
-2.30569e-156
-1.43191e-156
-3.05392e-157
-2.0719e-156
-4.82951e-157
2.07398e-157
-1.63785e-156
1.36775e-156
-5.13002e-156
4.35579e-156
-1.42171e-155
1.22644e-155
-3.40103e-155
3.04642e-155
-6.70987e-155
6.5807e-155
-9.41581e-155
1.18664e-154
-1.93345e-155
1.55472e-154
5.45546e-154
2.88196e-155
3.09862e-153
-8.64283e-154
1.23963e-152
-4.51083e-153
4.30086e-152
-1.69007e-152
1.36364e-151
-5.5011e-152
4.04524e-151
-1.64182e-151
1.13797e-150
-4.60273e-151
3.06257e-150
-1.2287e-150
7.93382e-150
-3.15104e-150
1.98775e-149
-7.81201e-150
4.83778e-149
-1.88162e-149
1.17236e-148
-4.42689e-149
2.71479e-148
-1.04002e-148
6.1646e-148
-2.35041e-148
1.37515e-147
-5.22648e-148
3.01261e-147
-1.14778e-147
6.4572e-147
-2.48479e-147
1.35414e-146
-5.28785e-147
2.66998e-146
-1.01373e-146
5.24605e-146
-2.00388e-146
1.02387e-145
-3.96573e-146
1.987e-145
-7.83003e-146
3.83821e-145
-1.54347e-145
7.3874e-145
-3.03936e-145
1.41765e-144
-5.98237e-145
2.71428e-144
-1.17716e-144
5.18623e-144
-2.31612e-144
9.89237e-144
-4.55554e-144
1.88335e-143
-8.95604e-144
3.57874e-143
-1.75888e-143
6.78371e-143
-3.44912e-143
1.28229e-142
-6.74773e-143
2.41491e-142
-1.31604e-142
4.52816e-142
-2.55603e-142
8.44382e-142
-4.93876e-142
1.56429e-141
-9.48125e-142
2.87514e-141
-1.80621e-141
5.2358e-141
-3.4097e-141
9.43277e-141
-6.36874e-141
1.67836e-140
-1.17529e-140
2.94484e-140
-2.13903e-140
5.08388e-140
-3.83382e-140
8.61978e-140
-6.7523e-140
1.4297e-139
-1.16651e-139
2.30724e-139
-1.96942e-139
3.56963e-139
-3.23159e-139
5.11313e-139
-5.08063e-139
6.05192e-139
-7.38979e-139
2.99403e-139
-8.88229e-139
-1.28911e-138
-4.46306e-139
-4.75681e-138
1.19298e-138
5.6069e-138
-1.25916e-137
3.03793e-154
-1.0383e-152
-5.05448e-154
9.08381e-154
-1.592e-153
3.2536e-154
-3.27229e-153
-1.22175e-153
-5.19536e-153
1.58643e-153
-8.76107e-153
1.21721e-153
-1.29842e-152
1.50891e-153
-1.31416e-152
1.11541e-152
-4.7962e-152
4.70774e-150
-1.03236e-149
-2.56456e-145
-2.31339e-144
3.06381e-145
2.05675e-144
1.88914e-146
1.30536e-145
5.46735e-146
9.37352e-147
9.78983e-146
3.40581e-147
1.91271e-144
-1.02078e-144
1.85885e-145
1.4759e-144
1.6287e-146
1.68822e-145
5.27714e-148
1.82981e-146
3.96139e-149
4.87743e-148
1.52716e-148
-1.16975e-148
5.91682e-148
-4.59422e-148
2.20159e-147
-1.68606e-147
7.71851e-147
-5.78422e-147
2.52226e-146
-1.83618e-146
7.67068e-146
-5.39972e-146
2.17982e-145
-1.48054e-145
5.82162e-145
-3.81265e-145
1.46975e-144
-9.2815e-145
3.52622e-144
-2.1479e-144
8.07869e-144
-4.74804e-144
1.77511e-143
-1.00694e-143
3.75573e-143
-2.05692e-143
7.67714e-143
-4.06215e-143
1.51984e-142
-7.78046e-143
2.91763e-142
-1.44874e-142
5.43458e-142
-2.6258e-142
9.83502e-142
-4.63589e-142
1.73547e-141
-7.98454e-142
2.99274e-141
-1.34668e-141
5.05156e-141
-2.17116e-141
8.2383e-141
-3.39575e-141
1.30603e-140
-5.12483e-141
2.02032e-140
-7.5021e-141
3.01315e-140
-1.02188e-140
4.31629e-140
-1.32814e-140
5.93539e-140
-1.64663e-140
7.84895e-140
-1.94043e-140
1.00009e-139
-2.17128e-140
1.23257e-139
-2.32807e-140
1.47472e-139
-2.39281e-140
1.72257e-139
-2.40274e-140
1.97379e-139
-2.3627e-140
2.23359e-139
-2.35233e-140
2.50911e-139
-2.37313e-140
2.81737e-139
-2.5321e-140
3.17662e-139
-2.81241e-140
3.619e-139
-3.36414e-140
4.1797e-139
-4.16966e-140
4.91819e-139
-5.48301e-140
5.90579e-139
-7.34477e-140
7.26251e-139
-1.02497e-139
9.14525e-139
-1.44451e-139
1.18162e-138
-2.09858e-139
1.56411e-138
-3.0739e-139
2.12253e-138
-4.61055e-139
2.9456e-138
-6.97515e-139
4.1785e-138
-1.07383e-138
6.04258e-138
-1.66837e-138
8.89522e-138
-2.6192e-138
1.33002e-137
-4.15122e-138
2.01584e-137
-6.60383e-138
3.11946e-137
-1.08675e-137
6.19095e-137
-3.06944e-137
3.0001e-136
-7.70688e-137
2.41845e-135
-3.79161e-136
1.6121e-134
-3.09921e-135
7.49845e-134
-2.09355e-134
2.66905e-133
-9.87115e-134
7.96888e-133
-3.5638e-133
-1.08137e-132
2.11096e-132
1.23203e-145
-1.45502e-145
-2.12069e-147
6.42333e-145
-8.7641e-145
2.29821e-144
-2.70748e-144
1.80118e-143
-8.90642e-144
2.09558e-143
-7.89764e-143
1.19767e-143
-6.56122e-143
6.95015e-143
-9.18645e-143
1.13576e-141
-8.67182e-142
-1.03571e-141
-4.80402e-141
-3.2164e-138
-1.87056e-138
3.10167e-140
-3.27531e-138
-2.16225e-141
-4.83631e-140
2.98873e-142
-3.15879e-138
-1.01174e-142
-4.38589e-141
-4.16221e-141
-1.54089e-141
-1.75054e-140
1.29689e-140
-6.39166e-140
4.87837e-140
-2.16977e-139
1.63124e-139
-7.29953e-139
5.35577e-139
-2.41529e-138
1.75213e-138
-7.78298e-138
5.57606e-138
-2.41072e-137
1.69721e-137
-7.09599e-137
4.87675e-137
-1.97456e-136
1.31763e-136
-5.19371e-136
3.35316e-136
-1.2948e-135
8.07216e-136
-3.07045e-135
1.8466e-135
-6.95031e-135
4.03037e-135
-1.50667e-134
8.4218e-135
-3.13696e-134
1.68987e-134
-6.28998e-134
3.26475e-134
-1.21768e-133
6.08789e-134
-2.28155e-133
1.09834e-133
-4.14734e-133
1.92172e-133
-7.33004e-133
3.26865e-133
-1.2617e-132
5.41717e-133
-2.117e-132
8.76437e-133
-3.44809e-132
1.38612e-132
-5.49719e-132
2.13501e-132
-8.55376e-132
3.22864e-132
-1.30486e-131
4.78612e-132
-1.96438e-131
6.98506e-132
-2.93159e-131
1.01042e-131
-4.26449e-131
1.35696e-131
-6.03046e-131
1.79364e-131
-8.29259e-131
2.29212e-131
-1.11028e-130
2.83941e-131
-1.44987e-130
3.41672e-131
-1.85204e-130
4.02434e-131
-2.32157e-130
4.66033e-131
-2.86817e-130
5.37077e-131
-3.50703e-130
6.19173e-131
-4.2658e-130
7.24351e-131
-5.18471e-130
8.61545e-131
-6.32872e-130
1.05468e-130
-7.78927e-130
1.32315e-130
-9.70874e-130
1.71578e-130
-1.22904e-129
2.2796e-130
-1.58526e-129
3.12388e-130
-2.08649e-129
4.37273e-130
-2.80752e-129
6.2906e-130
-3.86241e-129
9.21739e-130
-5.4359e-129
1.38302e-129
-7.81748e-129
2.10833e-129
-1.14828e-128
3.27832e-129
-1.7193e-128
5.16564e-129
-2.62112e-128
8.26513e-129
-4.05907e-128
1.33654e-128
-6.37602e-128
2.1838e-128
-1.01359e-127
3.59731e-128
-1.62837e-127
5.95833e-128
-2.63915e-127
9.93089e-128
-4.31043e-127
1.65741e-127
-7.08854e-127
2.78092e-127
-1.17313e-126
4.65966e-127
-1.9545e-126
7.85364e-127
-3.27973e-126
1.32203e-126
-5.55225e-126
2.24354e-126
-9.50765e-126
3.83199e-126
6.70935e-126
-1.6482e-125
-6.61749e-139
6.61748e-139
1.88844e-145
-9.42686e-136
9.42024e-136
-4.93676e-133
4.92733e-133
-1.19507e-131
2.27719e-132
-1.18214e-131
4.70537e-131
-1.02074e-131
4.56603e-131
-3.24396e-131
6.96439e-131
-1.10285e-130
1.37833e-130
-4.8716e-132
-2.32665e-130
2.79874e-128
-2.79255e-128
-5.79244e-134
2.84135e-128
1.22177e-133
-2.0996e-133
1.18502e-132
-2.32962e-132
2.47682e-132
-7.68928e-132
3.6712e-132
-9.99066e-132
8.93188e-132
-1.18393e-131
3.0551e-131
-2.57537e-131
1.07784e-130
-8.26703e-131
3.72148e-130
-2.79081e-130
1.25153e-129
-9.25578e-130
4.06571e-129
-2.96973e-129
1.27085e-128
-9.08166e-129
3.78085e-128
-2.63441e-128
1.06542e-127
-7.2013e-128
2.84064e-127
-1.85629e-127
7.17599e-127
-4.52517e-127
1.72209e-126
-1.04682e-126
3.93791e-126
-2.30595e-126
8.6071e-126