/*--------------------------------*- C++ -*----------------------------------*\
  =========                 |
  \\      /  F ield         | OpenFOAM: The Open Source CFD Toolbox
   \\    /   O peration     | Website:  https://openfoam.org
    \\  /    A nd           | Version:  7
     \\/     M anipulation  |
\*---------------------------------------------------------------------------*/
FoamFile
{
    version     2.0;
    format      ascii;
    class       volScalarField;
    location    "10";
    object      alpha.wetting;
}
// * * * * * * * * * * * * * * * * * * * * * * * * * * * * * * * * * * * * * //

dimensions      [0 0 0 0 0 0 0];

internalField   nonuniform List<scalar> 
49920
(
-9.36273e-317
1.32561e-316
1.65413e-316
1.44487e-316
2.22532e-316
1.24402e-316
2.09402e-316
1.90393e-316
1.67801e-316
2.07108e-316
2.18863e-316
1.67279e-316
1.47427e-316
1.76042e-316
1.22099e-316
-1.00763e-316
-5.89795e-317
-9.03078e-317
-9.25476e-317
-1.25852e-316
-1.27289e-316
-1.27926e-316
1.28197e-316
1.28332e-316
-1.00504e-306
-2.39015e-304
-2.79589e-302
-2.36268e-300
-1.62973e-298
-9.72131e-297
-5.18151e-295
-2.52e-293
-1.13465e-291
-4.78133e-290
-1.90174e-288
-7.18979e-287
-2.59918e-285
-9.03245e-284
-3.03166e-282
-9.87082e-281
-3.13013e-279
-9.70375e-278
-2.95113e-276
-8.83338e-275
-2.61019e-273
-7.63608e-272
-2.21757e-270
-6.40874e-269
-1.84656e-267
-5.31581e-266
-1.53091e-264
-4.42088e-263
-1.28044e-261
-3.72776e-260
-1.09055e-258
-3.21351e-257
-9.48553e-256
-2.82987e-254
-8.4948e-253
-2.56867e-251
-7.81197e-250
-2.39141e-248
-7.35541e-247
-2.27458e-245
-7.05845e-244
-2.19887e-242
-6.86437e-241
-2.14792e-239
-6.72819e-238
-2.10985e-236
-6.62025e-235
-2.07821e-233
-6.53231e-232
-2.05562e-230
-6.49222e-229
-2.0575e-227
-6.5702e-226
-2.11332e-224
-6.8852e-223
-2.27033e-221
-1.58127e-203
1.29873e-316
1.50956e-316
1.89327e-316
1.92064e-316
1.45657e-316
2.20003e-316
1.5893e-316
2.06588e-316
1.91277e-316
1.80387e-316
1.99695e-316
1.51112e-316
1.56666e-316
1.39846e-316
7.28608e-288
2.96524e-288
1.73084e-288
1.00262e-288
5.27293e-289
2.24358e-289
6.54335e-290
1.10506e-290
-4.24542e-264
-1.03112e-247
-4.66075e-246
-1.01343e-244
-1.51115e-243
-1.61634e-242
-9.73282e-242
6.93017e-241
3.50996e-239
7.43158e-238
1.22538e-236
1.76612e-235
2.32883e-234
2.87803e-233
3.38396e-232
3.82556e-231
4.19117e-230
4.47807e-229
4.69066e-228
4.83845e-227
4.93405e-226
4.99142e-225
5.02481e-224
5.04781e-223
5.07277e-222
5.11071e-221
5.17129e-220
5.26602e-219
5.40337e-218
5.59674e-217
5.85586e-216
6.19774e-215
6.63871e-214
7.20688e-213
7.92868e-212
8.85001e-211
1.00202e-209
1.15196e-208
1.34414e-207
1.59332e-206
1.91774e-205
2.34568e-204
2.91403e-203
3.67925e-202
4.71903e-201
6.15124e-200
8.14641e-199
1.09626e-197
1.49924e-196
2.08347e-195
2.94498e-194
4.23294e-193
6.19916e-192
9.24784e-191
1.40951e-189
2.19502e-188
3.50353e-187
-5.25492e-203
1.81411e-316
1.21648e-316
1.33656e-316
1.34187e-316
1.28078e-316
1.72873e-316
1.63506e-316
1.34014e-316
1.93665e-316
1.96139e-316
1.91836e-316
1.57359e-316
1.64383e-316
1.20651e-316
2.93068e-287
2.20264e-287
1.05048e-287
5.2389e-288
2.69842e-288
1.30191e-288
4.97478e-289
1.21477e-289
-4.66511e-243
-9.68092e-228
-2.3958e-226
-3.26134e-225
-3.32069e-224
-2.79898e-223
-2.04215e-222
-1.31358e-221
-7.43876e-221
-3.59743e-220
-1.32293e-219
-1.51495e-219
3.4397e-218
4.7653e-217
4.43357e-216
3.53386e-215
2.5877e-214
1.79659e-213
1.20396e-212
7.87902e-212
5.07748e-211
3.24283e-210
2.06292e-209
1.31262e-208
8.38106e-208
5.385e-207
3.48954e-206
2.28478e-205
1.5142e-204
1.01935e-203
6.94046e-203
4.79562e-202
3.36481e-201
2.39771e-200
1.73574e-199
1.2763e-198
9.53326e-198
7.23063e-197
5.56827e-196
4.35155e-195
3.45041e-194
2.77428e-193
2.2615e-192
1.86804e-191
1.56338e-190
1.32526e-189
1.13786e-188
9.89566e-188
8.71875e-187
7.78631e-186
7.05163e-185
6.48292e-184
6.05503e-183
5.75416e-182
5.5707e-181
5.50199e-180
5.55174e-179
-6.61962e-203
2.12724e-300
1.11878e-316
1.75968e-316
1.45979e-316
1.44141e-316
1.77129e-316
1.44637e-316
1.13383e-316
1.53225e-316
1.56789e-316
1.57336e-316
1.82623e-316
1.47761e-316
1.42206e-316
1.79083e-286
1.89542e-286
6.83509e-287
2.5679e-287
1.09643e-287
4.91792e-288
1.98394e-288
5.65447e-289
-5.85413e-218
-5.14873e-216
-7.59146e-215
-7.03846e-214
-5.06783e-213
-3.07242e-212
-1.62703e-211
-7.63139e-211
-3.1524e-210
-1.10349e-209
-2.82194e-209
-6.7159e-210
5.72155e-208
5.36271e-207
3.62901e-206
2.13911e-205
1.1658e-204
6.04116e-204
3.0252e-203
1.47964e-202
7.12322e-202
3.39532e-201
1.61002e-200
7.62412e-200
3.6175e-199
1.72423e-198
8.27631e-198
4.00784e-197
1.9665e-196
9.73571e-196
4.88286e-195
2.48251e-194
1.28043e-193
6.70109e-193
3.56005e-192
1.91965e-191
1.05079e-190
5.83665e-190
3.28969e-189
1.88036e-188
1.08984e-187
6.40087e-187
3.80888e-186
2.29497e-185
1.39997e-184
8.64263e-184
5.39931e-183
3.41323e-182
2.18362e-181
1.41436e-180
9.27798e-180
6.1704e-179
4.16288e-178
2.85395e-177
1.99e-176
1.41406e-175
1.02527e-174
-3.99293e-203
3.68589e-282
1.3377e-316
5.61509e-302
2.45615e-302
8.17414e-303
9.95642e-303
-2.12881e-257
-1.31098e-256
-1.57592e-255
-1.95628e-316
-6.26529e-292
-4.01878e-233
-4.76249e-233
-3.53276e-233
-1.50289e-232
-1.08374e-232
-2.18734e-233
-4.1633e-234
-9.06104e-235
-2.04763e-235
-4.03196e-236
-5.1978e-237
-9.07842e-209
-2.11963e-207
-2.09125e-206
-1.44601e-205
-8.07535e-205
-3.87683e-204
-1.64975e-203
-6.30607e-203
-2.16296e-202
-6.51569e-202
-1.60164e-201
-2.27537e-201
6.32314e-201
7.84697e-200
4.84169e-199
2.4417e-198
1.11324e-197
4.77516e-197
1.96759e-196
7.88791e-196
3.10382e-195
1.20652e-194
4.65682e-194
1.792e-193
6.89827e-193
2.66437e-192
1.03799e-191
4.06208e-191
1.60462e-190
6.40798e-190
2.58973e-189
1.06024e-188
4.39959e-188
1.8515e-187
7.90325e-187
3.42262e-186
1.50353e-185
6.69957e-185
3.02686e-184
1.3863e-183
6.4328e-183
3.02339e-182
1.43841e-181
6.92521e-181
3.37228e-180
1.66055e-179
8.26585e-179
4.15908e-178
2.11543e-177
1.08784e-176
5.65862e-176
2.97893e-175
1.58878e-174
8.59298e-174
4.72007e-173
2.6368e-172
1.5008e-171
-2.11454e-203
6.83903e-272
2.57936e-316
3.17108e-296
1.05356e-296
3.46707e-297
2.50031e-297
-3.01381e-257
-1.66745e-256
7.39718e-209
8.1734e-208
5.36495e-207
2.03621e-206
1.06072e-206
-2.12104e-206
-1.39881e-205
-6.9185e-206
-8.12035e-207
-8.23615e-208
-1.04398e-208
-1.45025e-209
-1.74228e-210
-1.59449e-203
-1.08871e-201
-1.30733e-200
-9.44172e-200
-5.17832e-199
-2.3741e-198
-9.54455e-198
-3.45236e-197
-1.13827e-196
-3.43279e-196
-9.39694e-196
-2.27017e-195
-4.43446e-195
-4.46444e-195
1.66274e-194
1.45705e-193
7.29626e-193
3.05368e-192
1.16639e-191
4.21539e-191
1.46935e-190
4.99847e-190
1.6732e-189
5.54419e-189
1.82726e-188
6.01245e-188
1.98853e-187
6.57835e-187
2.19027e-186
7.3522e-186
2.49222e-185
8.54041e-185
2.9619e-184
1.04016e-183
3.7013e-183
1.33469e-182
4.87862e-182
1.80721e-181
6.78449e-181
2.58e-180
9.9368e-180
3.87385e-179
1.5283e-178
6.09817e-178
2.46052e-177
1.00347e-176
4.13611e-176
1.72272e-175
7.25083e-175
3.0845e-174
1.32641e-173
5.7691e-173
2.53862e-172
1.13128e-171
5.10774e-171
2.33976e-170
1.08825e-169
5.1471e-169
3.68132e-195
1.68968e-232
3.65853e-249
1.33945e-248
1.47833e-252
4.11707e-253
1.97862e-253
2.42782e-254
1.90504e-255
7.34848e-209
1.16299e-207
8.95901e-207
-1.76946e-192
-1.99944e-177
-3.97817e-177
-3.49088e-177
-6.28575e-178
-1.18438e-179
-1.68787e-181
-6.16271e-183
-2.97511e-184
-1.03414e-185
1.10662e-190
2.24038e-189
2.41716e-188
1.84765e-187
1.13158e-186
5.91871e-186
2.74338e-185
1.15355e-184
4.47149e-184
1.61668e-183
5.50146e-183
1.77485e-182
5.46132e-182
1.61118e-181
4.57825e-181
1.25831e-180
3.35831e-180
8.73716e-180
2.22443e-179
5.56439e-179
1.37359e-178
3.36235e-178
8.20483e-178
2.00794e-177
4.93791e-177
1.23868e-176
3.17061e-176
8.31216e-176
2.23491e-175
6.16137e-175
1.73805e-174
5.00584e-174
1.46892e-173
4.3904e-173
1.33837e-172
4.17961e-172
1.34571e-171
4.50513e-171
1.57945e-170
5.82285e-170
2.25192e-169
9.0674e-169
3.7567e-168
1.58243e-167
6.69959e-167
2.82483e-166
1.17673e-165
4.81128e-165
1.91876e-164
7.41642e-164
2.7588e-163
9.78619e-163
3.27067e-162
1.01006e-161
2.78609e-161
6.34352e-161
8.85677e-161
-1.42393e-160
7.13938e-193
4.05125e-213
3.57802e-232
3.74554e-237
1.24717e-251
1.57579e-252
6.94348e-253
8.16946e-254
9.0197e-255
8.08484e-209
1.52319e-207
1.23295e-206
-2.92623e-192
-3.11417e-175
2.5746e-171
2.19211e-171
4.57214e-173
-1.17462e-179
-1.65479e-181
-3.7911e-183
1.06971e-181
4.06206e-180
8.77272e-179
1.15617e-177
1.07293e-176
7.79388e-176
4.73885e-175
2.51398e-174
1.19505e-173
5.18332e-173
2.07836e-172
7.78153e-172
2.7422e-171
9.15529e-171
2.91197e-170
8.86575e-170
2.59463e-169
7.32616e-169
2.00243e-168
5.31391e-168
1.37282e-167
3.46106e-167
8.53426e-167
2.06215e-166
4.89215e-166
1.1379e-165
2.61075e-165
5.90443e-165
1.31778e-164
2.9043e-164
6.32591e-164
1.36206e-163
2.9004e-163
6.1072e-163
1.27173e-162
2.61748e-162
5.32357e-162
1.06894e-161
2.11766e-161
4.13293e-161
7.93376e-161
1.49287e-160
2.73693e-160
4.8183e-160
7.85799e-160
1.06086e-159
5.91241e-160
-3.30762e-159
-1.75206e-158
-4.18872e-158
8.83721e-158
1.9142e-156
1.5957e-155
1.04068e-154
5.94006e-154
3.07968e-153
1.47016e-152
6.49086e-152
2.65159e-151
1.00229e-150
-1.32e-189
-4.01054e-199
-8.77549e-212
-2.76194e-223
-3.80062e-234
-1.51241e-241
-2.51397e-242
-1.84076e-243
2.56785e-238
9.7028e-209
1.64881e-200
7.66859e-183
-1.11129e-169
-4.94548e-166
1.82861e-163
5.23702e-164
4.2439e-173
8.65488e-176
7.43591e-175
7.86512e-174
1.00641e-172
1.28934e-171
1.35966e-170
1.09705e-169
6.91479e-169
3.56238e-168
1.55905e-167
5.94851e-167
2.00818e-166
6.0275e-166
1.59679e-165
3.62188e-165
6.35742e-165
4.6539e-165
-2.62305e-164
-1.777e-163
-7.46141e-163
-2.61671e-162
-8.2837e-162
-2.44755e-161
-6.87354e-161
-1.85592e-160
-4.85624e-160
-1.23881e-159
-3.1179e-159
-7.64665e-159
-1.84882e-158
-4.41816e-158
-1.04555e-157
-2.45468e-157
-5.72434e-157
-1.32757e-156
-3.06393e-156
-7.04265e-156
-1.61259e-155
-3.6796e-155
-8.3653e-155
-1.89488e-154
-4.27439e-154
-9.60006e-154
-2.14527e-153
-4.76886e-153
-1.05406e-152
-2.31742e-152
-5.07131e-152
-1.1072e-151
-2.42059e-151
-5.33327e-151
-1.19419e-150
-2.74416e-150
-6.52101e-150
-1.60578e-149
-4.07276e-149
-1.04997e-148
-2.70582e-148
-6.85238e-148
-1.67904e-147
-3.92646e-147
-8.6493e-147
-1.77219e-146
-1.34895e-176
-1.77643e-178
-7.68055e-184
-3.02316e-190
3.53131e-192
2.24615e-191
2.06831e-190
1.03468e-186
7.46064e-175
9.98251e-169
8.3962e-162
2.03783e-156
1.74981e-155
3.95497e-155
1.97e-155
4.51116e-162
-1.09364e-167
-1.65895e-166
-1.91039e-165
-2.1898e-164
-2.65901e-163
-3.20758e-162
-3.46479e-161
-3.14071e-160
-2.35804e-159
-1.48601e-158
-8.01471e-158
-3.76505e-157
-1.56141e-156
-5.76906e-156
-1.90837e-155
-5.65742e-155
-1.49944e-154
-3.53557e-154
-7.36953e-154
-1.34956e-153
-2.16665e-153
-3.08883e-153
-4.14121e-153
-6.05338e-153
-1.16247e-152
-2.29848e-152
-3.85479e-152
-5.50872e-152
-6.25989e-152
-6.43126e-152
-6.7338e-152
-1.03044e-151
-1.7157e-151
-2.87877e-151
-4.77608e-151
-7.83826e-151
-1.50647e-150
-2.98397e-150
-5.92269e-150
-1.17907e-149
-2.35628e-149
-4.72968e-149
-9.54053e-149
-1.93407e-148
-3.93923e-148
-8.05209e-148
-1.6485e-147
-3.36715e-147
-6.81516e-147
-1.34886e-146
-2.53732e-146
-4.20662e-146
-4.53144e-146
-1.55814e-147
-2.40093e-147
1.89113e-142
5.5393e-141
4.03372e-140
5.9625e-140
8.27073e-140
1.85385e-139
4.21989e-139
4.21991e-139
4.31447e-139
-1.60222e-161
-8.27874e-162
-1.14296e-161
3.06673e-161
2.07759e-160
9.96998e-160
5.24295e-159
4.30295e-158
1.09903e-150
8.98992e-151
1.14963e-150
1.78774e-150
-9.27061e-150
-9.34239e-150
-1.39171e-150
1.10603e-157
9.80986e-158
1.91619e-157
2.79436e-157
1.71443e-156
1.04844e-155
8.12298e-155
6.3138e-154
4.61325e-153
3.16362e-152
2.0417e-151
1.22506e-150
6.74352e-150
3.38074e-149
1.57555e-148
8.97603e-148
3.63657e-147
1.16148e-146
3.3209e-146
9.9815e-146
3.54409e-145
1.24753e-144
3.77151e-144
9.76692e-144
2.23179e-143
4.58759e-143
8.48732e-143
1.35442e-142
1.86999e-142
2.05905e-142
2.08328e-142
2.16517e-142
3.35435e-142
5.72072e-142
9.91223e-142
1.7129e-141
2.94327e-141
5.03026e-141
8.55611e-141
1.44951e-140
2.4469e-140
4.11794e-140
6.90986e-140
1.15631e-139
1.92933e-139
3.20942e-139
5.31993e-139
8.78358e-139
1.4433e-138
2.35855e-138
3.82835e-138
6.16497e-138
9.82969e-138
1.54751e-137
2.39238e-137
3.58953e-137
5.07129e-137
6.14373e-137
3.27974e-137
-2.10451e-136
-1.43516e-135
-6.83097e-135
-3.20123e-134
-4.60504e-134
-2.4791e-134
5.03459e-152
8.41822e-152
5.84387e-152
5.8379e-152
5.81563e-152
5.77227e-152
5.70793e-152
5.63135e-152
-7.15948e-145
5.03758e-152
1.70209e-145
-1.50328e-149
4.48729e-142
3.05154e-141
3.02198e-141
3.5592e-151
2.98707e-154
-8.33919e-147
-1.06544e-148
-1.46e-148
1.2957e-149
9.68177e-149
3.35961e-148
1.02174e-147
2.69083e-147
6.05657e-147
1.12397e-146
1.50566e-146
2.98953e-147
-8.65076e-146
-4.60409e-145
-1.75899e-144
-5.84319e-144
-1.78202e-143
-5.11225e-143
-1.39847e-142
-3.67975e-142
-9.36917e-142
-2.31915e-141
-5.60334e-141
-1.35193e-140
-3.13709e-140
-7.15662e-140
-1.61e-139
-3.56526e-139
-7.79725e-139
-1.51757e-138
-3.04792e-138
-6.11219e-138
-1.21976e-137
-2.42369e-137
-4.79969e-137
-9.47809e-137
-1.86757e-136
-3.67243e-136
-7.2092e-136
-1.41251e-135
-2.76224e-135
-5.38841e-135
-1.04823e-134
-2.03174e-134
-3.92146e-134
-7.52826e-134
-1.43632e-133
-2.71963e-133
-5.10529e-133
-9.48625e-133
-1.74259e-132
-3.15918e-132
-5.64425e-132
-9.919e-132
-1.71111e-131
-2.88835e-131
-4.74242e-131
-7.47153e-131
-1.08983e-130
-1.31562e-130
-6.43957e-131
1.8121e-130
8.5047e-130
-3.45209e-144
-6.40391e-145
-1.27268e-144
-1.69841e-144
-2.34735e-144
-2.86266e-144
-2.54012e-144
-8.56512e-144
-1.152e-141
-4.38155e-136
4.47536e-136
3.39009e-137
2.57284e-138
1.17974e-138
-1.93234e-136
2.31336e-136
1.84444e-137
4.85774e-139
-5.65542e-142
-7.59511e-141
-3.03019e-140
-1.18382e-139
-4.38147e-139
-1.48715e-138
-4.60016e-138
-1.30785e-137
-3.45929e-137
-8.60527e-137
-2.03037e-136
-4.57428e-136
-9.89406e-136
-2.06433e-135
-4.17168e-135
-8.19319e-135
-1.56757e-134
-2.92511e-134
-5.3258e-134
-9.47231e-134
-1.65117e-133
-2.82893e-133
-4.76695e-133
-7.79443e-133
-1.24386e-132
-1.94577e-132
-2.94374e-132
-4.28924e-132
-6.01454e-132
-8.12744e-132
-1.06011e-131
-1.33938e-131
-1.64472e-131
-1.97334e-131
-2.32407e-131
-2.70395e-131
-3.12355e-131
-3.60609e-131
-4.1797e-131
-4.89246e-131
-5.80279e-131
-7.00642e-131
-8.62714e-131
-1.08676e-130
-1.4007e-130
-1.85032e-130
-2.50198e-130
-3.46458e-130
-4.90219e-130
-7.08366e-130
-1.04273e-129
-1.56153e-129
-2.3739e-129
-3.65658e-129
-5.69992e-129
-1.14625e-128
-5.65145e-128
-4.6376e-127
-3.14815e-126
-1.49437e-125
-5.4363e-125
-1.66457e-124
-4.35002e-137
-3.19335e-136
-9.96976e-136
-2.88277e-135
-2.13869e-134
-2.68375e-134
-1.85645e-134
-1.62854e-133
-7.6847e-132
-3.56639e-130
1.23909e-133
-1.18505e-131
-8.22025e-130
-1.02074e-132
-2.73739e-133
1.67169e-132
4.6896e-132
1.26019e-131
3.63767e-131
1.13882e-130
3.70259e-130
1.19333e-129
3.65761e-129
1.04412e-128
2.76828e-128
6.86446e-128
1.60634e-127
3.57474e-127
7.61022e-127
1.55695e-126
3.07234e-126
5.86569e-126
1.08645e-125
1.95721e-125
3.4373e-125
5.89718e-125
9.89888e-125
1.62695e-124
2.60765e-124
4.10508e-124
6.33406e-124
9.61404e-124
1.44405e-123
2.15865e-123
3.16363e-123
4.52737e-123
6.32111e-123
8.61834e-123
1.14886e-122
1.5013e-122
1.92834e-122
2.44446e-122
3.06951e-122
3.83694e-122
4.79369e-122
6.01595e-122
7.61075e-122
9.74884e-122
1.26753e-121
1.67835e-121
2.26574e-121
3.12484e-121
4.4016e-121
6.33732e-121
9.3129e-121
1.39653e-120
2.13232e-120
3.31196e-120
5.22045e-120
8.33939e-120
1.34731e-119
2.19816e-119
3.61723e-119
5.99551e-119
1.001e-118
1.68196e-118
2.84915e-118
4.8667e-118
8.41232e-118
1.47544e-117
4.24531e-148
0
-1.01468e-135
7.19198e-124
1.45556e-122
1.46134e-122
1.46785e-122
2.72947e-122
7.65172e-122
7.76455e-122
-2.98141e-123
-4.86774e-125
-5.2856e-124
-1.489e-123
-1.48388e-123
-1.31573e-123
-2.22986e-123
-5.9916e-123
-1.83354e-122
-5.92509e-122
-1.95194e-121
-6.28823e-121
-1.92623e-120
-5.50553e-120
-1.46635e-119
-3.66136e-119
-8.63499e-119
-1.93621e-118
-4.15003e-118
-8.54035e-118
-1.69373e-117
-3.24756e-117
-6.03774e-117
-1.09136e-116
-1.92292e-116
-3.3108e-116
-5.58256e-116
-9.22552e-116
-1.49717e-115
-2.38382e-115
-3.72488e-115
-5.72732e-115
-8.72025e-115
-1.32554e-114
-1.97918e-114
-2.89453e-114
-4.15389e-114
-5.86261e-114
-8.15627e-114
-1.12174e-113
-1.52934e-113
-2.07376e-113
-2.80527e-113
-3.79882e-113
-5.1648e-113
-7.0728e-113
-9.77968e-113
-1.36903e-112
-1.94349e-112
-2.80321e-112
-4.11109e-112
-6.13675e-112
-9.32236e-112
-1.4415e-111
-2.26672e-111
-3.62311e-111
-5.878e-111
-9.67033e-111
-1.61064e-110
-2.71247e-110
-4.61179e-110
-7.90486e-110
-1.36437e-109
-2.36762e-109
-4.12793e-109
-7.21864e-109
-1.26575e-108
-2.22125e-108
-3.8999e-108
-6.8387e-108
-7.73967e-132
1.25716e-123
4.18794e-122
1.23663e-121
-2.799e-121
-7.03048e-120
-5.98662e-119
-8.23606e-118
-2.88426e-116
-4.62154e-115
1.24085e-113
2.20862e-112
4.13721e-112
3.07074e-112
1.38554e-112
3.6738e-113
1.52429e-113
4.13539e-113
1.06484e-112
2.81829e-112
7.56071e-112
1.99692e-111
5.08931e-111
1.23446e-110
2.88085e-110
6.43798e-110
1.38011e-109
2.84288e-109
5.64136e-109
1.08098e-108
2.00483e-108
3.60677e-108
6.30696e-108
1.07399e-107
1.78416e-107
2.89667e-107
4.59344e-107
7.15727e-107
1.09554e-106
1.64996e-106
2.44936e-106
3.59052e-106
5.20719e-106
7.48584e-106
1.06889e-105
1.51904e-105
2.15299e-105
3.04968e-105
4.32597e-105
6.15756e-105
8.81166e-105
1.27011e-104
1.84713e-104
2.71473e-104
4.03772e-104
6.0852e-104
9.30194e-104
1.4434e-103
2.27471e-103
3.6418e-103
5.92266e-103
9.7815e-103
1.63944e-102
2.78636e-102
4.79668e-102
8.35382e-102
1.46979e-101
2.60887e-101
4.66473e-101
8.39027e-101
1.51604e-100
2.74851e-100
4.99422e-100
9.08665e-100
1.65424e-99
3.01159e-99
5.48128e-99
9.97291e-99
1.81438e-98
3.30278e-98
2.16518e-120
2.53607e-119
2.30374e-119
-7.5837e-119
-9.01866e-118
-6.51865e-117
-6.00387e-116
-6.28093e-115
-6.99113e-114
-1.14533e-112
-2.23375e-111
-3.20742e-110
-2.59931e-109
-1.22698e-108
-4.10622e-108
-1.19654e-107
-3.42547e-107
-1.00419e-106
-3.02445e-106
-9.22153e-106
-2.77619e-105
-8.03872e-105
-2.19913e-104
-5.64993e-104
-1.36639e-103
-3.12756e-103
-6.8024e-103
-1.41642e-102
-2.82993e-102
-5.44202e-102
-1.00996e-101
-1.81317e-101
-3.15566e-101
-5.33489e-101
-8.77735e-101
-1.40621e-100
-2.20325e-100
-3.37785e-100
-5.07664e-100
-7.49333e-100
-1.08835e-99
-1.55853e-99
-2.205e-99
-3.08874e-99
-4.29328e-99
-5.93497e-99
-8.17809e-99
-1.12588e-98
-1.55204e-98
-2.1471e-98
-2.98695e-98
-4.18702e-98
-5.92443e-98
-8.47587e-98
-1.22776e-97
-1.80298e-97
-2.68671e-97
-4.06614e-97
-6.25311e-97
-9.77621e-97
-1.55403e-96
-2.51205e-96
-4.12843e-96
-6.89716e-96
-1.17077e-95
-2.01844e-95
-3.53165e-95
-6.26732e-95
-1.12692e-94
-2.05127e-94
-3.77518e-94
-7.01672e-94
-1.31521e-93
-2.48263e-93
-4.7122e-93
-8.97959e-93
-1.71545e-92
-3.28058e-92
-6.27342e-92
-1.19856e-91
1.24802e-120
-1.5313e-115
-3.36431e-114
-3.69142e-113
-3.0846e-112
-2.35914e-111
-1.83668e-110
-1.55228e-109
-1.46391e-108
-1.4949e-107
-1.46488e-106
-1.14297e-105
-6.21311e-105
-2.4063e-104
-7.64749e-104
-2.28191e-103
-6.82517e-103
-2.08145e-102
-6.43877e-102
-1.98613e-101
-5.96956e-101
-1.71133e-100
-4.62107e-100
-1.17237e-99
-2.8047e-99
-6.36198e-99
-1.37528e-98
-2.84555e-98
-5.64996e-98
-1.07978e-97
-1.9908e-97
-3.54824e-97
-6.125e-97
-1.02583e-96
-1.66983e-96
-2.64656e-96
-4.09006e-96
-6.17517e-96
-9.12443e-96
-1.32187e-95
-1.88107e-95
-2.6345e-95
-3.6388e-95
-4.9671e-95
-6.7159e-95
-9.01431e-95
-1.20394e-94
-1.60361e-94
-2.13514e-94
-2.84786e-94
-3.81357e-94
-5.13693e-94
-6.974e-94
-9.55789e-94
-1.32447e-93
-1.85801e-93
-2.64189e-93
-3.81051e-93
-5.57997e-93
-8.29908e-93
-1.25432e-92
-1.92653e-92
-3.00769e-92
-4.77142e-92
-7.69138e-92
-1.25905e-91
-2.09238e-91
-3.52713e-91
-6.02767e-91
-1.04316e-90
-1.82669e-90
-3.23238e-90
-5.7731e-90
-1.03913e-89
-1.88201e-89
-3.42397e-89
-6.24568e-89
-1.14025e-88
-2.0796e-88
-3.78339e-88
-1.65976e-120
-5.29829e-113
-2.26892e-111
-3.16806e-110
-3.04653e-109
-2.5794e-108
-2.14558e-107
-1.8032e-106
-1.48543e-105
-1.12656e-104
-7.51631e-104
-4.29097e-103
-1.97007e-102
-7.20121e-102
-2.29269e-101
-7.00117e-101
-2.14476e-100
-6.63806e-100
-2.05449e-99
-6.24022e-99
-1.82056e-98
-5.01534e-98
-1.29449e-97
-3.13401e-97
-7.16456e-97
-1.55996e-96
-3.26039e-96
-6.56049e-96
-1.25909e-95
-2.21622e-95
-3.64773e-95
-8.14959e-95
-1.39416e-94
-2.29939e-94
-3.6698e-94
-5.68059e-94
-8.56028e-94
-1.25863e-93
-1.809e-93
-2.54625e-93
-3.51637e-93
-4.774e-93
-6.3852e-93
-8.43234e-93
-1.10208e-92
-1.42899e-92
-1.84269e-92
-2.36896e-92
-3.04347e-92
-3.91671e-92
-5.06006e-92
-6.57667e-92
-8.61528e-92
-1.13952e-91
-1.52393e-91
-2.06343e-91
-2.8314e-91
-3.94095e-91
-5.56677e-91
-7.98451e-91
-1.163e-90
-1.72068e-90
-2.58527e-90
-3.94438e-90
-6.1079e-90
-9.59693e-90
-1.52888e-89
-2.46838e-89
-4.03499e-89
-6.67395e-89
-1.11573e-88
-1.8836e-88
-3.20721e-88
-5.50097e-88
-9.49022e-88
-1.64402e-87
-2.85446e-87
-4.95684e-87
-8.59012e-87
-1.48252e-86
-3.84104e-127
-4.03566e-113
3.99022e-106
1.72133e-105
-3.69192e-107
-6.49437e-106
-7.0502e-105
-5.43037e-104
-3.96915e-103
-2.53015e-102
-1.31313e-101
-5.41808e-101
-1.86673e-100
-5.8303e-100
-1.756e-99
-5.28176e-99
-1.60141e-98
-4.86654e-98
-1.45952e-97
-4.22501e-97
-1.15257e-96
-2.90658e-96
-6.71319e-96
-1.42624e-95
-2.84864e-95
-5.54961e-95
-1.07683e-94
-1.96168e-94
-2.70529e-94
-9.49605e-96
-1.22214e-93
-6.70919e-93
-1.22662e-92
-2.09206e-92
-3.34549e-92
-5.11215e-92
-7.54157e-92
-1.08133e-91
-1.5127e-91
-2.06954e-91
-2.77452e-91
-3.65234e-91
-4.73136e-91
-6.04599e-91
-7.64049e-91
-9.57382e-91
-1.19268e-90
-1.48109e-90
-1.83815e-90
-2.28557e-90
-2.854e-90
-3.58676e-90
-4.54572e-90
-5.81958e-90
-7.53721e-90
-9.88691e-90
-1.3148e-89
-1.77374e-89
-2.4287e-89
-3.37607e-89
-4.76501e-89
-6.82768e-89
-9.93037e-89
-1.46541e-88
-2.1932e-88
-3.32689e-88
-5.11185e-88
-7.94957e-88
-1.25028e-87
-1.98687e-87
-3.1875e-87
-5.1572e-87
-8.40634e-87
-1.37886e-86
-2.27278e-86
-3.75872e-86
-6.22493e-86
-1.03002e-85
-1.69859e-85
-2.78405e-85
-9.60303e-119
0
1.69223e-112
4.3294e-108
-8.40873e-119
-3.90296e-105
-5.45271e-104
2.62064e-95
-4.07579e-103
3.48716e-97
2.14613e-96
2.37286e-96
8.99237e-96
2.94468e-95
9.09875e-95
2.66507e-94
7.40204e-94
1.93792e-93
4.71336e-93
1.04324e-92
2.05944e-92
3.57779e-92
5.4513e-92
7.34696e-92
8.96474e-92
1.02358e-91
1.09496e-91
1.01685e-91
6.44953e-92
-3.01006e-92
-2.02246e-91
-4.19083e-91
-7.19628e-91
-1.13942e-90
-1.73467e-90
-2.56266e-90
-3.67843e-90
-5.13733e-90
-6.99391e-90
-9.29931e-90
-1.20995e-89
-1.54372e-89
-1.93582e-89
-2.39221e-89
-2.92144e-89
-3.53614e-89
-4.2549e-89
-5.10427e-89
-6.12183e-89
-7.3601e-89
-8.89298e-89
-1.08235e-88
-1.32968e-88
-1.65167e-88
-2.07739e-88
-2.64838e-88
-3.42504e-88
-4.49553e-88
-5.99064e-88
-8.10506e-88
-1.1133e-87
-1.55203e-87
-2.19517e-87
-3.14816e-87
-4.57535e-87
-6.73306e-87
-1.00255e-86
-1.50898e-86
-2.29395e-86
-3.51845e-86
-5.44018e-86
-8.47052e-86
-1.32691e-85
-2.08889e-85
-3.30078e-85
-5.22761e-85
-8.28242e-85
-1.30963e-84
-2.06051e-84
-3.21534e-84
0
3.61555e-116
2.97382e-93
6.16519e-93
1.48283e-92
5.08452e-92
1.78744e-91
4.86505e-91
4.86789e-91
1.85361e-106
1.82381e-108
-2.44518e-92
-1.11576e-91
-3.48326e-91
-9.43714e-91
-2.39061e-90
-5.83812e-90
-1.37758e-89
-3.08871e-89
-6.40722e-89
-1.19411e-88
-1.94365e-88
-2.68488e-88
-3.03478e-88
-2.6574e-88
-1.82861e-88
-1.96384e-88
-1.45216e-89
-4.86543e-89
-6.16454e-89
-2.21866e-89
-2.17288e-89
-3.47763e-89
-4.8703e-89
-6.33112e-89
-8.35404e-89
-1.1172e-88
-1.48901e-88
-1.95437e-88
-2.51292e-88
-3.16245e-88
-3.8994e-88
-4.72042e-88
-5.6252e-88
-6.61859e-88
-7.71343e-88
-8.93277e-88
-1.03116e-87
-1.18984e-87
-1.37606e-87
-1.59894e-87
-1.87085e-87
-2.20827e-87
-2.63332e-87
-3.1756e-87
-3.87542e-87
-4.78774e-87
-5.98901e-87
-7.58555e-87
-9.72776e-87
-1.26281e-86
-1.6591e-86
-2.20522e-86
-2.96428e-86
-4.02734e-86
-5.52708e-86
-7.65542e-86
-1.06921e-85
-1.50418e-85
-2.12934e-85
-3.02977e-85
-4.32821e-85
-6.19799e-85
-8.87522e-85
-1.26617e-84
-1.79196e-84
-2.50886e-84
-3.47689e-84
-4.72239e-84
-8.33513e-84
-1.65562e-120
-4.16196e-98
1.05223e-93
-7.13036e-88
-1.83487e-86
-1.35165e-85
-4.70509e-85
-7.05898e-85
-1.63865e-85
2.12298e-84
7.51779e-84
1.7163e-83
2.94994e-83
4.14564e-83
7.83986e-83
5.70623e-83
3.76989e-83
2.94772e-83
2.62489e-83
2.93548e-83
4.07739e-83
4.45411e-83
3.2598e-83
2.87919e-83
2.07522e-83
6.13966e-84
5.20219e-84
6.31692e-84
1.66119e-84
-1.92948e-84
-5.32073e-84
-9.22736e-84
-1.46395e-83
-2.20401e-83
-3.16109e-83
-4.31878e-83
-5.67316e-83
-7.17321e-83
-8.75728e-83
-1.03481e-82
-1.18561e-82
-1.31899e-82
-1.42835e-82
-1.51258e-82
-1.57643e-82
-1.63041e-82
-1.69179e-82
-1.78524e-82
-1.94493e-82
-2.22025e-82
-2.68501e-82
-3.45267e-82
-4.70085e-82
-6.71279e-82
-9.94439e-82
-1.51372e-81
-2.35024e-81
-3.70322e-81
-5.90088e-81
-9.48675e-81
-1.53603e-80
-2.50154e-80
-4.09281e-80
-6.72116e-80
-1.10671e-79
-1.82567e-79
-3.01407e-79
-4.97572e-79
-8.20494e-79
-1.35043e-78
-2.21656e-78
-3.62643e-78
-5.91121e-78
-9.59789e-78
-1.55207e-77
-2.49961e-77
-4.00739e-77
-6.38593e-77
-1.00852e-76
-1.57142e-76
-1.00501e-101
-1.04044e-97
-5.73997e-94
-4.50782e-85
-5.21779e-83
-6.64647e-82
-4.01401e-81
-1.56104e-80
-4.45944e-80
-9.55257e-80
-1.49206e-79
-1.68892e-79
-1.36162e-79
-5.7503e-80
2.01691e-80
2.01888e-80
2.01692e-80
2.00816e-80
2.00022e-80
1.98867e-80
1.58925e-80
-7.99085e-81
-3.37586e-80
-5.2906e-80
-5.42947e-80
-2.76556e-80
2.60449e-80
1.0545e-79
2.13417e-79
3.49242e-79
5.00798e-79
6.73047e-79
8.5135e-79
1.0229e-78
1.17563e-78
1.30243e-78
1.40707e-78
1.49397e-78
1.61308e-78
1.75618e-78
1.88509e-78
1.9355e-78
1.17131e-78
6.50583e-94
-4.09631e-78
1.30117e-93
-2.21409e-87
-2.18901e-79
-2.3968e-79
-2.51362e-79
-2.56811e-79
-2.6086e-79
-2.64313e-79
-2.67388e-79
-2.70239e-79
-2.7295e-79
-2.7577e-79
-2.79211e-79
-2.84399e-79
-2.93237e-79
-3.08861e-79
-3.35847e-79
-3.80689e-79
-4.51713e-79
-5.58984e-79
-7.12994e-79
-9.23074e-79
-1.19349e-78
-1.51827e-78
-1.86886e-78
-2.16884e-78
-2.23393e-78
-1.64406e-78
0
0
-5.4316e-80
-2.1198e-78
-6.27575e-77
-4.48014e-75
4.06677e-69
3.31072e-101
-1.15983e-97
-4.25614e-93
-2.14108e-85
-2.03683e-78
-4.46952e-77
-3.4272e-76
-1.40428e-75
-3.58366e-75
-6.26107e-75
-8.08106e-75
-8.34979e-75
-7.55316e-75
-6.36286e-75
-5.85026e-75
-5.56301e-75
-5.10038e-75
-4.51601e-75
-4.20739e-75
-5.30947e-75
-9.6928e-75
-2.02219e-74
-4.2433e-74
-8.56479e-74
-1.65579e-73
-3.07236e-73
-5.50134e-73
-9.50782e-73
-1.58286e-72
-2.50974e-72
-3.86056e-72
-5.69429e-72
-8.03966e-72
-1.08449e-71
-1.39365e-71
-1.69948e-71
-1.96572e-71
-2.16534e-71
-2.26201e-71
-2.28542e-71
-2.21494e-71
-2.04859e-71
-1.78997e-71
-7.78755e-78
6.58606e-77
7.71917e-78
4.19131e-79
-1.74781e-86
0
0
-3.89654e-78
-3.51305e-78
-3.40155e-78
-3.45571e-78
-3.51389e-78
-3.57327e-78
-3.62938e-78
-3.67873e-78
-3.71859e-78
-3.74872e-78
-3.76897e-78
-3.7799e-78
-3.77911e-78
-3.7604e-78
-3.70745e-78
-3.59135e-78
-3.36681e-78
-2.98046e-78
-2.37918e-78
-1.49738e-78
-1.18545e-79
0
-2.08186e-92
-1.95937e-79
-4.38028e-80
-2.16533e-77
4.2281e-70
3.58405e-69
1.0095e-68
2.08031e-68
1.36847e-103
1.48559e-96
-4.97619e-91
-8.4368e-86
-4.75218e-77
-2.64103e-75
-3.83376e-74
-2.91387e-73
-1.32436e-72
-3.7929e-72
-7.29782e-72
-1.04268e-71
-1.24573e-71
-1.36976e-71
-1.44895e-71
-1.46861e-71
-1.38197e-71
-1.16375e-71
-8.56667e-72
-5.52245e-72
-3.21204e-72
-1.7927e-72
-1.08187e-72
-8.46642e-73
-9.14605e-73
-1.28647e-72
-1.94901e-72
-2.85494e-72
-3.97443e-72
-5.25862e-72
-6.53614e-72
-7.47796e-72
-7.66107e-72
-6.65649e-72
-4.15116e-72
8.87008e-74
5.1346e-73
8.69779e-72
-6.8792e-70
-6.60375e-70
-6.14529e-70
-5.46462e-70
-3.38014e-70
1.88222e-70
2.25684e-71
7.44576e-75
1.34834e-76
4.19133e-79
1.98849e-79
1.04093e-92
-1.79845e-77
-1.90905e-77
-1.88058e-77
-1.88e-77
-1.94502e-77
-2.01556e-77
-2.08846e-77
-2.16043e-77
-2.22955e-77
-2.29439e-77
-2.35383e-77
-2.40522e-77
-2.44411e-77
-2.46284e-77
-2.44906e-77
-2.3821e-77
-2.23176e-77
-1.96012e-77
-1.53555e-77
-9.56367e-78
-2.66543e-78
0
3.75716e-78
1.69561e-76
7.86304e-75
3.83182e-73
1.15945e-69
6.40787e-69
1.40375e-68
2.20364e-68
1.34202e-95
-9.40703e-92
-1.80417e-88
-1.82298e-83
-3.18831e-76
-6.86568e-74
-1.1117e-72
-8.81204e-72
-4.29568e-71
-1.38083e-70
-3.14321e-70
-5.59181e-70
-8.62606e-70
-1.24588e-69
-1.75073e-69
-2.43763e-69
-3.474e-69
-5.41139e-69
-9.63658e-69
-1.86682e-68
-3.58386e-68
-6.43033e-68
-1.05937e-67
-1.6102e-67
-2.29483e-67
-3.13976e-67
-4.2428e-67
-5.66817e-67
-8.0598e-67
-1.17863e-66
-1.74396e-66
-2.56409e-66
-3.7006e-66
-5.22223e-66
-7.00743e-66
-1.1002e-65
-2.27392e-65
-2.99549e-64
-7.21655e-69
-6.54543e-69
-5.67634e-69
-4.7904e-69
-3.86246e-69
9.37879e-70
7.80982e-70
2.61818e-70
1.08432e-70
1.34882e-76
7.53045e-77
-3.37947e-80
-2.11185e-77
-3.92841e-77
-4.75079e-77
-5.45525e-77
-5.91096e-77
-6.31191e-77
-6.73127e-77
-7.15863e-77
-7.58845e-77
-8.02151e-77
-8.45806e-77
-8.89289e-77
-9.31413e-77
-9.70346e-77
-1.00371e-76
-1.02704e-76
-1.02353e-76
-9.92375e-77
-9.08441e-77
-7.53256e-77
-5.17524e-77
-2.1746e-77
0
-1.66549e-91
3.1746e-76
2.93065e-74
1.79412e-70
3.75753e-69
1.21592e-68
2.19608e-68
1.38176e-95
8.02773e-96
-3.06574e-87
-1.97143e-83
-1.04719e-76
-5.31676e-73
-1.08593e-71
-9.33107e-71
-5.07215e-70
-2.00161e-69
-6.96834e-69
-2.8507e-68
-1.51772e-67
-8.95286e-67
-5.1066e-66
-2.67392e-65
-1.26079e-64
-5.30066e-64
-1.9793e-63
-6.58244e-63
-1.96619e-62
-5.33655e-62
-1.33226e-61
-3.0937e-61
-6.74543e-61
-1.3912e-60
-2.72923e-60
-5.08007e-60
-9.13029e-60
-1.58174e-59
-2.65668e-59
-4.35936e-59
-7.05384e-59
-1.14226e-58
-1.95663e-58
-4.56077e-58
-2.14915e-57
-1.19399e-57
-3.03544e-58
-2.64988e-59
-6.64972e-62
3.92718e-70
-2.71236e-68
9.34427e-70
9.63859e-70
1.03876e-69
8.87447e-70
2.66263e-74
1.59021e-74
2.48375e-77
-8.08e-87
0
0
0
-1.069e-76
-1.19589e-76
-1.32881e-76
-1.46557e-76
-1.60567e-76
-1.75032e-76
-1.90057e-76
-2.05605e-76
-2.20878e-76
-2.36195e-76
-2.51231e-76
-2.65909e-76
-2.79842e-76
-2.92434e-76
-3.00925e-76
-3.01948e-76
-2.92336e-76
-2.64659e-76
-2.01991e-76
-7.05937e-77
-4.16373e-92
-5.32957e-90
3.80327e-75
3.48944e-70
3.14851e-69
4.66615e-69
1.4225e-95
-1.36907e-92
5.95443e-87
6.38869e-84
-2.93193e-77
-1.92576e-72
-5.78329e-71
-5.38842e-70