/*--------------------------------*- C++ -*----------------------------------*\
  =========                 |
  \\      /  F ield         | OpenFOAM: The Open Source CFD Toolbox
   \\    /   O peration     | Website:  https://openfoam.org
    \\  /    A nd           | Version:  7
     \\/     M anipulation  |
\*---------------------------------------------------------------------------*/
FoamFile
{
    version     2.0;
    format      ascii;
    class       volScalarField;
    location    "10";
    object      epss;
}
// * * * * * * * * * * * * * * * * * * * * * * * * * * * * * * * * * * * * * //

dimensions      [0 0 0 0 0 0 0];

internalField   nonuniform List<scalar> 
49920
(
0.015989
0.31778
0.658762
0.592123
0.595656
0.524619
0.570924
0.697994
0.648339
0.565994
0.591144
0.649164
0.602806
0.685633
0.531264
0.0962679
0.00462751
3.57859e-05
0
0
0
0
0
0
0
0
0
0
0
0
0
0
0
0
0
0
0
0
0
0
0
0
0
0
0
0
0
0
0
0
0
0
0
0
0
0
0
0
0
0
0
0
0
0
0
0
0
0
0
0
0
0
0
0
0
0
0
0
0
0
0.0165545
0.0608485
0.197645
0.545092
0.55056
0.408594
0.597813
0.438766
0.580044
0.544257
0.516151
0.566267
0.626876
0.437486
0.140451
0.0332606
0.00361556
5.37141e-06
0
0
0
0
0
0
0
0
0
0
0
0
0
0
0
0
0
0
0
0
0
0
0
0
0
0
0
0
0
0
0
0
0
0
0
0
0
0
0
0
0
0
0
0
0
0
0
0
0
0
0
0
0
0
0
0
0
0
0
0
0
0
0.00708208
0.0100001
0.0413967
0.131117
0.135751
0.0965634
0.140638
0.103566
0.136917
0.406648
0.413848
0.402034
0.263308
0.108857
0.0356638
0.0099503
0.00222233
0.0002389
0
0
0
0
0
0
0
0
0
0
0
0
0
0
0
0
0
0
0
0
0
0
0
0
0
0
0
0
0
0
0
0
0
0
0
0
0
0
0
0
0
0
0
0
0
0
0
0
0
0
0
0
0
0
0
0
0
0
9.54638e-81
3.64265e-80
0
0
0.00232075
0.00116465
0.00942672
0.0290036
0.0328367
0.023407
0.0342097
0.0253513
0.0349698
0.0779108
0.0969581
0.0979463
0.0654644
0.0398378
0.00900346
0.00245143
0.000837929
0.000242114
4.07036e-05
0
0
0
0
0
0
0
0
0
0
0
0
0
0
0
0
0
0
0
0
0
0
0
0
0
0
0
0
0
0
0
0
0
0
0
0
0
0
0
0
0
0
0
0
0
0
0
0
0
0
0
0
0
0
0
0
5.62947e-80
1.46198e-79
8.00971e-80
0
0
0.000623912
3.20904e-05
0.0022813
0.00633128
0.00899811
0.00617308
0.00830617
0.00627835
0.00878534
0.0113491
0.0281526
0.0229056
0.0134012
0.006881
0.0023336
0.000740109
0.000318068
0.000167299
7.1044e-05
1.96112e-05
2.76556e-06
0
0
0
0
0
0
0
0
0
0
0
0
0
0
0
0
0
0
0
0
0
0
0
0
0
0
0
0
0
0
0
0
0
0
0
0
0
0
0
0
0
0
0
0
0
0
0
0
0
0
0
0
0
1.58687e-79
3.12965e-79
2.33024e-79
0
0
9.79123e-56
0.000113969
0
0.000589429
0.00131885
0.00237625
0.00177549
0.00214694
0.00194603
0.00269913
0.000892872
0.00527336
0.00308483
0.00179943
0.000849008
0.000488931
0.000257519
0.000147168
0.000105496
7.13927e-05
3.75284e-05
1.44686e-05
3.75168e-06
3.36028e-07
0
0
0
0
0
0
0
0
0
0
0
0
0
0
0
0
0
0
0
0
0
0
0
0
0
0
0
0
0
0
0
0
0
0
0
0
0
0
0
0
0
0
0
0
0
0
0
0
0
1.99561e-79
4.81715e-79
5.82138e-79
3.11387e-79
0
0
5.06146e-56
4.23253e-55
6.12805e-06
2.89593e-05
0.000198359
0.0002464
0.000588818
0.000581064
0.000628425
0.000716345
0.00096891
0
0.000642122
0.000296339
2.72924e-05
0
2.47052e-05
6.08699e-05
6.58796e-05
6.29368e-05
5.60321e-05
4.18534e-05
2.49494e-05
1.16176e-05
4.01245e-06
9.13084e-07
1.40943e-08
0
0
0
0
0
0
0
0
0
0
0
0
0
0
0
0
0
0
0
0
0
0
0
0
0
0
0
0
0
0
0
0
0
0
0
0
0
0
0
0
0
0
0
0
0
0
5.92593e-79
1.17355e-78
9.15768e-79
3.35697e-80
0
0
3.22657e-56
2.29552e-55
6.28793e-55
0
5.42006e-05
0.000108351
4.63583e-05
0.000121453
0.000213311
0.000233349
0.000310637
0.000418579
7.57261e-05
0
0
0
0
0
2.29752e-06
1.69396e-05
2.79862e-05
3.37629e-05
3.32778e-05
2.68156e-05
1.76335e-05
9.42206e-06
4.00246e-06
1.24031e-06
2.12646e-07
0
0
0
0
0
0
0
0
0
0
0
0
0
0
0
0
0
0
0
0
0
0
0
0
0
0
0
0
0
0
0
0
0
0
0
0
0
0
0
0
0
0
0
2.697e-79
1.27436e-78
1.23211e-78
6.97393e-79
0
0
0
3.80318e-56
1.77223e-55
3.94722e-55
4.2852e-55
0
6.15173e-05
8.19218e-05
2.26734e-05
8.87417e-06
8.22994e-05
0.000113864
0.000160573
0.00021652
0.000123783
0
0
1.313e-06
5.61692e-06
3.96488e-06
0
1.44912e-08
5.59551e-06
1.2534e-05
1.79484e-05
1.96418e-05
1.73107e-05
1.25744e-05
7.57156e-06
3.71738e-06
1.39166e-06
3.20353e-07
0
0
0
0
0
0
0
0
0
0
0
0
0
0
0
0
0
0
0
0
0
0
0
0
0
0
0
0
0
0
0
0
0
0
0
0
0
0
0
0
2.19518e-79
9.01299e-79
1.84609e-78
0
0
0
0
4.26344e-57
3.2642e-56
1.12634e-55
2.03512e-55
1.69111e-55
0
3.55367e-06
5.8184e-05
6.58903e-05
2.35308e-05
0
3.35664e-05
6.53287e-05
9.58969e-05
0.000128197
0.000116916
3.65094e-05
3.4854e-06
5.1984e-06
1.83011e-05
2.37099e-05
1.74694e-05
8.17121e-06
2.81418e-06
2.56052e-06
5.59243e-06
9.23763e-06
1.13477e-05
1.10909e-05
8.92952e-06
5.97199e-06
3.24805e-06
1.33603e-06
3.3204e-07
2.45276e-09
0
0
0
0
0
0
0
0
0
0
0
0
0
0
0
0
0
0
0
0
0
0
0
0
0
0
0
0
0
0
0
0
0
0
1.64946e-81
2.09168e-80
5.45986e-80
1.50815e-79
0
0
0
0
8.78323e-58
8.1591e-57
1.94084e-56
3.9073e-56
5.84449e-56
4.63934e-56
0
0
0
1.03873e-05
5.03768e-05
5.06208e-05
2.19343e-05
2.6061e-07
1.44191e-05
3.92218e-05
6.16564e-05
8.20976e-05
9.20597e-05
5.42527e-05
1.57258e-05
1.10979e-05
2.97282e-05
4.60922e-05
4.67109e-05
3.51278e-05
2.09245e-05
1.04647e-05
5.30621e-06
4.27566e-06
5.34581e-06
6.66915e-06
7.08693e-06
6.27561e-06
4.58393e-06
2.67665e-06
1.15295e-06
2.90543e-07
3.40086e-09
0
0
0
0
0
0
0
0
0
0
0
0
0
0
0
0
0
0
0
0
0
0
0
0
0
0
0
0
0
0
0
0
0
4.56745e-81
0
0
0
0
1.5169e-58
1.24442e-57
2.6812e-57
0
0
0
0
0
0
0
8.42473e-39
4.02144e-38
1.63432e-05
4.08512e-05
3.59089e-05
1.65717e-05
1.24135e-06
6.37935e-06
2.31166e-05
4.02071e-05
5.46058e-05
6.73696e-05
5.44935e-05
2.60574e-05
1.66829e-05
3.34139e-05
5.71921e-05
6.90936e-05
6.43894e-05
4.95702e-05
3.29707e-05
1.95581e-05
1.07682e-05
6.10608e-06
4.38592e-06
4.26955e-06
4.52665e-06
4.31606e-06
3.40143e-06
2.09589e-06
9.24619e-07
2.30728e-07
1.94424e-09
0
0
0
0
0
0
0
0
0
0
0
0
0
0
0
0
0
0
0
0
0
0
0
0
0
0
0
0
0
0
0
0
0
2.11989e-62
5.90212e-64
8.15275e-61
2.11525e-59
0
0
0
0
3.96152e-42
4.09491e-40
1.72755e-39
4.10767e-39
9.59366e-39
2.47863e-38
5.85314e-38
1.24619e-37
1.90305e-05
3.07824e-05
2.29293e-05
1.00436e-05
1.0808e-06
2.74852e-06
1.32621e-05
2.62879e-05
3.75564e-05
4.8693e-05
4.74374e-05
3.09436e-05
2.00989e-05
2.95935e-05
5.25598e-05
7.25059e-05
7.89226e-05
7.19261e-05
5.74817e-05
4.15453e-05
2.75327e-05
1.66761e-05
9.19708e-06
4.90677e-06
3.16642e-06
2.87335e-06
2.85635e-06
2.42128e-06
1.56652e-06
7.02641e-07
1.7285e-07
6.73534e-10
0
0
0
0
0
0
0
0
0
0
0
0
0
0
0
0
0
0
0
0
0
0
0
0
0
0
0
2.16341e-84
9.69348e-85
0
1.48986e-64
8.67026e-63
7.514e-62
2.6568e-64
3.70988e-61
0
0
2.98587e-44
3.04031e-42
1.10009e-41
0
0
0
0
0
0
6.93042e-38
7.88773e-38
1.83094e-05
2.10699e-05
1.26241e-05
4.51116e-06
3.37441e-07
1.33846e-06
8.25868e-06
1.84325e-05
2.79545e-05
3.69889e-05
4.00947e-05
3.21263e-05
2.19454e-05
2.30495e-05
3.80872e-05
5.81324e-05
7.2429e-05
7.60272e-05
7.02815e-05
5.92482e-05
4.6401e-05
3.36384e-05
2.2004e-05
1.25054e-05
6.03916e-06
2.75326e-06
1.78289e-06
1.75568e-06
1.62434e-06
1.11704e-06
5.15089e-07
1.28099e-07
4.83285e-10
0
0
0
0
0
0
0
0
0
0
0
0
0
0
0
0
0
0
0
0
0
0
0
0
0
0
8.39866e-84
0
1.56139e-64
6.62639e-64
2.92281e-62
6.95663e-62
0
0
0
0
2.90373e-43
4.64338e-42
0
0
3.0157e-36
1.14511e-33
4.62317e-33
6.76556e-33
2.26693e-33
0
0
1.51186e-05
1.26407e-05
5.47611e-06
1.09067e-06
5.09597e-08
1.78935e-06
7.38573e-06
1.58527e-05
2.41709e-05
3.1352e-05
3.52678e-05
3.19794e-05
2.34322e-05
1.82498e-05
2.29612e-05
3.61628e-05
5.10878e-05
6.15629e-05
6.5304e-05
6.3292e-05
5.74181e-05
4.88743e-05
3.82547e-05
2.65559e-05
1.56047e-05
7.34086e-06
2.67751e-06
1.03386e-06
9.17601e-07
9.95072e-07
7.62192e-07
3.72726e-07
9.66534e-08
1.21153e-09
0
0
0
0
0
0
0
0
0
0
0
0
0
0
0
0
0
0
0
0
0
0
0
0
1.22368e-84
1.30282e-83
0
0
8.97308e-63
3.35715e-62
0
1.48014e-47
2.89683e-46
0
0
0
5.45985e-43
0
0
2.16098e-34
3.70556e-33
1.00062e-32
7.64109e-33
0
0
1.31157e-31
1.07072e-05
6.22753e-06
1.43688e-06
0
1.13073e-06
4.23936e-06
9.85129e-06
1.73303e-05
2.44863e-05
2.99509e-05
3.30182e-05
3.15834e-05
2.48327e-05
1.66336e-05
1.30869e-05
1.71125e-05
2.6773e-05
3.77681e-05
4.67307e-05
5.24801e-05
5.51258e-05
5.46256e-05
5.03434e-05
4.19272e-05
3.04235e-05
1.83717e-05
8.60862e-06
2.75033e-06
5.09355e-07
3.01947e-07
5.11951e-07
4.7841e-07
2.54637e-07
6.92426e-08
2.18563e-09
0
0
0
0
0
0
0
0
0
0
0
0
0
0
0
0
0
0
0
0
0
0
0
0
0
9.43161e-65
6.65456e-64
1.39888e-62
0
1.10232e-48
7.0553e-47
3.82447e-48
0
0
5.23089e-42
0
0
2.25822e-37
4.12928e-35
1.82959e-34
0
0
3.10362e-32
3.63639e-31
1.24016e-30
6.30481e-06
2.16409e-06
7.79664e-08
9.47517e-07
3.89719e-06
8.42339e-06
1.43921e-05
2.1023e-05
2.67811e-05
3.05023e-05
3.20622e-05
3.08048e-05
2.55286e-05
1.70684e-05
9.25749e-06
6.22769e-06
9.03335e-06
1.60017e-05
2.4653e-05
3.3361e-05
4.14588e-05
4.8252e-05
5.22455e-05
5.15117e-05
4.50096e-05
3.37767e-05
2.08428e-05
9.78557e-06
2.89132e-06
1.48613e-07
0
2.5893e-07
3.04134e-07
1.68547e-07
4.43617e-08
1.05175e-09
0
0
0
0
0
0
0
0
0
0
0
0
0
0
0
0
0
0
0
0
0
0
0
0
1.53004e-65
1.54881e-63
5.67247e-63
0
6.31055e-48
1.37777e-46
0
0
2.73356e-41
1.46268e-40
2.12709e-40
0
0
0
4.63912e-33
4.34783e-32
1.60167e-31
5.10869e-31
1.25884e-30
2.31795e-30
2.86779e-06
3.95726e-07
8.41994e-07
3.59351e-06
7.93833e-06
1.33879e-05
1.93029e-05
2.47868e-05
2.88519e-05
3.08073e-05
3.07966e-05
2.89986e-05
2.47354e-05
1.75771e-05
9.12347e-06
2.81052e-06
1.09881e-06
3.30726e-06
8.22642e-06
1.508e-05
2.35991e-05
3.33955e-05
4.31906e-05
5.05543e-05
5.26523e-05
4.78142e-05
3.68479e-05
2.30605e-05
1.07642e-05
2.95752e-06
1.57262e-08
0
1.7124e-07
1.91375e-07
9.74507e-08
2.13145e-08
0
0
0
0
0
0
0
0
0
0
0
0
0
0
0
0
0
0
0
0
0
0
0
0
0
1.16068e-63
3.87512e-64
0
6.75546e-48
0
0
8.9868e-43
4.90675e-41
1.75027e-40
0
0
7.17952e-33
1.08789e-31
3.56999e-31
6.19122e-31
8.49717e-31
1.21716e-30
1.52682e-30
4.22421e-31
9.37873e-07
5.98084e-07
3.09803e-06
7.19299e-06
1.22601e-05
1.77526e-05
2.28431e-05
2.6749e-05
2.89713e-05
2.93034e-05
2.80334e-05
2.5658e-05
2.20797e-05
1.67182e-05
9.80514e-06
3.37437e-06
2.02512e-08
0
9.65936e-07
3.79235e-06
9.05826e-06
1.71378e-05
2.78053e-05
3.95902e-05
4.95391e-05
5.40513e-05
5.06441e-05
3.96451e-05
2.47106e-05
1.11557e-05
2.81852e-06
1.06795e-09
0
1.03327e-07
1.05613e-07
4.71858e-08
8.18058e-09
0
0
0
0
0
0
0
0
0
0
0
0
0
0
0
0
0
0
0
0
0
0
0
3.9039e-63
9.44439e-64
0
2.50951e-51
0
1.23377e-44
1.18833e-43
1.35717e-42
2.42433e-41
0
0
0
2.2536e-32
1.78193e-31
4.13908e-31
5.63893e-31
8.29236e-31
1.19931e-30
0
0
6.18024e-07
2.24377e-06
6.07753e-06
1.07494e-05
1.56442e-05
2.02162e-05
2.37728e-05
2.58479e-05
2.63526e-05
2.54264e-05
2.34099e-05
2.07958e-05
1.78003e-05
1.41129e-05
9.46185e-06
4.63045e-06
1.2362e-06
0
0
8.50829e-08
1.5737e-06
5.54026e-06
1.29155e-05
2.39136e-05
3.71793e-05
4.93425e-05
5.58964e-05
5.32857e-05
4.14465e-05
2.49625e-05
1.04881e-05
2.27348e-06
0
0
5.56199e-08
5.2068e-08
2.03772e-08
2.60685e-09
0
0
0
0
0
0
0
0
0
0
0
0
0
0
0
0
0
0
0
0
0
0
2.36923e-63
0
0
1.84325e-51
0
4.50232e-44
3.92332e-43
0
0
0
5.23252e-35
4.66444e-34
3.98835e-33
0
0
0
0
0
0
4.55167e-10
1.62431e-06
4.62493e-06
8.89749e-06
1.32397e-05
1.70888e-05
2.00395e-05
2.17364e-05
2.20881e-05
2.12867e-05
1.96297e-05
1.74221e-05
1.50063e-05
1.26465e-05
1.0295e-05
7.67117e-06
4.80932e-06
2.27887e-06
6.64659e-07
4.64793e-08
0
0
5.73514e-07
3.43764e-06
1.01043e-05
2.13474e-05
3.59204e-05
4.98944e-05
5.7675e-05
5.46116e-05
4.09285e-05
2.28932e-05
8.41824e-06
1.36444e-06
0
0
2.75835e-08
2.38448e-08
8.40513e-09
8.7849e-10
0
0
0
0
0
0
0
0
0
0
0
0
0
0
0
0
0
0
0
0
0
1.05249e-62
1.01493e-60
0
0
9.53462e-45
1.78361e-43
0
0
4.40729e-36
1.77515e-34
5.83155e-34
0
0
0
9.08424e-17
3.14992e-16
3.3761e-16
0
0
1.48548e-07
3.39087e-06
6.93396e-06
1.07329e-05
1.39412e-05
1.61827e-05
1.73059e-05
1.73173e-05
1.64109e-05
1.4897e-05
1.30693e-05
1.1133e-05
9.25399e-06
7.60191e-06
6.24369e-06
5.03356e-06
3.74267e-06
2.34504e-06
1.11438e-06
3.46281e-07
5.35072e-08
0
0
9.65941e-08
2.1879e-06
8.37397e-06
1.99214e-05
3.54632e-05
5.04697e-05
5.81463e-05
5.29717e-05
3.67452e-05
1.80197e-05
5.17208e-06
3.41555e-07
0
0
2.02826e-08
1.56335e-08
4.89988e-09
3.44203e-10
0
0
0
0
0
0
0
0
0
0
0
0
0
0
0
0
0
0
0
0
1.48487e-61
1.86395e-60
0
0
3.16633e-44
1.77733e-43
0
0
6.37126e-35
3.99995e-34
0
0
2.77716e-18
2.10577e-16
8.0772e-16
1.15943e-15
6.06745e-16
0
0
5.20914e-07
5.22251e-06
8.43994e-06
1.10585e-05
1.26888e-05
1.32499e-05
1.28559e-05
1.17555e-05
1.02564e-05
8.64058e-06
7.09914e-06
5.71629e-06
4.51964e-06
3.56002e-06
2.89967e-06
2.4967e-06
2.14636e-06
1.65136e-06
1.03381e-06
4.84236e-07
1.5003e-07
2.12704e-08
0
0
0
1.56105e-06
7.46276e-06
1.91499e-05
3.5042e-05
5.00884e-05
5.5785e-05
4.6431e-05
2.78853e-05
1.07928e-05
1.76844e-06
0
0
1.7879e-08
2.24644e-08
1.12605e-08
2.00037e-09
0
0
0
0
0
0
0
0
0
0
0
0
0
0
0
0
0
0
0
0
5.36151e-61
1.25771e-60
0
1.01377e-45
4.68246e-44
3.46118e-44
0
5.56883e-36
2.38141e-34
8.17166e-34
0
0
6.10457e-17
6.87907e-16
1.84158e-15
1.92699e-15
0
0
5.39287e-08
7.24922e-07
6.48125e-06
8.69617e-06
9.82303e-06
9.92037e-06
9.19971e-06
7.94472e-06
6.46527e-06
5.02025e-06
3.7709e-06
2.77704e-06
2.02157e-06
1.45464e-06
1.05096e-06
8.25503e-07
7.76787e-07
8.12899e-07
7.89757e-07
6.34584e-07
3.96702e-07
1.8141e-07
5.39234e-08
7.59429e-09
0
0
0
1.27375e-06
6.95767e-06
1.84348e-05
3.39315e-05
4.7614e-05
4.86544e-05
3.34017e-05
1.46795e-05
2.83775e-06
0
0
1.46483e-08
2.24337e-08
1.31719e-08
2.89288e-09
7.0718e-12
0
0
0
0
0
0
0
0
0
0
0
0
0
0
0
0
0
0
0
8.78646e-61
3.77485e-61
0
4.06094e-45
5.84509e-44
0
0
4.27157e-35
3.48317e-34
1.00773e-34
0
0
1.77468e-16
1.01876e-15
1.85726e-15
0
0
2.729e-09
7.71558e-08
3.53738e-07
6.76553e-06
7.67336e-06
7.45359e-06
6.48968e-06
5.16495e-06
3.78071e-06
2.55438e-06
1.60214e-06
9.428e-07
5.29093e-07
2.87357e-07
1.49784e-07
7.56044e-08
4.86824e-08
6.69427e-08
1.31474e-07
2.09022e-07
2.43056e-07
2.09216e-07
1.33802e-07
6.23578e-08
2.044e-08
4.67446e-09
5.724e-10
0
0
1.14771e-06
6.56177e-06
1.71884e-05
3.10188e-05
4.1357e-05
3.30377e-05
1.06592e-05
8.9032e-07
0
0
4.63783e-09
7.12341e-09
4.12632e-09
9.18687e-10
2.41914e-12
0
0
0
0
0
0
0
0
0
0
0
0
0
0
0
0
0
0
4.6827e-62
7.60749e-61
4.08144e-62
0
7.59265e-45
0
1.36371e-40
1.89018e-37
9.09598e-35
4.20853e-34
0
0
1.72332e-17
2.43284e-16
7.19272e-16
0
0
1.54512e-10
4.6316e-09
2.61087e-08
0
6.0209e-06
5.74513e-06
4.67923e-06
3.33602e-06
2.09125e-06
1.12767e-06
4.95921e-07
1.58212e-07
2.43025e-08
0
0
0
0
0
0
0
8.43341e-09
3.86533e-08
6.14393e-08
6.0693e-08
4.3122e-08
2.40731e-08
1.17894e-08
5.26365e-09
1.63222e-09
0
0
1.10449e-06
5.93565e-06
1.38134e-05
2.31429e-05
2.82153e-05
1.21678e-05
0
0
0
0
0
0
0
0
0
0
0
0
0
0
0
0
0
0
0
0
0
0
0
0
0
0
2.29127e-64
3.3426e-61
0
1.18883e-48
9.698e-45
0
0
3.73988e-36
9.91876e-35
0
0
2.97813e-19
3.06993e-17
1.50121e-16
0
0
8.9866e-12
1.81047e-10
9.89714e-10
0
0
4.53188e-06
3.52563e-06
2.25244e-06
1.14984e-06
4.28768e-07
8.33784e-08
0
0
0
0
0
0
0
0
0
0
0
0
4.41239e-09
1.3144e-08
1.77928e-08
1.77264e-08
1.57065e-08
1.25673e-08
8.21802e-09
3.64261e-09
0
0
1.03844e-06
3.4771e-06
3.81791e-06
1.64751e-05
0.000119337
0.000458001
0.00115331
0.00219745
0.00351348
0.00495014
0.00605205
0.00604349
0.00448908
0.00205207
6.7819e-05
0
0
0
0
0
0
0
0
0
0
0
0
0
0
0
0
0
0
0
1.54133e-46
2.69541e-45
0
2.44499e-38
4.63489e-36
3.90832e-35
0
0
7.1297e-19
1.46787e-17
3.16836e-17
0
0
0
0
0
0
0.00370059
2.78956e-06
1.62964e-06
6.79822e-07
1.48518e-07
3.93221e-10
0
0
0
0
0
5.66241e-12
2.48459e-11
3.91311e-11
1.84143e-10
7.02642e-10
1.45045e-09
1.8147e-09
0
0
0
4.15675e-09
1.09928e-08
1.81179e-08
2.28087e-08
2.26386e-08
1.75373e-08
9.0207e-09
0
0
9.50019e-08
0
0
0.000581529
0.00308455
0.00860552
0.017021
0.0269359
0.0362077
0.0421783
0.0421212
0.0349657
0.0230826
0.0114098
0.00398808
0.000699526
0
0
0
0
0
0
0
0
0
0
0
0
0
0
0
0
0
2.1258e-46
4.45816e-47
0
3.485e-38
3.0341e-36
3.11704e-36
0
0
0
0
0
0
0
0
0.000273563
0.00199173
0.00853936
0.0276713
1.29127e-06
4.49436e-07
5.33198e-08
0
0
0
0
0
2.6648e-12
3.95966e-11
1.57321e-10
3.29402e-10
5.49184e-10
1.13215e-09
2.63148e-09
5.1245e-09
7.76435e-09
8.76172e-09
7.51299e-09
4.87361e-09
5.25202e-09
1.15439e-08
2.34321e-08
3.70296e-08
4.62038e-08
4.64166e-08
3.66783e-08
1.91299e-08
0
0
0
0
0.00175037
0.00985475
0.0281167
0.0560463
0.0879988
0.115808
0.131982
0.131641
0.114393
0.0859202
0.0560157
0.0328539
0.0184683
0.0102607
0.0054512
0.00266798
0.00121162
0.000232781
0
0
0
0
0
0
0
0
0
0
0
0
1.30573e-46
0
0
1.16844e-38
5.04668e-37
0
0
0
0
9.8157e-05
0.00227375
0.00584629
0.00983913
0.0133891
0.0177158
0.0272913
0.0496265
0.0923299
3.57112e-07
2.2588e-08
0
0
0
2.27921e-13
1.05029e-11
2.55807e-11
6.98794e-11
2.33302e-10
6.17245e-10
1.20252e-09
1.97244e-09
3.28408e-09
5.87454e-09
1.02084e-08
1.56313e-08
2.02164e-08
2.15615e-08
1.93702e-08
1.70264e-08
1.99982e-08
3.21786e-08
5.2456e-08
7.39643e-08
8.77576e-08
8.73872e-08
7.08563e-08
3.99824e-08
1.49304e-08
1.22284e-09
0
0.00376005
0.0213353
0.0612183
0.122085
0.190199
0.246514
0.276637
0.275535
0.246931
0.201286
0.15215
0.110313
0.0791002
0.0564041
0.0396845
0.0277226
0.0187505
0.0101516
0.00276311
0
0
0
0
0
0
0
0
0
0
0
5.29208e-48
0
0
0
0
0
0.000147643
0.00175361
0.00520657
0.0123063
0.0242193
0.0393749
0.054234
0.0666966
0.0798596
0.102216
0.1434
0.207681
1.87744e-08
0
0
0
2.70271e-12
1.23904e-11
4.6999e-11
1.23643e-10
2.95425e-10
6.98696e-10
1.50021e-09
2.72036e-09
4.28219e-09
6.3868e-09
9.73748e-09
1.51265e-08
2.24742e-08
3.00869e-08
3.5065e-08
3.53948e-08
3.24641e-08
3.17742e-08
4.03702e-08
6.21783e-08
9.43728e-08
1.28475e-07
1.54874e-07
1.65687e-07
1.50528e-07
9.71717e-08
1.07162e-08
0
0.00630993
0.0355591
0.101887
0.202487
0.312796
0.400031
0.443092
0.440721
0.405076
0.351896
0.294692
0.242087
0.196714
0.157834
0.12548
0.0989899
0.0738939
0.046428
0.0213542
0.00720303
0.00291468
0.00175594
0.000958
0.000280045
0
0
0
0
0
0
0
0
0.000804873
0.002228
0.0046855
0.00866651
0.014801
0.0240475
0.0382964
0.0599427
0.0893475
0.122698
0.153419
0.178023
0.201184
0.234169
0.286612
0.358286
0
0
0
1.88608e-12
1.35832e-11
4.79045e-11
1.39276e-10
3.4951e-10
7.41632e-10
1.45476e-09
2.69569e-09
4.5171e-09
6.74303e-09
9.30809e-09
1.26979e-08
1.78621e-08
2.53627e-08
3.42866e-08
4.2004e-08
4.54714e-08
4.38134e-08
4.05106e-08
4.31909e-08
6.02007e-08
9.60856e-08
1.50438e-07
2.2173e-07
3.04448e-07
3.57657e-07
2.73763e-07
2.76242e-08
0
0.00887559
0.0490679
0.139434
0.274987
0.420421
0.530588
0.580589
0.576686
0.541908
0.496253
0.44893
0.401597
0.353712
0.306609
0.263561
0.222973
0.176196
0.12201
0.0736037
0.0442076
0.0316905
0.0254493
0.0202441
0.0160079
0.0130066
0.0109096
0.00939027
0.00826108
0.00774224
0.00853842
0.010997
0.0147988
0.0199734
0.0274556
0.0381506
0.0523653
0.0703478
0.0931382
0.122999
0.162078
0.209504
0.259333
0.302934
0.335864
0.363166
0.396528
0.444403
0.5039
0
0
0
1.03096e-11
4.53109e-11
1.32991e-10
3.23711e-10
7.19318e-10
1.35557e-09
2.32315e-09
3.81027e-09
5.86308e-09
8.22611e-09
1.06187e-08
1.32597e-08
1.70362e-08
2.29218e-08
3.09098e-08
3.92607e-08
4.49186e-08
4.54363e-08
4.15462e-08
3.87186e-08
4.65559e-08
7.61017e-08
1.41153e-07
2.66171e-07
4.69401e-07
6.56413e-07
5.36355e-07
3.55454e-08
0
0.0111597
0.0594384
0.165939
0.322809
0.486798
0.605566
0.654753
0.649356
0.621795
0.594034
0.569159
0.540728
0.504336
0.462824
0.421314
0.374382
0.30993
0.234578
0.171607
0.133425
0.113229
0.0984949
0.0849696
0.0741544
0.0662256
0.0601645
0.0556183
0.052487
0.051515
0.0547271
0.0624904
0.0729029
0.085825
0.103326
0.126248
0.153794
0.185211
0.221056
0.263221
0.312995
0.368268
0.422464
0.46725
0.498362
0.519708
0.540803
0.568729
0.601707
0
0
6.29317e-12
3.83748e-11
1.19007e-10
2.8852e-10
5.99805e-10
1.15653e-09
1.93858e-09
2.9602e-09
4.3379e-09
6.08311e-09
7.94024e-09
9.57758e-09
1.10274e-08
1.29427e-08
1.63177e-08
2.17251e-08
2.84863e-08
3.44177e-08
3.67485e-08
3.41797e-08
2.8946e-08
2.76252e-08
4.2907e-08
1.02465e-07
2.71803e-07
6.17234e-07
9.72595e-07
7.98668e-07
2.31292e-09
0
0.0132945
0.0667409
0.181039
0.344919
0.510872
0.625448
0.668408
0.661668
0.642349
0.631837
0.628684
0.621604
0.603942
0.578824
0.550205
0.507776
0.440258
0.36431
0.307603
0.275517
0.254101
0.231777
0.209588
0.192116
0.179059
0.168644
0.161125
0.156719
0.15625
0.162879
0.176806
0.194089
0.214349
0.24054
0.272917
0.309208
0.347296
0.386982
0.42975
0.476138
0.523523
0.566449
0.599152
0.61872
0.626895
0.629021
0.630649
0.634094
0
5.72661e-12
3.22878e-11
1.02916e-10
2.45496e-10
4.97991e-10
8.94131e-10
1.49526e-09
2.22895e-09
3.04596e-09
3.98206e-09
5.02554e-09
6.00801e-09
6.69792e-09
7.06168e-09
7.46824e-09
8.6183e-09
1.11662e-08
1.51656e-08
1.9617e-08
2.24979e-08
2.18289e-08
1.74875e-08
1.19835e-08
1.21583e-08
5.24148e-08
2.36173e-07
6.85115e-07
1.16854e-06
9.31331e-07
0
0.000310942
0.0155477
0.0726383
0.190032
0.352829
0.511869
0.616488
0.651923
0.643816
0.629094
0.627004
0.634824
0.641165
0.639364
0.631646
0.618671
0.588416
0.535544
0.481717
0.450135
0.437615
0.424526
0.401046
0.375057
0.354825
0.339453
0.327109
0.319575
0.316861
0.317923
0.326225
0.343207
0.363933
0.386743
0.414115
0.445971
0.479663
0.51218
0.542762
0.573034
0.603589
0.632159
0.655125
0.669801
0.675053
0.670559
0.656872
0.637113
0.617666
6.89488e-12
3.05859e-11
8.99922e-11
2.06032e-10
4.00332e-10
6.91022e-10
1.07838e-09
1.56606e-09
2.06498e-09
2.50639e-09
2.88271e-09
3.19487e-09
3.3947e-09
3.39637e-09
3.17618e-09
2.88542e-09
2.85573e-09
3.47534e-09
5.00255e-09
7.27036e-09
9.41511e-09
9.90307e-09
7.64326e-09
3.35674e-09
6.6278e-11
1.63029e-08
1.75096e-07
6.22902e-07
1.11336e-06
8.5109e-07
0
0.000692526
0.0180533
0.0789572
0.199167
0.360118
0.511767
0.607091
0.63628
0.626405
0.611817
0.609415
0.617415
0.626921
0.632296
0.634417
0.631201
0.613434
0.584059
0.561121
0.557949
0.568934
0.571908
0.555727
0.532968
0.515251
0.501637
0.491589
0.488941
0.49182
0.49417
0.498917
0.512582
0.53219
0.552204
0.571859
0.59213
0.612452
0.629928
0.643524
0.655484
0.66717
0.677046
0.682676
0.683078
0.678539
0.667985
0.648249
0.618727
0.586825
3.20602e-11
8.22763e-11
1.74109e-10
3.18492e-10
5.20518e-10
7.72431e-10
1.0472e-09
1.31327e-09
1.50756e-09
1.58646e-09
1.54708e-09
1.42249e-09
1.24677e-09
1.02534e-09
7.56139e-10
4.83048e-10
2.97991e-10
2.76468e-10
4.95438e-10
1.08869e-09
1.74659e-09
2.26512e-09
1.78993e-09
4.33115e-10
0
4.08342e-10
1.09236e-07
4.46621e-07
7.78167e-07
5.47174e-07
0
0.00119223
0.0217104
0.0885403
0.214242
0.376057
0.522782
0.610676
0.634358
0.622058
0.605764
0.600282
0.604487
0.611337
0.616009
0.618686
0.616484
0.605137
0.593287
0.591226
0.605704
0.635665
0.656855
0.652556
0.636963
0.624492
0.615132
0.610721
0.616621
0.627003
0.62836
0.623076
0.627548
0.644207
0.660135
0.668192
0.672395
0.676589
0.678611
0.677106
0.674816
0.67389
0.673272
0.670528
0.664636
0.656916
0.647449
0.631514
0.603999
0.569091
7.8578e-11
1.49818e-10
2.53314e-10
3.86716e-10
5.38991e-10
6.87421e-10
8.00239e-10
8.47942e-10
8.14756e-10
6.98918e-10
5.21632e-10
3.32402e-10
1.78064e-10
7.24908e-11
1.16945e-11
0
0
0
0
0
5.90863e-10
0
0
4.27821e-10
1.84086e-10
0
5.50393e-08
2.28331e-07
3.34331e-07
1.09399e-07
0
0.00321589
0.0308036
0.108129
0.242532
0.405977
0.546553
0.62504
0.641555
0.626383
0.609811
0.60404
0.606539
0.610122
0.610622
0.608587
0.601283
0.587663
0.578356
0.580054
0.600814
0.643257
0.678229
0.683377
0.673671
0.665513
0.660209
0.661804
0.675866
0.691597
0.688133
0.668756
0.662765
0.679053
0.694378
0.693763
0.685954
0.679982
0.674022
0.665945
0.658364
0.653749
0.651094
0.647209
0.640326
0.633028
0.628172
0.62159
0.603886
0.572612
1.31189e-10
2.02164e-10
2.84678e-10
3.68019e-10
4.36249e-10
4.70237e-10
4.54077e-10
3.82372e-10
2.75959e-10
1.58107e-10
5.74769e-11
4.6019e-12
0
0
0
0
0
0
0
0
0
5.96431e-09
3.44907e-10
0
0
0
1.84901e-08
6.29702e-08
3.6589e-08
0
0.000999317
0.0122907
0.0546647
0.148449
0.292296
0.452282
0.578827
0.641301
0.647511
0.629779
0.615744
0.613652
0.617822
0.619918
0.61683
0.609617
0.594718
0.57182
0.553336
0.550636
0.575699
0.625596
0.664851
0.672245
0.664953
0.659198
0.656281
0.661198
0.679063
0.69498
0.682936
0.649673
0.637545
0.65886
0.678449
0.675039
0.662897
0.655357
0.650031
0.643415
0.637421
0.634538
0.633676
0.63076
0.623591
0.616526
0.615839
0.619226
0.614138
0.590022
1.61542e-10
2.07664e-10
2.46018e-10
2.67194e-10
2.62371e-10
2.26941e-10
1.64758e-10
9.0226e-11
3.04515e-11
1.46913e-12
0
0
0
0
0
1.07773e-12
3.52092e-12
2.78279e-12
0
5.79097e-10
3.88304e-10
0
2.93749e-08
1.36143e-08
4.555e-09
2.15538e-10
1.53501e-09
2.15331e-09
0
0.000658356
0.00817792
0.036393
0.103189
0.217959
0.366877
0.512159
0.612778
0.65196
0.646077
0.627039
0.617287
0.620214
0.627334
0.629973
0.626006
0.615164
0.591685
0.556918
0.528945
0.527672
0.562267
0.614448
0.647046
0.650028
0.643918
0.640765
0.63881
0.642907
0.659092
0.670653
0.648379
0.60452
0.592986
0.624196
0.650688
0.648529
0.637293
0.633034
0.632342
0.630037
0.627252
0.626682
0.627503
0.624966
0.616735
0.60869
0.609879
0.620342
0.626102
0.609174
1.49454e-10
1.60507e-10
1.57246e-10
1.37575e-10
1.03038e-10
6.04952e-11
2.21453e-11
1.3377e-12
0
0
0
7.73716e-14
7.78502e-13
4.5072e-13
1.32523e-12
6.20874e-12
1.07822e-11
5.33113e-12
0
2.86964e-09
8.38013e-09
6.47691e-09
7.50067e-09
1.48685e-07
0
0
0
0
0
0.00343433
0.0245473
0.0799242
0.179021
0.31416
0.458241
0.575481
0.640797
0.654187
0.63803
0.619443
0.613516
0.619546
0.628646
0.633432
0.63142
0.617928
0.585218
0.540996
0.5129
0.524676
0.571975
0.619615
0.637788
0.633988
0.630952
0.632555
0.631
0.631056
0.64232
0.648521
0.617669
0.567124
0.560409
0.60292
0.635913
0.635795
0.626472
0.625427
0.628354
0.62853
0.626743
0.626365
0.627594
0.625528
0.617348
0.608872
0.610135
0.623352
0.634925
0.621735
1.01376e-10
8.80228e-11
6.66424e-11
4.09029e-11
1.69301e-11
2.1964e-12
0
0
0
0
0
1.02986e-12
2.71365e-12
2.27907e-12
6.16778e-12
1.68635e-11
2.16272e-11
6.84352e-12
0
6.61627e-09
2.4617e-08
3.58989e-08
2.69029e-08
0
1.12793e-06
0
0
0
0
0.0107347
0.0532526
0.142642
0.274334
0.421412
0.547946
0.628054
0.657055
0.649519
0.62817
0.611624
0.607475
0.613319
0.622564
0.630246
0.631714
0.615897
0.57513
0.527735
0.510256
0.540918
0.596483
0.63312
0.635559
0.62667
0.628474
0.635789
0.634646
0.630589
0.637571
0.640672
0.605485
0.551262
0.548064
0.598645
0.6364
0.637808
0.629362
0.629565
0.633531
0.633391
0.629912
0.627255
0.627567
0.626955
0.621703
0.615404
0.616793
0.629439
0.641256
0.62677
4.6043e-11
2.8819e-11
1.30765e-11
2.57395e-12
0
0
0
1.65608e-13
4.14063e-13
8.19802e-13
1.21422e-12
3.20374e-12
5.06259e-12
5.45284e-12
1.35743e-11
2.85102e-11
3.12968e-11
7.13621e-12
0
9.18148e-09
3.80298e-08
6.7116e-08
5.93349e-08
3.40958e-09
0
2.03096e-05
6.05299e-05
0.000383666
0.00529307
0.0315617
0.101396
0.222924
0.375766
0.518938
0.61681
0.659298
0.660272
0.641763
0.621111
0.607361
0.60296
0.606151
0.613891
0.623782
0.62859
0.611874
0.568024
0.525001
0.522531
0.567153
0.621398
0.644613
0.63629
0.625574
0.630556
0.640683
0.640035
0.635407
0.641675
0.644642
0.609976
0.554143
0.548112
0.599524
0.641116
0.645223
0.637251
0.637183
0.640635
0.639556
0.633991
0.627826
0.625572
0.626125
0.625528
0.624024
0.627247
0.638753
0.64801
0.629243
1.04159e-11
2.67868e-12
0
0
0
3.62469e-13
7.38454e-13
1.23162e-12
1.84661e-12
2.68339e-12
3.52814e-12
6.37009e-12
8.22343e-12
1.01638e-11
1.97949e-11
3.18823e-11
2.99559e-11
8.62734e-12
0
6.86723e-09
3.30124e-08
6.56118e-08
6.56911e-08
1.97168e-08
0
0.000201663
0.0018567
0.00812589
0.0282525
0.0795827
0.177866
0.319063
0.471367
0.591776
0.655203
0.667874
0.654129
0.634873
0.618898
0.607881
0.602225
0.601939
0.606954
0.616994
0.624039
0.609938
0.570888
0.537387
0.545385
0.591926
0.636909
0.650099
0.639201
0.629456
0.63299
0.639982
0.639429
0.638885
0.648009
0.652472
0.622433
0.566865
0.549573
0.592397
0.638536
0.649945
0.643855
0.642125
0.644039
0.643697
0.638715
0.630218
0.62405
0.623335
0.625882
0.629483
0.636098
0.648004
0.65581
0.634547
6.21896e-14
0
0
6.22214e-13
1.08085e-12
1.6038e-12
2.13279e-12
2.7296e-12
3.39033e-12
4.09171e-12
4.71426e-12
8.59934e-12
1.18822e-11
1.51802e-11
2.12771e-11
2.43464e-11
1.76957e-11
4.63069e-12
0
7.04425e-10
1.34668e-08
3.73293e-08
4.66456e-08
1.91878e-08
0
0.000858847
0.00777029
0.0293588
0.0770764
0.161373
0.283108
0.424667
0.552394
0.635234
0.665449
0.660526
0.64485
0.631592
0.621504
0.612616
0.605651
0.602216
0.603719
0.611438
0.619478
0.612023
0.584322
0.56007
0.567954
0.604944
0.639524
0.650553
0.644674
0.637669
0.635736
0.634424
0.632862
0.638353
0.651047
0.657075
0.634761
0.581634
0.5463
0.571705
0.623791
0.649311
0.647926
0.642738
0.641323
0.643375
0.642856
0.635493
0.625914
0.621333
0.62345
0.62979
0.639225
0.652329
0.661205
0.642988
1.75912e-13
1.09872e-12
1.63432e-12
2.09575e-12
2.4156e-12
2.68351e-12
2.94268e-12
3.19524e-12
3.37408e-12
3.40085e-12
3.36233e-12
6.57401e-12
1.02141e-11
1.31622e-11
1.42469e-11
1.07671e-11
3.60792e-12
0
5.25161e-10
8.77727e-09
3.62758e-08
8.32665e-08
1.03328e-07
3.79444e-08
0
0.00246299
0.0190502
0.0643688
0.147982
0.266442
0.401255
0.524663
0.611522
0.652061
0.656577
0.646374
0.637553
0.63284
0.627639
0.619929
0.612093
0.606542
0.604597
0.608431
0.616345
0.617079
0.601588
0.580732
0.577871
0.600532
0.630623
0.648208
0.65139
0.647573
0.639719
0.629412
0.625786
0.63518
0.648972
0.655792
0.6426
0.593504
0.538102
0.541773
0.600335
0.644659
0.650388
0.640827
0.634457
0.638539
0.644298
0.641549
0.631151
0.62246
0.621625
0.627643
0.637294
0.649739
0.659855
0.649487
3.14962e-12
3.15046e-12
2.9687e-12
2.77144e-12
2.5565e-12
2.30504e-12
2.03202e-12
1.71329e-12
1.27808e-12
7.84388e-13
3.85231e-13
3.189e-13
3.41824e-13
2.49534e-13
0
0
0
4.93918e-09
3.48835e-08
1.13849e-07
2.60993e-07
4.18564e-07
3.87526e-07
7.13985e-08
0
0.00581626
0.0359986
0.108808
0.227542
0.371914
0.506434
0.600322
0.643535
0.648444
0.63843
0.632161
0.633973
0.636952
0.634343
0.626793
0.61903
0.613312
0.609455
0.609693
0.616652
0.623249
0.614438
0.588827
0.570119
0.581814
0.616114
0.645509
0.656813
0.654771
0.643826
0.628905
0.623622
0.633187
0.645051
0.651758
0.645595
0.599096
0.527536
0.513724
0.577935
0.638922
0.651353
0.638914
0.628553
0.632772
0.642804
0.645274
0.636812
0.626366
0.622942
0.627266
0.634879
0.643626
0.651824
0.649248
5.19418e-12
3.41643e-12
2.26616e-12
1.52439e-12
9.48171e-13
4.51122e-13
0
0
0
0
0
0
0
0
7.81344e-10
5.08124e-09
2.09284e-08
7.15509e-08
2.04819e-07
4.93472e-07
9.44387e-07
1.25867e-06
8.71693e-07
0
0.000196037
0.0124762
0.0595073
0.158836
0.303659
0.458694
0.579573
0.640874
0.649113
0.632488
0.619288
0.621453
0.632717
0.639993
0.637371
0.629607
0.623605
0.62036
0.617214
0.615907
0.621958