/*--------------------------------*- C++ -*----------------------------------*\
  =========                 |
  \\      /  F ield         | OpenFOAM: The Open Source CFD Toolbox
   \\    /   O peration     | Website:  https://openfoam.org
    \\  /    A nd           | Version:  7
     \\/     M anipulation  |
\*---------------------------------------------------------------------------*/
FoamFile
{
    version     2.0;
    format      ascii;
    class       volScalarField;
    location    "10";
    object      k1Write;
}
// * * * * * * * * * * * * * * * * * * * * * * * * * * * * * * * * * * * * * //

dimensions      [0 2 0 0 0 0 0];

internalField   nonuniform List<scalar> 
49920
(
1.38264e-16
1.16646e-19
3.39674e-21
7.17977e-21
6.91208e-21
1.44805e-20
8.99074e-21
2.09745e-21
3.83808e-21
9.46696e-21
7.25558e-21
3.80148e-21
6.39735e-21
2.45175e-21
1.35367e-20
2.95463e-18
1.70848e-15
2.89654e-11
0.000167074
0.000167073
0.000167073
0.000167073
0.000167073
0.000167073
0.000167073
0.000167073
0.000167073
0.000167073
0.000167073
0.000167073
0.000167073
0.000167073
0.000167073
0.000167073
0.000167074
0.000167074
0.000167074
0.000167074
0.000167074
0.000167074
0.000167074
0.000167074
0.000167074
0.000167074
0.000167074
0.000167074
0.000167074
0.000167075
0.000167075
0.000167076
0.000167074
0.000167076
0.000167073
0.000167076
0.000167072
0.000167076
0.000167074
0.000167076
0.000167073
0.000167076
0.000167072
0.000167076
0.000167072
0.000167075
0.000167071
0.000167074
0.000167069
0.000167073
0.000167068
0.000167072
0.000167067
0.00016707
0.000167066
0.000167069
0.000167066
0.000167067
0.000167066
0.000167066
0.000167067
0.000167065
1.28759e-16
8.29952e-18
4.90539e-19
1.17538e-20
1.1111e-20
4.59641e-20
6.75306e-21
3.40653e-20
8.16651e-21
1.18549e-20
1.57733e-20
9.44003e-21
4.90391e-21
3.44998e-20
1.19429e-18
3.02979e-17
2.80719e-15
1.28576e-09
0.000167073
0.000167073
0.000167073
0.000167073
0.000167073
0.000167073
0.000167073
0.000167073
0.000167073
0.000167073
0.000167073
0.000167073
0.000167073
0.000167073
0.000167073
0.000167073
0.000167073
0.000167074
0.000167074
0.000167074
0.000167074
0.000167074
0.000167074
0.000167074
0.000167074
0.000167075
0.000167075
0.000167075
0.000167075
0.000167077
0.000167077
0.000167075
0.000167077
0.000167073
0.000167077
0.000167073
0.000167079
0.000167074
0.000167078
0.000167073
0.000167077
0.000167072
0.000167077
0.000167071
0.000167077
0.00016707
0.000167076
0.000167069
0.000167075
0.000167067
0.000167073
0.000167065
0.00016707
0.000167063
0.000167068
0.000167062
0.000167065
0.000167062
0.000167062
0.000167062
0.00016706
0.000167062
7.2412e-16
3.59957e-16
1.90694e-17
1.4155e-18
1.29952e-18
2.93371e-18
1.19034e-18
2.49153e-18
1.27231e-18
4.6865e-20
4.36212e-20
4.90739e-20
2.13933e-19
2.21553e-18
2.61565e-17
3.63621e-16
7.46153e-15
6.49529e-13
0.000167073
0.000167073
0.000167073
0.000167073
0.000167073
0.000167073
0.000167073
0.000167073
0.000167073
0.000167073
0.000167073
0.000167073
0.000167073
0.000167073
0.000167073
0.000167073
0.000167073
0.000167073
0.000167074
0.000167074
0.000167074
0.000167074
0.000167074
0.000167074
0.000167075
0.000167074
0.000167075
0.000167075
0.000167077
0.000167076
0.000167077
0.000167076
0.000167074
0.000167077
0.000167075
0.000167076
0.000167075
0.000167076
0.000167075
0.000167076
0.000167075
0.000167076
0.000167074
0.000167075
0.000167073
0.000167075
0.000167072
0.000167074
0.000167071
0.000167072
0.00016707
0.00016707
0.000167068
0.000167068
0.000167066
0.000167064
0.000167063
0.000167061
0.000167062
0.00016706
0.000167061
0.000167058
6.84108e-15
2.72555e-14
4.05775e-16
4.03737e-17
3.11264e-17
6.30663e-17
2.8556e-17
5.34431e-17
2.72637e-17
4.79151e-18
2.90606e-18
2.83838e-18
7.06522e-18
2.06916e-17
4.45396e-16
6.12792e-15
5.27034e-14
6.32391e-13
2.23886e-11
0.000167073
0.000167073
0.000167073
0.000167072
0.000167072
0.000167072
0.000167072
0.000167072
0.000167073
0.000167072
0.000167073
0.000167073
0.000167073
0.000167073
0.000167073
0.000167073
0.000167073
0.000167073
0.000167074
0.000167074
0.000167074
0.000167074
0.000167074
0.000167074
0.000167074
0.000167075
0.000167076
0.000167075
0.000167078
0.000167073
0.000167076
0.000167074
0.000167076
0.000167073
0.000167076
0.000167074
0.000167077
0.000167074
0.000167077
0.000167074
0.000167077
0.000167073
0.000167077
0.000167073
0.000167077
0.000167072
0.000167076
0.000167071
0.000167075
0.00016707
0.000167074
0.000167068
0.000167071
0.000167065
0.000167067
0.000167062
0.000167063
0.00016706
0.000167059
0.000167059
0.000167058
9.51372e-14
3.6023e-11
7.07963e-15
9.08019e-16
4.45934e-16
9.55598e-16
5.2442e-16
9.23526e-16
4.68097e-16
2.78328e-16
4.29643e-17
6.5959e-17
1.98372e-16
7.67447e-16
6.76472e-15
6.75767e-14
3.66347e-13
1.32476e-12
7.34844e-12
9.64515e-11
4.85036e-09
0.000167072
0.000167072
0.000167072
0.000167072
0.000167072
0.000167072
0.000167072
0.000167072
0.000167072
0.000167072
0.000167072
0.000167072
0.000167073
0.000167073
0.000167073
0.000167073
0.000167074
0.000167073
0.000167074
0.000167074
0.000167075
0.000167074
0.000167076
0.000167075
0.000167075
0.000167075
0.000167073
0.000167076
0.000167074
0.000167075
0.000167074
0.000167075
0.000167074
0.000167075
0.000167074
0.000167076
0.000167075
0.000167077
0.000167075
0.000167077
0.000167075
0.000167077
0.000167075
0.000167077
0.000167074
0.000167076
0.000167073
0.000167075
0.000167072
0.000167073
0.000167069
0.000167069
0.000167066
0.000167064
0.000167062
0.000167058
0.000167057
0.000167056
0.000167056
2.85546e-12
0.000167079
1.06592e-13
2.12441e-14
6.52332e-15
1.17058e-14
7.99671e-15
9.73896e-15
5.05098e-15
4.64091e-14
1.31306e-15
3.86243e-15
1.13956e-14
5.13358e-14
1.5496e-13
5.58982e-13
1.71211e-12
3.3322e-12
7.27681e-12
2.63374e-11
1.77203e-10
2.63565e-09
3.28543e-07
0.000167072
0.000167072
0.000167072
0.000167072
0.000167072
0.000167072
0.000167072
0.000167072
0.000167072
0.000167072
0.000167072
0.000167073
0.000167072
0.000167073
0.000167073
0.000167074
0.000167073
0.000167074
0.000167074
0.000167075
0.000167074
0.000167076
0.000167072
0.000167074
0.000167073
0.000167076
0.000167073
0.000167075
0.000167073
0.000167076
0.000167073
0.000167076
0.000167073
0.000167077
0.000167074
0.000167078
0.000167074
0.000167078
0.000167075
0.000167079
0.000167075
0.000167079
0.000167074
0.000167079
0.000167073
0.000167078
0.000167072
0.000167076
0.000167069
0.000167072
0.000167065
0.000167066
0.000167059
0.000167059
0.000167054
0.000167054
0.000167054
9.87928e-10
4.42308e-11
9.42268e-13
6.10555e-13
1.0681e-13
1.09685e-13
9.37614e-14
7.21397e-14
3.94021e-14
0.000167074
8.98e-14
4.2207e-13
4.98005e-11
0.000167075
6.07778e-11
1.00108e-11
8.54599e-12
9.36383e-12
1.1814e-11
2.11751e-11
5.95924e-11
2.7485e-10
2.3042e-09
4.44959e-08
0.000167072
0.000167072
0.000167072
0.000167072
0.000167072
0.000167072
0.000167072
0.000167072
0.000167072
0.000167072
0.000167072
0.000167072
0.000167073
0.000167073
0.000167073
0.000167073
0.000167074
0.000167075
0.000167074
0.000167076
0.000167071
0.000167077
0.000167072
0.000167075
0.000167071
0.000167076
0.000167072
0.000167076
0.000167072
0.000167077
0.000167072
0.000167077
0.000167072
0.000167078
0.000167073
0.00016708
0.000167073
0.000167081
0.000167074
0.000167082
0.000167074
0.000167082
0.000167073
0.000167082
0.000167072
0.000167081
0.000167071
0.000167078
0.000167068
0.000167072
0.000167063
0.000167064
0.000167057
0.000167055
0.000167055
0.000167053
0.000167077
1.26254e-11
3.15866e-12
1.7258e-11
2.51387e-12
8.14753e-13
6.80796e-13
3.8409e-13
2.11471e-13
6.46782e-12
0.000167074
0.000167074
0.000167075
0.000167076
0.000167076
7.02797e-09
1.29277e-10
4.73611e-11
3.25401e-11
3.34957e-11
5.1586e-11
1.193e-10
4.17868e-10
2.31571e-09
2.41149e-08
8.2041e-07
0.000167072
0.000167072
0.000167072
0.000167072
0.000167072
0.000167072
0.000167072
0.000167072
0.000167072
0.000167072
0.000167072
0.000167073
0.000167073
0.000167074
0.000167074
0.000167073
0.000167075
0.000167071
0.000167077
0.000167071
0.000167075
0.000167071
0.000167075
0.000167072
0.000167076
0.000167072
0.000167076
0.000167072
0.000167077
0.000167072
0.000167078
0.000167073
0.000167079
0.000167073
0.00016708
0.000167074
0.000167082
0.000167074
0.000167083
0.000167075
0.000167084
0.000167075
0.000167084
0.000167074
0.000167082
0.000167073
0.000167078
0.000167069
0.000167071
0.000167064
0.000167061
0.000167057
0.000167056
0.000167055
0.00016707
9.80027e-12
5.52584e-12
7.21497e-11
4.71014e-10
5.4753e-12
2.86016e-12
1.43805e-12
7.90795e-13
2.42026e-12
0.000167072
0.000167073
2.15188e-08
1.17584e-09
2.35988e-09
0.000167075
0.000167074
1.18484e-09
2.36128e-10
1.15151e-10
9.61509e-11
1.23792e-10
2.34613e-10
6.4709e-10
2.68452e-09
1.91548e-08
3.61482e-07
0.000167072
0.000167072
0.000167072
0.000167072
0.000167072
0.000167072
0.000167072
0.000167072
0.000167072
0.000167072
0.000167073
0.000167073
0.000167073
0.000167073
0.000167074
0.00016707
0.000167076
0.000167071
0.000167074
0.000167071
0.000167074
0.000167071
0.000167075
0.000167072
0.000167075
0.000167072
0.000167075
0.000167072
0.000167076
0.000167072
0.000167077
0.000167073
0.000167079
0.000167074
0.000167081
0.000167075
0.000167083
0.000167076
0.000167084
0.000167078
0.000167086
0.000167078
0.000167086
0.000167078
0.000167084
0.000167076
0.000167079
0.000167072
0.000167069
0.000167063
0.00016706
0.000167061
0.000167058
2.93742e-09
1.09553e-11
8.5423e-12
6.69875e-11
0.000167054
3.29189e-11
8.68979e-12
4.03256e-12
2.25634e-12
2.71287e-12
2.7828e-11
3.05377e-09
1.37279e-09
1.10758e-10
6.59878e-11
1.21555e-10
5.55604e-10
4.68422e-09
5.65826e-09
1.18613e-09
4.34721e-10
2.88082e-10
3.01577e-10
4.6524e-10
1.04016e-09
3.51639e-09
2.07832e-08
3.36483e-07
0.000167072
0.000167072
0.000167072
0.000167072
0.000167072
0.000167072
0.000167072
0.000167072
0.000167073
0.000167072
0.000167072
0.000167072
0.000167072
0.000167071
0.000167073
0.000167071
0.000167072
0.000167071
0.000167072
0.000167072
0.000167073
0.000167072
0.000167073
0.000167072
0.000167073
0.000167072
0.000167074
0.000167073
0.000167075
0.000167074
0.000167076
0.000167075
0.000167078
0.000167077
0.00016708
0.000167079
0.000167083
0.000167081
0.000167085
0.000167083
0.000167087
0.000167085
0.000167087
0.000167085
0.000167085
0.000167081
0.000167077
0.000167071
0.000167065
0.000167065
0.000167065
0.000167062
3.43793e-10
1.46143e-11
1.44737e-11
7.7095e-11
5.46159e-07
1.78404e-10
2.41099e-11
9.75604e-12
5.50243e-12
4.37593e-12
1.26016e-11
1.50002e-10
3.01199e-10
4.19738e-11
1.74597e-11
1.70002e-11
3.00607e-11
8.47247e-11
3.38746e-10
1.31755e-09
2.02923e-09
1.29811e-09
8.34058e-10
7.38621e-10
9.41944e-10
1.76549e-09
5.17797e-09
2.79076e-08
4.39465e-07
0.000167073
0.000167072
0.000167072
0.000167072
0.000167072
0.000167072
0.000167072
0.000167072
0.000167072
0.000167071
0.00016707
0.000167071
0.000167071
0.000167072
0.00016707
0.000167072
0.00016707
0.000167072
0.000167071
0.000167073
0.000167071
0.000167073
0.000167071
0.000167073
0.000167072
0.000167074
0.000167073
0.000167075
0.000167074
0.000167077
0.000167075
0.000167079
0.000167078
0.000167082
0.00016708
0.000167085
0.000167083
0.000167088
0.000167086
0.000167091
0.000167088
0.000167093
0.000167089
0.000167091
0.000167084
0.000167081
0.000167073
0.000167071
0.000167069
0.00016707
0.000167064
1.38873e-10
2.22251e-11
2.87644e-11
1.35068e-10
2.40722e-08
9.11483e-10
6.94114e-11
2.29433e-11
1.24387e-11
8.17173e-12
1.24904e-11
5.4632e-11
1.33286e-10
3.32242e-11
1.13398e-11
7.76934e-12
8.94613e-12
1.50952e-11
3.41229e-11
9.69757e-11
3.19921e-10
9.94978e-10
1.9285e-09
2.03506e-09
1.81045e-09
1.99144e-09
3.20642e-09
8.44514e-09
4.3393e-08
6.9686e-07
0.000167072
0.000167072
0.000167072
0.000167072
0.000167072
0.000167071
0.000167071
0.000167071
0.000167069
0.000167071
0.00016707
0.000167071
0.000167069
0.000167072
0.000167069
0.000167072
0.00016707
0.000167073
0.00016707
0.000167073
0.00016707
0.000167073
0.00016707
0.000167074
0.000167071
0.000167076
0.000167073
0.000167078
0.000167074
0.00016708
0.000167076
0.000167083
0.000167079
0.000167087
0.000167082
0.000167091
0.000167086
0.000167095
0.000167089
0.000167098
0.000167092
0.000167098
0.00016709
0.000167091
0.000167081
0.000167079
0.000167075
0.000167077
0.000167073
0.000167067
1.02421e-10
3.91444e-11
7.05505e-11
3.67721e-10
3.17554e-08
4.91037e-09
2.10901e-10
5.36755e-11
2.62972e-11
1.56436e-11
1.64829e-11
3.874e-11
9.1828e-11
4.23564e-11
1.34269e-11
7.05519e-12
5.95446e-12
7.16934e-12
1.12256e-11
2.14905e-11
4.89341e-11
1.33394e-10
4.38568e-10
1.54081e-09
3.70004e-09
4.49332e-09
4.54694e-09
6.32782e-09
1.51171e-08
7.51409e-08
1.24167e-06
0.000167072
0.000167071
0.000167071
0.00016707
0.00016707
0.00016707
0.000167068
0.000167069
0.000167069
0.00016707
0.000167068
0.000167071
0.000167069
0.000167072
0.00016707
0.000167072
0.00016707
0.000167073
0.00016707
0.000167073
0.00016707
0.000167074
0.000167071
0.000167075
0.000167072
0.000167077
0.000167074
0.000167079
0.000167076
0.000167082
0.000167079
0.000167086
0.000167082
0.000167091
0.000167086
0.000167095
0.000167091
0.0001671
0.000167095
0.000167103
0.000167096
0.0001671
0.000167091
0.00016709
0.000167082
0.000167082
0.000167079
0.000167076
0.000167066
1.10651e-10
8.35549e-11
2.32757e-10
1.82279e-09
3.25778e-07
2.07065e-08
5.43864e-10
1.09177e-10
4.74668e-11
2.71108e-11
2.30734e-11
3.594e-11
7.70252e-11
6.98227e-11
2.55707e-11
1.09758e-11
7.07014e-12
6.41667e-12
7.50882e-12
1.05662e-11
1.72278e-11
3.27819e-11
7.66157e-11
2.37211e-10
1.01715e-09
4.89385e-09
1.16707e-08
1.20352e-08
1.406e-08
2.97305e-08
1.39822e-07
2.26074e-06
0.00016707
0.00016707
0.000167068
0.000167068
0.000167067
0.000167068
0.000167068
0.000167069
0.000167068
0.000167071
0.000167069
0.000167072
0.00016707
0.000167072
0.00016707
0.000167072
0.00016707
0.000167073
0.00016707
0.000167074
0.000167071
0.000167075
0.000167072
0.000167077
0.000167074
0.000167079
0.000167076
0.000167082
0.000167078
0.000167085
0.000167082
0.00016709
0.000167086
0.000167095
0.000167091
0.000167101
0.000167097
0.000167107
0.000167101
0.000167108
0.000167099
0.0001671
0.00016709
0.00016709
0.000167083
0.000167083
0.000167074
0.000167064
1.62289e-10
2.32153e-10
1.23702e-09
3.11845e-08
1.42846e-05
1.15859e-08
6.80033e-10
1.47605e-10
6.34915e-11
3.77368e-11
2.98219e-11
3.62711e-11
6.75602e-11
1.11382e-10
7.03614e-11
2.83648e-11
1.42117e-11
9.78652e-12
8.69722e-12
9.25902e-12
1.12506e-11
1.55283e-11
2.53472e-11
5.26007e-11
1.5234e-10
6.88404e-10
5.17466e-09
3.47069e-08
4.40589e-08
3.74654e-08
6.3857e-08
2.67028e-07
3.97099e-06
0.000167067
0.000167067
0.000167065
0.000167067
0.000167067
0.000167068
0.000167068
0.00016707
0.000167069
0.000167072
0.00016707
0.000167072
0.00016707
0.000167073
0.00016707
0.000167073
0.000167071
0.000167074
0.000167072
0.000167075
0.000167073
0.000167077
0.000167075
0.000167079
0.000167076
0.000167081
0.000167079
0.000167084
0.000167082
0.000167089
0.000167086
0.000167094
0.000167091
0.0001671
0.000167098
0.000167108
0.000167104
0.000167112
0.000167106
0.000167108
0.000167099
0.000167097
0.000167089
0.000167086
0.000167078
0.00016707
0.000167057
3.23576e-10
9.56528e-10
1.79677e-08
0.000167067
2.90143e-08
2.06407e-09
3.82235e-10
1.23509e-10
6.18669e-11
4.13504e-11
3.40244e-11
3.71866e-11
6.01546e-11
1.34078e-10
2.16602e-10
1.26678e-10
5.17514e-11
2.60044e-11
1.69856e-11
1.34676e-11
1.22058e-11
1.24304e-11
1.46352e-11
2.11009e-11
4.00765e-11
1.09906e-10
5.00571e-10
4.90421e-09
1.42988e-07
4.06887e-07
1.41539e-07
1.6208e-07
5.72118e-07
7.73712e-06
0.000167065
0.000167066
0.000167066
0.000167068
0.000167068
0.00016707
0.00016707
0.000167072
0.000167071
0.000167072
0.000167072
0.000167073
0.000167072
0.000167074
0.000167073
0.000167074
0.000167074
0.000167076
0.000167075
0.000167077
0.000167076
0.000167078
0.000167078
0.00016708
0.00016708
0.000167083
0.000167082
0.000167086
0.000167086
0.000167091
0.000167092
0.000167097
0.000167099
0.000167105
0.000167107
0.000167112
0.00016711
0.000167111
0.000167105
0.000167101
0.000167094
0.000167088
0.000167081
0.000167072
0.000167062
0.000167051
9.33238e-10
7.92118e-09
6.10272e-06
4.13202e-08
2.44247e-09
5.22818e-10
1.79088e-10
8.39303e-11
5.17187e-11
3.98689e-11
3.60839e-11
3.90903e-11
5.69199e-11
1.27334e-10
4.32868e-10
9.5651e-10
4.54612e-10
1.44877e-10
6.10346e-11
3.33292e-11
2.15805e-11
1.59315e-11
1.35889e-11
1.39788e-11
1.83095e-11
3.25137e-11
8.53888e-11
3.87394e-10
4.43751e-09
1.67963e-06
0.000167066
5.53301e-07
4.01046e-07
1.30581e-06
1.88499e-05
0.000167067
0.000167068
0.000167069
0.00016707
0.000167071
0.000167072
0.000167073
0.000167073
0.000167074
0.000167073
0.000167075
0.000167074
0.000167075
0.000167075
0.000167076
0.000167076
0.000167077
0.000167076
0.000167078
0.000167077
0.000167079
0.000167079
0.000167081
0.000167081
0.000167083
0.000167083
0.000167087
0.000167087
0.000167092
0.000167093
0.000167099
0.0001671
0.000167107
0.000167107
0.000167112
0.000167108
0.000167108
0.0001671
0.000167096
0.000167087
0.000167081
0.000167071
0.000167063
0.000167052
0.000167042
4.51077e-09
2.36894e-07
5.23265e-08
2.87274e-09
5.8867e-10
2.06966e-10
9.95566e-11
6.03764e-11
4.45611e-11
3.90838e-11
3.91111e-11
4.41119e-11
6.0629e-11
1.2007e-10
4.45679e-10
4.6965e-09
3.07256e-08
3.39163e-09
5.4817e-10
1.63127e-10
6.66082e-11
3.32607e-11
1.98845e-11
1.45132e-11
1.33795e-11
1.62242e-11
2.7319e-11
6.97538e-11
3.20148e-10
4.241e-09
0.000149995
0.000167063
1.26507e-06
1.01287e-06
3.90626e-06
8.16547e-05
0.000167069
0.00016707
0.000167072
0.000167072
0.000167074
0.000167073
0.000167075
0.000167074
0.000167076
0.000167075
0.000167077
0.000167076
0.000167078
0.000167076
0.000167079
0.000167077
0.00016708
0.000167078
0.000167081
0.000167078
0.000167082
0.00016708
0.000167084
0.000167081
0.000167087
0.000167084
0.000167091
0.000167089
0.000167097
0.000167095
0.000167104
0.000167101
0.000167109
0.000167103
0.000167107
0.000167096
0.000167095
0.000167083
0.000167079
0.000167067
0.00016706
0.000167048
0.000167041
0.000167031
4.21756e-08
1.03709e-07
3.86515e-09
7.16988e-10
2.46796e-10
1.17705e-10
7.10891e-11
5.18433e-11
4.41949e-11
4.31987e-11
4.72019e-11
5.63473e-11
7.60917e-11
1.32725e-10
3.85864e-10
3.25808e-09
9.04582e-05
0.000167074
3.97604e-08
2.57945e-09
4.52115e-10
1.26303e-10
4.79794e-11
2.36657e-11
1.51141e-11
1.26957e-11
1.44614e-11
2.35991e-11
6.07472e-11
2.98069e-10
4.66957e-09
0.000167064
0.000167065
3.47457e-06
3.3258e-06
1.66616e-05
0.000167071
0.000167072
0.000167073
0.000167075
0.000167074
0.000167076
0.000167076
0.000167077
0.000167076
0.000167078
0.000167077
0.000167079
0.000167078
0.00016708
0.000167078
0.000167081
0.000167079
0.000167081
0.000167079
0.000167082
0.00016708
0.000167083
0.000167081
0.000167085
0.000167083
0.000167088
0.000167085
0.000167092
0.00016709
0.000167098
0.000167094
0.000167102
0.000167096
0.000167101
0.000167091
0.00016709
0.000167078
0.000167074
0.000167061
0.000167054
0.000167043
0.000167037
0.000167027
0.000167021
9.71269e-08
7.36858e-09
1.00433e-09
3.21037e-10
1.5157e-10
9.07654e-11
6.56376e-11
5.55217e-11
5.34153e-11
5.73779e-11
6.76893e-11
8.5778e-11
1.17078e-10
1.86253e-10
4.14372e-10
1.73022e-09
2.42757e-08
0.000167075
0.000167075
5.12467e-06
1.49799e-08
1.2086e-09
2.22386e-10
6.4867e-11
2.6834e-11
1.52344e-11
1.1871e-11
1.30628e-11
2.1592e-11
5.95266e-11
3.37225e-10
7.17691e-09
0.000167069
0.000167068
1.19917e-05
1.36836e-05
8.93421e-05
0.000167073
0.000167075
0.000167075
0.000167077
0.000167077
0.000167079
0.000167078
0.00016708
0.000167079
0.00016708
0.00016708
0.000167081
0.00016708
0.000167081
0.00016708
0.000167081
0.00016708
0.000167081
0.00016708
0.000167082
0.00016708
0.000167082
0.000167081
0.000167083
0.000167082
0.000167085
0.000167084
0.000167088
0.000167088
0.000167091
0.000167089
0.00016709
0.000167085
0.000167081
0.000167073
0.000167065
0.000167055
0.000167047
0.000167037
0.00016703
0.000167021
0.000167016
0.000167008
1.40608e-08
1.7343e-09
4.68586e-10
2.11623e-10
1.27026e-10
9.23726e-11
7.85133e-11
7.60326e-11
8.18659e-11
9.62712e-11
1.22216e-10
1.64737e-10
2.31953e-10
3.50017e-10
6.30408e-10
1.60391e-09
7.14344e-09
8.39751e-08
1.71724e-05
0.000167074
0.000167074
1.12786e-07
3.13916e-09
3.63335e-10
8.13968e-11
2.87471e-11
1.48989e-11
1.11499e-11
1.24359e-11
2.21422e-11
7.07759e-11
5.23461e-10
1.9926e-08
0.000167072
0.000167071
4.87586e-05
6.52476e-05
0.000167077
0.000167078
0.00016708
0.00016708
0.000167082
0.000167082
0.000167083
0.000167084
0.000167083
0.000167084
0.000167083
0.000167084
0.000167083
0.000167083
0.000167082
0.000167082
0.000167081
0.000167081
0.00016708
0.00016708
0.000167078
0.000167079
0.000167078
0.000167079
0.000167077
0.000167079
0.000167078
0.000167081
0.00016708
0.000167083
0.000167078
0.000167079
0.00016707
0.000167067
0.000167056
0.000167049
0.000167038
0.000167031
0.000167023
0.000167016
0.000167011
0.000167004
1.68041e-06
3.22643e-09
7.71556e-10
3.22022e-10
1.9086e-10
1.41648e-10
1.2386e-10
1.23697e-10
1.37741e-10
1.6716e-10
2.17184e-10
2.99307e-10
4.33197e-10
6.41949e-10
9.51623e-10
1.46419e-09
2.64841e-09
6.74599e-09
2.9873e-08
3.0938e-07
1.29577e-05
0.000167075
0.000167074
3.97601e-06
7.74981e-09
5.29022e-10
9.34706e-11
2.94936e-11
1.45612e-11
1.097e-11
1.32183e-11
2.74718e-11
1.1424e-10
1.38679e-09
3.17996e-07
0.000167077
0.000167076
9.01818e-05
0.000151794
0.000167084
0.000167086
0.000167087
0.000167089
0.00016709
0.00016709
0.00016709
0.000167091
0.00016709
0.00016709
0.000167089
0.000167088
0.000167087
0.000167086
0.000167084
0.000167084
0.000167081
0.000167081
0.000167078
0.000167078
0.000167076
0.000167077
0.000167074
0.000167076
0.000167074
0.000167076
0.000167073
0.000167075
0.000167072
0.000167071
0.000167065
0.000167061
0.000167053
0.000167046
0.000167036
0.000167028
0.00016702
0.000167014
0.000167006
0.000166999
0.00016699
1.36639e-07
1.36014e-09
5.20773e-10
3.03337e-10
2.30396e-10
2.11295e-10
2.24448e-10
2.6844e-10
3.52648e-10
4.96882e-10
7.36093e-10
1.13532e-09
1.81611e-09
2.92716e-09
4.41219e-09
5.95141e-09
8.05278e-09
1.3604e-08
3.4711e-08
1.58211e-07
1.64813e-06
8.19967e-05
0.00016707
0.000167067
0.000167061
1.52217e-08
6.66018e-10
1.01146e-10
3.02063e-11
1.47842e-11
1.19187e-11
1.72056e-11
4.77043e-11
3.18472e-10
1.18625e-08
0.000167081
0.000167085
0.000116065
7.35197e-05
0.000167094
0.000167094
0.000167097
0.000167096
0.000167097
0.000167098
0.000167098
0.000167097
0.000167097
0.000167096
0.000167095
0.000167094
0.000167092
0.00016709
0.000167088
0.000167086
0.000167084
0.000167082
0.00016708
0.000167079
0.000167076
0.000167076
0.000167074
0.000167074
0.000167072
0.000167072
0.000167069
0.00016707
0.000167063
0.000167064
0.000167053
0.000167053
0.000167041
0.000167037
0.000167024
0.000167018
0.000167009
0.000166998
0.000166991
0.000166979
1.27479e-05
7.05446e-08
8.83124e-10
4.90534e-10
3.84437e-10
3.76927e-10
4.38297e-10
5.87716e-10
8.87481e-10
1.47193e-09
2.60889e-09
4.81046e-09
9.07774e-09
1.75326e-08
3.35876e-08
5.44399e-08
6.14822e-08
5.61409e-08
5.94789e-08
9.21238e-08
2.35734e-07
1.12726e-06
1.27581e-05
0.000167069
0.000167066
0.000167064
0.000167066
2.28649e-08
7.66329e-10
1.09158e-10
3.22174e-11
1.63614e-11
1.56689e-11
3.32497e-11
1.72158e-10
4.60714e-09
0.00016709
0.000167092
0.000167094
7.37229e-05
0.000167095
0.000167098
0.000167096
0.000167097
0.000167097
0.000167097
0.000167098
0.000167098
0.000167098
0.000167097
0.000167097
0.000167095
0.000167094
0.000167091
0.00016709
0.000167087
0.000167086
0.000167082
0.000167081
0.000167078
0.000167077
0.000167073
0.000167074
0.000167069
0.000167071
0.000167064
0.000167067
0.000167056
0.000167062
0.000167047
0.000167049
0.000167036
0.000167033
0.00016702
0.00016702
0.000167
0.000166993
0.000166985
0.000166975
0.000166969
6.22743e-06
2.96253e-07
8.10465e-10
6.3002e-10
6.67708e-10
8.80781e-10
1.39055e-09
2.59526e-09
5.68546e-09
1.44524e-08
4.1736e-08
1.32523e-07
4.49277e-07
1.65358e-06
6.49025e-06
1.56535e-05
8.27842e-06
2.14622e-06
8.49115e-07
6.27963e-07
8.47534e-07
2.07215e-06
9.54031e-06
8.87931e-05
0.000167071
0.000167072
0.000167074
0.000167072
2.81623e-08
8.61523e-10
1.25558e-10
3.85534e-11
2.16888e-11
3.39877e-11
3.2654e-10
4.68058e-08
0.000167086
0.000167087
0.000167084
0.000167082
0.000167081
0.000167078
0.00016708
0.000167078
0.00016708
0.000167082
0.000167083
0.000167086
0.000167087
0.000167089
0.000167089
0.00016709
0.000167089
0.000167089
0.000167087
0.000167085
0.000167083
0.000167081
0.000167077
0.000167076
0.000167072
0.000167071
0.000167066
0.000167066
0.000167061
0.000167061
0.000167053
0.000167057
0.000167044
0.000167044
0.000167031
0.000167028
0.000167015
0.000167028
0.00016698
0.000167002
0.000166977
0.000166974
0.000166969
0.00016696
5.43835e-05
0.000166951
1.02333e-09
1.12391e-09
1.69423e-09
3.33319e-09
8.48222e-09
2.91716e-08
1.50838e-07
1.48205e-06
6.28129e-05
0.000167077
0.000167078
0.000167077
0.000167076
0.000167076
0.000167075
0.000167074
0.000167073
2.48299e-05
9.82776e-06
1.00709e-05
1.995e-05
6.40134e-05
0.000167066
0.000167064
0.00016706
0.000167058
0.000167062
3.04112e-08
1.05304e-09
1.94449e-10
6.92701e-11
4.66032e-11
2.50586e-10
0.000167065
0.000167066
0.000167054
0.000167052
0.000167047
0.000167043
0.000167043
0.00016704
0.000167041
0.000167043
0.000167049
0.00016705
0.00016706
0.000167062
0.000167069
0.000167074
0.000167077
0.000167081
0.000167081
0.000167081
0.000167078
0.000167076
0.000167073
0.000167071
0.000167066
0.000167065
0.00016706
0.000167058
0.000167054
0.000167052
0.000167047
0.000167046
0.000167034
0.000167038
0.000167017
0.00016702
0.000166995
0.000167017
0.000166942
0.000167031
0.000166967
0.000166986
0.000166978
0.000166964
0.000166959
0.000166956
0.00016695
1.80629e-09
2.98443e-09
7.31172e-09
2.80572e-08
2.01779e-07
5.33605e-06
0.000167069
0.000167072
0.000167076
0.000167078
0.000167078
0.000167077
0.000167076
0.000167076
0.000167075
0.000167075
0.000167074
0.000167074
0.000167074
0.000167072
0.000117178
0.000118056
0.000150369
0.00016706
0.000167061
0.000167069
0.000167086
0.000167097
3.4409e-08
3.06872e-09
2.54527e-09
1.36665e-10
2.60344e-12
1.76566e-13
2.77868e-14
7.6296e-15
2.97258e-15
1.49103e-15
9.94186e-16
9.97015e-16
1.8155e-15
8.75202e-15
8.06065e-12
0.00016701
0.000167012
0.000167018
0.000167026
0.000167033
0.000167043
0.000167052
0.000167063
0.000167069
0.000167071
0.000167069
0.000167066
0.000167062
0.000167056
0.000167054
0.000167047
0.000167044
0.00016704
0.000167036
0.000167034
0.000167027
0.00016702
0.000167021
0.000166995
0.000167003
0.000166959
0.000166968
0.000166891
0.000166993
0.000166925
0.000166996
0.000166993
0.000166995
0.000166995
0.000166987
0.000166972
2.67734e-15
4.76735e-09
1.39687e-08
8.02668e-08
1.68174e-06
0.000167063
0.000167065
0.000167069
0.000167072
0.000167076
0.000167079
0.000167079
0.000167078
0.000167076
0.000167076
0.000167076
0.000167076
0.000167075
0.000167075
0.000167074
0.000167071
0.000167069
0.000167067
0.00011301
7.13089e-05
7.23876e-05
0.000120633
0.000167095
0.000167098
0.00016708
4.11025e-06
0.000167043
0.000167061
1.09512e-13
3.86262e-15
4.88025e-16
1.21587e-16
4.70973e-17
2.53268e-17
1.83192e-17
1.83718e-17
2.72615e-17
6.48916e-17
2.75194e-16
2.30353e-15
7.56162e-14
0.000166987
0.000166993
0.000166994
0.000167001
0.000167011
0.000167029
0.000167046
0.000167056
0.000167059
0.00016706
0.000167049
0.000167046
0.000167034
0.000167028
0.00016702
0.000167016
0.000167013
0.000167007
0.000167003
0.000166999
0.000166982
0.00016698
0.000166949
0.00016694
0.000166883
0.000166917
0.000166857
0.000166948
0.000166962
0.000166992
0.000166992
4.95111e-13
9.29266e-15
4.95629e-16
4.4514e-17
2.22492e-08
1.83656e-07
1.30482e-05
0.000167063
0.000167063
0.000167065
0.000167069
0.000167072
0.000167076
0.000167079
0.00016708
0.000167078
0.000167076
0.000167076
0.000167076
0.000167076
0.000167075
0.000167074
0.000167072
0.00016707
0.00016707
0.000167071
6.75659e-05
2.7056e-05
1.73788e-05
1.72203e-05
2.75785e-05
0.000101378
0.000167072
0.000167055
0.000167048
0.000167048
1.2043e-14
3.70794e-16
4.30719e-17
9.93105e-18
3.63308e-18
1.91166e-18
1.39255e-18
1.4014e-18
1.96857e-18
3.83677e-18
9.94139e-18
3.10776e-17
1.028e-16
3.41452e-16
1.22749e-15
5.1673e-15
2.51641e-14
6.83749e-13
0.000166986
0.000167005
0.000167029
0.000167047
0.000167046
0.000167047
0.000167037
0.000167022
0.000167008
0.000167002
0.000166994
0.000166993
0.000166987
0.000166987
0.000166977
0.000166971
0.000166961
0.000166948
0.000166933
0.000166918
0.000166895
3.8459e-12
7.12151e-15
1.06572e-15
3.71784e-16
1.98592e-16
1.11964e-16
4.58185e-17
1.29241e-17
3.25244e-18
2.90902e-07
7.27089e-05
0.000167067
0.000167063
0.000167063
0.000167065
0.000167068
0.000167073
0.000167077
0.000167079
0.00016708
0.000167078
0.000167077
0.000167076
0.000167076
0.000167075
0.000151831
9.07694e-05
7.97969e-05
9.88722e-05
0.000127966
9.27592e-05
3.58265e-05
1.34819e-05
6.78128e-06
4.81717e-06
4.85815e-06
7.38924e-06
2.32062e-05
0.000166401
0.000167027
0.000167006
2.59348e-15
7.63643e-17
8.18783e-18
1.68378e-18
5.44477e-19
2.61102e-19
1.83447e-19
1.8576e-19
2.59773e-19
4.66408e-19
9.76348e-19
2.146e-18
4.62843e-18
9.79205e-18
2.0851e-17
4.43429e-17
9.96374e-17
3.4893e-16
4.81605e-15
0.000166973
0.000166997
0.00016702
0.000167039
0.000167044
0.000167033
0.000167016
0.000166999
0.000166984
0.000166982
0.000166975
0.000166974
0.000166969
0.00016697
0.00016697
0.000166961
0.000166962
1.69985e-12
1.19911e-14
1.34614e-15
2.35858e-16
5.87146e-17
2.11967e-17
1.06618e-17
6.77493e-18
4.52873e-18
2.56785e-18
1.13328e-18
4.27565e-19
0.000105251
0.000167073
0.000167067
0.000167064
0.000167064
0.000167065
0.000167069
0.000167073
0.000167077
0.00016708
0.00016708
0.000167079
0.000167077
0.000167076
0.000167076
0.000162134
7.3448e-05
4.09815e-05
3.01714e-05
2.96118e-05
3.51995e-05
3.67443e-05
2.27623e-05
9.59542e-06
4.16546e-06
2.24773e-06
1.54684e-06
1.35149e-06
1.63721e-06
3.92813e-06
0.000167015
0.000167018
9.13966e-16
2.63124e-17
2.58837e-18
4.5888e-19
1.23032e-19
5.00586e-20
3.26315e-20
3.34056e-20
4.75946e-20
8.15337e-20
1.49835e-19
2.75492e-19
4.96723e-19
8.89101e-19
1.57508e-18
2.76783e-18
5.39372e-18
1.49148e-17
7.62105e-17
6.99249e-16
4.32606e-15
1.19621e-14
4.02891e-14
4.7248e-13
0.000167031
0.000167024
0.000166991
0.000166983
0.000166976
0.000166964