/*--------------------------------*- C++ -*----------------------------------*\
  =========                 |
  \\      /  F ield         | OpenFOAM: The Open Source CFD Toolbox
   \\    /   O peration     | Website:  https://openfoam.org
    \\  /    A nd           | Version:  7
     \\/     M anipulation  |
\*---------------------------------------------------------------------------*/
FoamFile
{
    version     2.0;
    format      ascii;
    class       volScalarField;
    location    "10";
    object      k2Write;
}
// * * * * * * * * * * * * * * * * * * * * * * * * * * * * * * * * * * * * * //

dimensions      [0 2 0 0 0 0 0];

internalField   nonuniform List<scalar> 
49920
(
6.76468e-08
5.70691e-11
1.66185e-12
3.51269e-12
3.38172e-12
7.08455e-12
4.39871e-12
1.02617e-12
1.87777e-12
4.6317e-12
3.54978e-12
1.85987e-12
3.1299e-12
1.19951e-12
6.62287e-12
1.44554e-09
8.35883e-07
0.0141715
81740.9
81740.4
81740.2
81740.1
81740
81739.9
81739.8
81739.8
81739.7
81739.7
81739.7
81739.8
81739.9
81740.1
81740.2
81740.5
81740.7
81741.1
81741.3
81741.5
81741.5
81741.6
81741.7
81741.9
81742.1
81742.1
81742.3
81742.5
81742.7
81744.2
81743.7
81746.3
81742.3
81747
81740.6
81745.8
81738
81747.2
81741.3
81746.5
81739.4
81746
81738.3
81745.3
81736.4
81744.4
81734.7
81742.7
81731.8
81740.3
81729.3
81737.3
81726.3
81733.7
81724.5
81730.4
81723.6
81727.4
81724
81724.5
81725.7
81722.4
6.30027e-08
4.06048e-09
2.39996e-10
5.75053e-12
5.43603e-12
2.24878e-11
3.30391e-12
1.66663e-11
3.99543e-12
5.79997e-12
7.71699e-12
4.61848e-12
2.39921e-12
1.68789e-11
5.8431e-10
1.4823e-08
1.37337e-06
0.629035
81739.2
81740
81739.8
81739.7
81739.4
81739.3
81739.2
81739.1
81739.2
81739.2
81739.3
81739.5
81739.6
81739.8
81739.9
81740.3
81740.6
81741.2
81741.4
81741.8
81741.7
81742.2
81742.1
81742.8
81742.5
81743.2
81742.9
81743.8
81744.7
81747.6
81749.2
81744.3
81749
81739.9
81749.1
81739.4
81753.3
81742.1
81750.3
81739.9
81749.2
81738
81748.9
81735.8
81747.6
81733.3
81746.2
81730.1
81743.1
81726.3
81739.4
81722.4
81734.1
81718.8
81728.2
81716.2
81721.6
81714.9
81716
81716.6
81712.3
81715.9
3.544e-07
1.76116e-07
9.32985e-09
6.92534e-10
6.35792e-10
1.43533e-09
5.82379e-10
1.21899e-09
6.22478e-10
2.29286e-11
2.13415e-11
2.40092e-11
1.04666e-10
1.08395e-09
1.27974e-08
1.77904e-07
3.6504e-06
0.000317766
81739.4
81739.8
81739.6
81739.2
81738.9
81738.6
81738.7
81738.7
81738.9
81738.9
81739.3
81739.1
81739.5
81739.2
81739.8
81739.7
81740.5
81740.4
81741.3
81741
81742
81741.5
81742.7
81741.9
81743.3
81742.3
81743.6
81743.3
81748.9
81746.7
81748.5
81745.4
81740.8
81748.6
81742.9
81745.5
81744.6
81746.8
81744.4
81746.3
81743.1
81745.8
81742
81744.9
81740.4
81743.6
81738.5
81741.3
81735.6
81738.1
81732.3
81733.5
81728.3
81727.8
81723.9
81720.8
81718.9
81713.9
81716.4
81711
81712.5
81707.6
3.34859e-06
1.33361e-05
1.98524e-07
1.97533e-08
1.52287e-08
3.08554e-08
1.39711e-08
2.61473e-08
1.33388e-08
2.34427e-09
1.4218e-09
1.38869e-09
3.45669e-09
1.01235e-08
2.17912e-07
2.99811e-06
2.57846e-05
0.000309383
0.0109534
81738.6
81738.8
81738.7
81738.3
81738
81737.9
81738.1
81738.1
81738.6
81738.4
81738.8
81738.5
81739
81738.8
81739.5
81739.5
81740.2
81740.3
81740.9
81741.1
81741.6
81741.9
81742.2
81742.6
81742.5
81744
81746.5
81743.5
81749.5
81740.2
81746.1
81742.7
81746.5
81739.9
81745.9
81741.1
81747.7
81741.6
81748.3
81741.3
81748.6
81740.6
81748.7
81739.5
81748.2
81737.8
81747
81735.4
81744.8
81732.1
81741.1
81727.9
81735.7
81722.5
81727.3
81716.1
81718.1
81712.2
81709.2
81708.9
81706.7
4.65691e-05
0.0176275
3.46382e-06
4.44268e-07
2.18178e-07
4.67525e-07
2.56573e-07
4.51829e-07
2.29022e-07
1.36174e-07
2.10205e-08
3.22709e-08
9.70536e-08
3.75471e-07
3.30961e-06
3.30631e-05
0.000179234
0.000648107
0.00359507
0.0471874
2.37297
81738.3
81737.6
81737.5
81737.2
81737.4
81737.5
81737.5
81737.6
81737.8
81737.9
81738.2
81738.3
81738.8
81738.7
81739.6
81739.4
81740.7
81740.1
81741.9
81740.8
81742.9
81741.6
81745.5
81742.9
81744.1
81743.6
81739.1
81747
81742.8
81744.5
81741.3
81743.8
81741.7
81744.8
81742.5
81746.2
81743.2
81747.3
81743.6
81748.1
81743.6
81748.4
81743
81748.1
81741.8
81746.7
81739.7
81743.9
81736.4
81739
81731.5
81730.9
81723.9
81719.5
81715.1
81706.9
81705.9
81701.9
81703.6
0.00139757
81752.2
5.21536e-05
1.03936e-05
3.19164e-06
5.72725e-06
3.91253e-06
4.76477e-06
2.47112e-06
2.27053e-05
6.42409e-07
1.88969e-06
5.57538e-06
2.51164e-05
7.58162e-05
0.000273491
0.000837658
0.00163021
0.00356001
0.0128851
0.0866936
1.28946
160.735
81736.8
81736.9
81736.9
81737.1
81736.9
81737.1
81737
81737.6
81737.5
81738.1
81737.9
81738.7
81738.4
81739.6
81739.2
81740.8
81740.4
81742
81742.2
81744.8
81741
81745.9
81737.5
81742.7
81740.1
81745.1
81738.8
81744.5
81739.3
81745.8
81739.9
81746.3
81740.5
81747.9
81741.7
81749.7
81742.6
81751.2
81743.2
81752.3
81743
81752.7
81742.2
81752.2
81740.2
81750
81736.6
81745.5
81730.8
81737.1
81721.3
81724
81708.7
81708.3
81698.3
81699.2
81698.1
0.483458
0.0216386
0.000460957
0.000298663
5.22545e-05
5.36646e-05
4.58734e-05
3.52954e-05
1.92776e-05
81741.9
4.39348e-05
0.000206501
0.0243656
81744.2
0.0297366
0.00489794
0.0041812
0.00458114
0.00577974
0.0103595
0.0291546
0.134466
1.12729
21.7688
81737.1
81737.1
81737.2
81736.9
81736.9
81737.1
81737.4
81737.5
81737.7
81737.8
81738
81738.2
81738.7
81739.3
81740.1
81740.6
81742.4
81743.2
81740.8
81745.1
81735.3
81747.5
81736.9
81745
81736.1
81745.4
81736.9
81747
81737.8
81747.7
81737.3
81749.1
81738.5
81751.5
81739.6
81754.1
81740.6
81756.4
81741
81758.3
81741
81759.5
81740.2
81759.2
81738.2
81756.5
81734.6
81749.7
81727.9
81737.1
81717.6
81719.2
81704.9
81700.6
81700.2
81697
81749
0.00617578
0.00154494
0.0084407
0.00122963
0.000398563
0.000333039
0.00018791
0.000103465
0.0031644
81741.6
81742.7
81743.7
81745.2
81745.7
3.43857
0.0632498
0.0231711
0.0159196
0.0163871
0.0252374
0.0583658
0.204435
1.13293
11.7978
401.375
81737.5
81737.5
81737.1
81737.5
81737.3
81737.7
81737.4
81737.8
81737.5
81738.1
81738.3
81739.2
81739.7
81741.1
81741.9
81740.1
81743.9
81734.5
81747.9
81735.4
81743.2
81735.3
81744.2
81736.4
81745.9
81737.1
81746.7
81736.5
81747.3
81737.2
81749.7
81738.7
81752.6
81740.2
81755.6
81741.5
81758.6
81742.6
81761.3
81743.4
81763.2
81743.6
81763.4
81742.3
81760.2
81738.6
81751.5
81731.1
81736.2
81719.3
81712.9
81705.9
81703.6
81701
81733
0.00479348
0.00270258
0.0352852
0.230357
0.00267795
0.00139896
0.000703462
0.000386881
0.00118406
81737.8
81740.2
10.5283
0.57531
1.15463
81744.5
81742.1
0.579674
0.115521
0.0563355
0.04704
0.0605632
0.114781
0.31658
1.31337
9.37125
176.851
81737.7
81737.8
81737.6
81737.9
81737.6
81737.8
81737.5
81737.7
81738.1
81738.4
81739.1
81739.3
81740
81738.6
81741.9
81734.1
81745.4
81735.5
81741.5
81735
81742
81736
81743.6
81736.5
81744.3
81736.3
81744.5
81736.5
81746.5
81738.1
81749.4
81740
81752.6
81742.2
81756.3
81744.5
81760.3
81747.1
81764.2
81749.4
81767.3
81751
81768
81750.7
81764.3
81747
81753.5
81737.3
81730.5
81718.6
81711.6
81713
81707.3
1.43686
0.00535819
0.00417785
0.032761
81697.9
0.0160992
0.00424996
0.00197242
0.00110376
0.00132712
0.013614
1.49403
0.671657
0.0541908
0.0322861
0.0594726
0.271831
2.29171
2.76821
0.580288
0.212681
0.14094
0.147544
0.227614
0.50889
1.72036
10.168
164.62
81738.3
81738.1
81738.3
81737.9
81738
81737.5
81738.2
81737.6
81738.8
81737.4
81737.7
81737.5
81738.1
81734.3
81740.4
81736
81737.8
81735.9
81738
81736.7
81739.3
81737.4
81739.9
81737.5
81740.1
81737.7
81741.5
81739.5
81744
81741.8
81747.2
81744.8
81751
81748.3
81755.6
81752.7
81760.8
81757.4
81765.9
81762
81769.9
81765.2
81771
81765.1
81766
81757.5
81748
81736.2
81723.2
81722.8
81721.9
81715.5
0.168158
0.00714765
0.00707882
0.0377055
267.112
0.0872523
0.0117916
0.00477173
0.00269151
0.00214062
0.00616482
0.0733875
0.147364
0.0205365
0.00854249
0.00831757
0.0147072
0.0414511
0.165725
0.64459
0.992766
0.635088
0.408054
0.361367
0.460838
0.863756
2.53327
13.6536
215.003
81739
81737.9
81738.5
81737.3
81738.2
81737
81738.2
81736.3
81736.3
81736.3
81733.7
81734.6
81734.3
81737.7
81733.2
81737
81733.8
81738
81734.7
81739
81735.1
81739.4
81735.4
81740
81736.4
81741.9
81738.5
81744.7
81741.3
81748.3
81745
81753
81749.6
81758.8
81755.2
81765.6
81761.5
81772.8
81767.8
81779.3
81772.9
81782.7
81773.6
81778
81763
81757.3
81738.6
81735.4
81731.9
81734.1
81720.9
0.067925
0.0108701
0.0140683
0.0660606
11.7737
0.445806
0.0339494
0.011222
0.00608438
0.00399744
0.00611047
0.0267279
0.0652104
0.0162554
0.00554818
0.00380122
0.0043769
0.00738522
0.0166942
0.0474437
0.156517
0.486784
0.943508
0.995647
0.88576
0.974302
1.56873
4.13172
21.2297
340.931
81738.4
81737.4
81737.6
81736.7
81736.7
81735.4
81735
81734.7
81730.8
81734.5
81732.8
81735.5
81730.8
81736.8
81731.9
81738.3
81732.5
81739.2
81732.7
81739.6
81732.9
81740.6
81733.9
81742.6
81735.9
81745.6
81738.5
81749.5
81742
81754.6
81746.5
81761.1
81752.3
81769
81759.3
81778
81767.3
81787.1
81775.2
81794.3
81780.6
81794.5
81776.8
81779.1
81757.3
81753.5
81742.9
81747.4
81740.5
81725.5
0.0500976
0.0191463
0.034507
0.179855
15.532
2.40178
0.103159
0.0262551
0.0128637
0.00765265
0.00806366
0.0189527
0.0449265
0.0207232
0.00656929
0.0034518
0.00291323
0.00350754
0.00549199
0.0105139
0.0239406
0.0652624
0.21457
0.75384
1.81026
2.19834
2.22458
3.09583
7.39593
36.7616
607.467
81736.6
81736.2
81735
81734.1
81732.7
81732.2
81728.5
81731.9
81730.1
81732.6
81729.8
81735.5
81731.6
81737.6
81732.2
81738.4
81732.1
81738.7
81732.3
81739.7
81733.4
81741.7
81735.4
81744.7
81738.1
81748.6
81741.5
81753.6
81746
81760
81751.9
81768.1
81759.3
81777.8
81768.1
81788.6
81778.1
81799.3
81787.6
81805.8
81790.6
81799
81777.9
81775.9
81758.1
81760.2
81752.4
81747.2
81723.4
0.0541262
0.0408711
0.113851
0.891584
159.348
10.1284
0.266032
0.0534056
0.0232198
0.0132626
0.0112878
0.0175829
0.0376842
0.0341615
0.0125108
0.00537003
0.00345907
0.00313933
0.00367361
0.00516943
0.00842862
0.0160386
0.0374844
0.116058
0.497644
2.39432
5.70978
5.88814
6.87862
14.5452
68.4046
1106.01
81733.3
81732.1
81729.8
81729
81725.5
81728.7
81728.3
81730.7
81728.8
81734.4
81731.3
81737
81732.2
81738
81732.1
81738.3
81732.3
81739.3
81733.5
81741.4
81735.6
81744.3
81738.3
81747.9
81741.6
81752.7
81745.9
81758.8
81751.5
81766.6
81758.7
81776.1
81767.8
81787.7
81779
81800.8
81791.7
81812.9
81801.3
81815.3
81797.1
81798.9
81777.3
81775.9
81762.3
81760.7
81741.8
81719.2
0.0793906
0.113566
0.605117
15.2543
6987.4
5.66731
0.332649
0.0722051
0.0310595
0.018461
0.0145894
0.0177449
0.0330537
0.054495
0.0344255
0.0138778
0.00695315
0.004788
0.00425503
0.00452988
0.00550432
0.00759725
0.0124013
0.0257352
0.0745331
0.336799
2.53167
16.9797
21.5549
18.3289
31.2398
130.631
1942.6
81727
81725.7
81722.8
81725.9
81725.9
81729.1
81728.2
81733.6
81731.5
81736.7
81733
81738.1
81733.4
81738.9
81733.9
81740
81735.2
81742
81737.3
81744.7
81739.8
81748.1
81742.9
81752.3
81746.8
81757.7
81751.8
81764.6
81758.4
81773.5
81767.1
81784.9
81778.8
81799.3
81793.6
81815.1
81808
81824.7
81811.5
81816.3
81796.1
81792
81773.9
81768.5
81751.3
81733.1
81705.9
0.1583
0.467943
8.78978
81727.6
14.1932
1.0097
0.186982
0.0604195
0.0302654
0.0202291
0.0166455
0.0181931
0.0294309
0.0656001
0.105977
0.061979
0.0253197
0.0127226
0.00831016
0.00658897
0.00597172
0.00608162
0.00716038
0.0103237
0.0196073
0.0537703
0.244897
2.39928
69.9521
199.051
69.2403
79.2863
279.865
3784.73
81721.7
81723.8
81724.5
81728.1
81728.6
81732.9
81732.9
81736.4
81735.4
81738.4
81736.8
81739.5
81737.9
81740.9
81739.4
81742.7
81741.3
81745
81743.6
81747.7
81746.3
81751
81749.7
81755.1
81753.9
81760.7
81759.9
81768.2
81768.2
81778.6
81780.1
81793
81796
81810.3
81812.9
81823.9
81820.9
81822.1
81810
81800.9
81784.9
81772.1
81756.2
81737.6
81716.5
81691.1
0.456576
3.87524
2985.55
20.2142
1.19487
0.255763
0.0876101
0.0410592
0.0253015
0.0195047
0.0176534
0.0191247
0.0278487
0.0623013
0.211791
0.467989
0.222424
0.0708814
0.0298611
0.0163063
0.0105582
0.00779457
0.00664847
0.00683919
0.00895785
0.015907
0.0417742
0.189518
2.17083
821.651
81723.4
270.653
196.173
638.749
9220.69
81725.6
81727.9
81730.1
81732.6
81735.2
81736.5
81738.7
81738.9
81741.1
81740.4
81742.9
81741.8
81744.6
81743.4
81746.4
81745.2
81748.4
81747.1
81750.6
81749.4
81753.4
81752
81757.1
81756
81762.3
81761.7
81770.1
81770.4
81781.5
81783.1
81797.2
81799.5
81814.5
81814.2
81824.7
81816.4
81816.6
81799.1
81790.5
81769.6
81757.2
81734.8
81717.9
81693.3
81673.2
2.20691
115.896
25.5993
1.40541
0.28799
0.101252
0.048705
0.0295374
0.0218004
0.019121
0.0191347
0.0215819
0.0296639
0.0587475
0.21806
2.29784
15.0328
1.65936
0.268192
0.0798105
0.0325886
0.0162732
0.00972856
0.00710045
0.00654563
0.00793719
0.0133648
0.0341233
0.156609
2.07455
73370.4
81718.9
618.814
495.454
1910.88
39944.9
81732
81733.3
81737.2
81737.4
81741.3
81740.3
81744.3
81742.3
81746.7
81743.8
81748.7
81745.2
81750.4
81746.7
81752.1
81748.1
81754
81749.6
81756.2
81751.3
81759.2
81753.9
81763.4
81757.9
81769.8
81764.3
81779.4
81774
81792.8
81787.4
81808.5
81800.8
81819.1
81804.7
81813.6
81790.7
81788.1
81761.5
81751.7
81726
81710.8
81686.5
81670.1
81649.8
20.6348
50.7381
1.89091
0.350767
0.12074
0.057585
0.0347792
0.0253636
0.0216218
0.0211346
0.0230936
0.0275687
0.0372297
0.0649398
0.188794
1.59407
44257.4
81741.7
19.4529
1.26202
0.221201
0.0617944
0.0234738
0.0115783
0.00739443
0.00621096
0.00707443
0.0115439
0.0297151
0.145801
2.28412
81721
81721.4
1699.72
1626.95
8151.12
81734.4
81738.5
81738.9
81742.9
81742.4
81746.5
81745
81749.1
81747
81751.3
81748.5
81753.1
81749.8
81754.6
81751
81756
81752
81757.5
81753.1
81759.5
81754.5
81762.2
81756.8
81766.3
81760.4
81772.5
81766.4
81781.9
81775.7
81793.8
81786.1
81803.3
81790.4
81800.3
81779.2
81777.6
81751
81740.7
81714.3
81699.4
81675.8
81661.4
81640.8
81627.2
47.5204
3.60492
0.491332
0.157057
0.074152
0.0444057
0.0321126
0.0271636
0.0261332
0.0280723
0.0331176
0.0419686
0.0572837
0.09113
0.202743
0.846541
11.8772
81742.9
81742.9
2507.3
7.32909
0.59132
0.108803
0.0317351
0.0131274
0.0074524
0.00580695
0.00638988
0.0105619
0.0291171
0.164957
3.51065
81730.1
81728.4
5866.63
6694.34
43710.2
81740.3
81744.7
81744.8
81749
81748.5
81752
81751.5
81754.1
81753.4
81755.7
81754.5
81756.6
81755.2
81757.2
81755.5
81757.6
81755.6
81757.9
81755.6
81758.3
81755.8
81759.2
81756.6
81761.2
81758.9
81765.6
81764.1
81772.6
81771.4
81779.2
81775.2
81776.9
81766.4
81757.9
81739.8
81722.9
81701
81682.4
81661.1
81646.6
81627.2
81617
81600.1
6.87943
0.84846
0.229234
0.103527
0.0621436
0.0451917
0.038412
0.0371988
0.0400531
0.0471016
0.0597965
0.0806016
0.11349
0.171257
0.308445
0.784741
3.495
41.0854
8401.72
81742.7
81742.2
55.1796
1.53572
0.177739
0.0398167
0.0140619
0.00728782
0.00545392
0.00608292
0.0108313
0.0346216
0.256082
9.7475
81738.3
81735.7
23855.4
31923
81747.7
81749.6
81753.7
81755.5
81758.5
81759.8
81761.1
81762.5
81762.2
81763.4
81762.1
81762.9
81761.1
81761.5
81759.3
81759.5
81756.9
81757.1
81754.2
81754.8
81751.5
81752.7
81749.4
81751.9
81749.2
81753.6
81751.4
81758.1
81754.1
81760.3
81750.7
81752.5
81733.9
81727.2
81702.2
81688.5
81664.3
81648
81631.4
81616.6
81607.3
81590.8
820.88
1.57855
0.377457
0.157531
0.0933671
0.0692951
0.0605954
0.0605174
0.0673895
0.0817841
0.106261
0.146443
0.211954
0.314094
0.465611
0.71639
1.29577
3.30052
14.6156
151.368
6339.72
81743.2
81741.5
1945.26
3.79163
0.258824
0.0457277
0.0144276
0.00712265
0.00536614
0.00646618
0.0134395
0.055887
0.678488
155.574
81747.5
81746.9
44127.4
74278.4
81763.6
81768.8
81770.9
81774.5
81775.6
81777.5
81777
81778.2
81776.2
81776.6
81773.5
81773
81769.1
81768.2
81763.6
81762.6
81757.5
81756.8
81751.4
81751.4
81746.1
81747.2
81742.5
81745.5
81741.1
81746
81740.6
81744.9
81736.6
81736.2
81722.2
81713.1
81695.6
81680.4
81660
81643.4
81625.6
81611.8
81596.7
81582
81562.6
66.7255
0.665452
0.254767
0.148387
0.112705
0.103364
0.109802
0.131329
0.172531
0.243104
0.360149
0.55549
0.88859
1.43221
2.1588
2.91188
3.93995
6.65587
16.9827
77.4072
806.368
40116.5
81733.9
81725.8
81714.4
7.44449
0.325714
0.0494685
0.0147754
0.00723253
0.00583069
0.00841766
0.0233386
0.155819
5.8043
81756.6
81766.1
56802
35982.2
81784.7
81785
81791.1
81790.7
81793
81793.3
81793.2
81792.8
81791.3
81789.9
81787
81784.6
81780.7
81777.3
81772.7
81768.9
81763.9
81760.1
81754.9
81752.1
81747.1
81745.9
81741.2
81741.5
81736.7
81738.2
81730.7
81733.4
81718
81720.7
81696.5
81696.6
81669.5
81661
81634.9
81621.4
81601.2
81579.6
81564.3
81538.7
6223.96
34.4339
0.432068
0.239972
0.188057
0.184379
0.214405
0.28751
0.434175
0.720133
1.27643
2.35364
4.44159
8.5784
16.4338
26.6364
30.0819
27.468
29.1009
45.0728
115.335
551.512
6241.65
81730.9
81725
81720.9
81724
11.186
0.374937
0.0534084
0.0157617
0.00800512
0.00766603
0.01627
0.0842413
2.2547
81776.9
81782.1
81784.9
36085.3
81788.1
81793.1
81788.9
81792.1
81791.7
81792.6
81793.4
81793.2
81793.4
81791.5
81790.9
81787
81785.4
81779.8
81777.2
81770.6
81767.6
81760.1
81757.7
81749.4
81749
81739.9
81741.7
81731.3
81735
81720.6
81726.9
81703.5
81715.6
81684.2
81687.6
81659
81654.2
81625.2
81625.6
81583.3
81569.2
81551
81531.2
81517.2
3039.68
144.585
0.396518
0.308209
0.326622
0.430838
0.680206
1.26957
2.78141
7.07069
20.4199
64.8411
219.826
809.071
3175.54
7658.89
4050.41
1050.07
415.435
307.232
414.656
1013.79
4667.44
43439.8
81735
81737.9
81741.2
81737.1
13.7766
0.4214
0.0614248
0.018863
0.0106146
0.0166333
0.159824
22.908
81766.9
81771.1
81764.3
81758.5
81757
81750.4
81754
81750.5
81754.2
81758.4
81762.3
81767.1
81770.1
81774.7
81775.1
81777.4
81775.2
81774.6
81769.6
81766.7
81760.4
81756.6
81749.2
81746.4
81737.2
81736.3
81725.3
81725.3
81712.5
81714.4
81695.6
81705.1
81676.3
81676.3
81649.6
81643
81614.2
81642.5
81540.1
81587.2
81534.8
81527.6
81517.4
81499.9
26543.8
81480
0.500667
0.549826
0.828761
1.63042
4.14912
14.2701
73.791
725.078
30732.3
81748.9
81750.3
81748.5
81746.3
81745.5
81744.7
81742.5
81740.6
12148
4808.21
4927.08
9759.96
31315.2
81724.2
81719.2
81711.6
81708
81714.7
14.88
0.515359
0.0951899
0.0339071
0.0228141
0.122645
81722.1
81724.5
81699.4
81693.3
81682.7
81674.6
81675.7
81667.8
81670.4
81675.3
81687.4
81690.4
81710.4
81715.9
81730.6
81740.7
81749
81756.9
81757.6
81757.2
81751.1
81746.3
81739
81734.2
81725.3
81722.7
81711.8
81707.7
81699.2
81693.7
81683.1
81680.1
81656.3
81664
81619
81625.3
81573.4
81618.2
81462.3
81648.9
81512.7
81553.7
81537.3
81507.5
81497.2
81491.4
81479.3
0.883739
1.46003
3.57666
13.724
98.7
2610.24
81730.7
81738.2
81745.3
81750.3
81751.5
81749.2
81746.3
81745.3
81744.7
81742.9
81741.5
81741.5
81740.7
81737.3
57324.4
57749.8
73551.5
81710.6
81713.6
81730.7
81768.9
81791
16.846
1.50195
1.24569
0.0668573
0.00127278
8.63102e-05
1.35826e-05
3.72862e-06
1.4526e-06
7.28572e-07
4.85774e-07
4.87133e-07
8.87021e-07
4.27589e-06
0.00393795
81603.8
81608
81620.7
81639.3
81653.8
81674.7
81695.2
81718.4
81730.6
81735.7
81730.3
81723.9
81716.7
81702
81698.4
81683.7
81677.8
81669.2
81658.9
81654.9
81640.6
81624.9
81628.6
81572
81589
81496.3
81516.5
81358.2
81567.3
81427.1
81573.6
81567.8
81573
81572.8
81556.6
81523.3
1.30714e-06
2.33249
6.8338
39.2642
822.612
81718.1
81723
81730.1
81738.3
81746.1
81751.6
81752.8
81749.9
81746.6
81745.7
81745.9
81745.1
81744.2
81743.6
81741
81735.7
81730
81727
55283.6
34886.6
35419.9
59040
81788.4
81794
81754.3
2010.7
81674.8
81713
5.35844e-05
1.88895e-06
2.38596e-07
5.94293e-08
2.30215e-08
1.23799e-08
8.95428e-09
8.97959e-09
1.33229e-08
3.17074e-08
1.34427e-07
1.12507e-06
3.69337e-05
81556.2
81567.7
81570.5
81585.4
81606.7
81644.5
81680.2
81703.1
81709.5
81711.4
81688.4
81680.9
81655.8
81643
81626
81617.2
81610.5
81598
81590
81580.3
81545.9
81540.5
81475.4
81457
81340.5
81410.3
81288.7
81473.4
81502.5
81566.1
81566.2
0.000241903
4.54106e-06
2.42172e-07
2.17395e-08
10.8859
89.85
6382.88
81718.1
81718
81722.7
81729.9
81738.4
81746.9
81752.8
81754
81750.8
81747.2
81746.1
81746.3
81745.3
81743.6
81741.6
81738.2
81734.1
81732.9
81735.8
33057.1
13238.5
8504.34
8427.75
13497.2
49607
81738.4
81700.3
81686.5
81686.5
5.88892e-06
1.8138e-07
2.10615e-08
4.85452e-09
1.77601e-09
9.34556e-10
6.80782e-10
6.85075e-10
9.6222e-10
1.87504e-09
4.8572e-09
1.51809e-08
5.02114e-08
1.66763e-07
5.99494e-07
2.52344e-06
1.22872e-05
0.000333867
81554.4
81594
81644.6
81683
81680.9
81683.2
81662
81628.9
81599.3
81588.3
81570
81567.6
81554.7
81555.5
81533.9
81521.3
81501.1
81474.9
81442.5
81412.5
81364.9
0.00187614
3.47553e-06
5.20174e-07
1.81528e-07
9.69209e-08
5.46675e-08
2.23804e-08
6.31306e-09
1.58831e-09
142.334
35572
81726.1
81718.9
81718.4
81722.7
81729.8
81738.6
81747.4
81753.7
81754.9
81751.4
81747.5
81746
81745.7
81743.8
74283.4
44408.1
39039.1
48370.6
62603.8
45379.4
17526.9
6595.75
3317.96
2357.07
2377.2
3615.44
11353.2
81378.3
81639.5
81595.9
1.26719e-06
3.73144e-08
4.00243e-09
8.23182e-10
2.66206e-10
1.27661e-10
8.96914e-11
9.08163e-11
1.26986e-10
2.27959e-10
4.77106e-10
1.04848e-09
2.261e-09
4.7829e-09
1.01838e-08
2.16564e-08
4.86577e-08
1.70392e-07
2.35156e-06
81525.4
81575.7
81625.9
81665.9
81677
81653.5
81616.4
81580.6
81548.8
81544.5
81531.3
81529.4
81518.4
81519.3
81520.8
81500.8
81503.8
0.000829617
5.85151e-06
6.56811e-07
1.15115e-07
2.86517e-08
1.03464e-08
5.20328e-09
3.30687e-09
2.2109e-09
1.25384e-09
5.53404e-10
2.08779e-10
51498.1
81739
81726.9
81719.7
81719
81723
81729.8
81738.5
81747.7
81754.3
81755.6
81751.9
81747.6
81745.9
81745.2
79325.7
35934
20049.6
14760.8
14487.1
17220.7
17976.1
11135.5
4694.35
2038.11
1099.97
757.103
661.431
800.955
1920.58
81615.2
81621.5
4.4673e-07
1.2862e-08
1.26557e-09
2.24385e-10
6.01616e-11
2.44778e-11
1.59555e-11
1.63326e-11
2.32674e-11
3.98537e-11
7.32287e-11
1.34621e-10
2.42695e-10
4.34352e-10
7.69386e-10
1.3519e-09
2.63427e-09
7.28386e-09
3.72157e-08
3.414e-07
2.1121e-06
5.84185e-06
1.96838e-05
0.000230901
81649.6
81633.7
81563.6
81546.2
81531.7
81508.3
81501.4
81494.1
2.78657e-05
3.62118e-06
8.12893e-07
2.34785e-07
7.90146e-08
2.90981e-08
1.09771e-08
4.18493e-09
1.71222e-09
8.11717e-10
4.66529e-10
3.17158e-10
2.27949e-10
1.48278e-10
8.00122e-11
3.72686e-11
81749.3
81739.8
81727.8
81720.6
81719.8
81723.2
81729.6
81738.2
81747.5
81754.5
81756.2
81752.3
81747.6
81745.9
81745.7
56889.3
28216.2
15439.6
10287.4
8778.32
9455
11059.3
9729.54
5009.4
1967.06
802.78
369.489
195.864
141.791
241.85
23753.1
81677
2.24194e-07
6.47845e-09
5.94663e-10
9.14276e-11
1.99809e-11
6.6645e-12
3.96976e-12
4.13662e-12
5.93589e-12
9.41121e-12
1.50526e-11
2.40811e-11
3.91007e-11
6.42544e-11
1.04165e-10
1.70934e-10
3.26176e-10
8.23392e-10
2.65757e-09
8.08979e-09
1.63676e-08
2.58727e-08
4.15531e-08
6.73252e-08
1.02907e-07
1.4725e-07
1.99709e-07
2.58919e-07
2.95164e-07
2.4202e-07
1.44799e-07
7.90385e-08
4.27068e-08
2.20881e-08
1.1068e-08
5.61871e-09
2.93954e-09
1.55669e-09
8.07246e-10
4.05475e-10
2.03739e-10
1.09366e-10
6.68085e-11
4.70059e-11
3.54478e-11
2.53026e-11
1.57214e-11
8.70562e-12
81749.3
81739.9
81728.5
81721.6
81720.6
81723.6
81729.4
81737.6
81746.9
81754.2
81756.3
81752.7
81747.7
81745.7
81746.2
62540.5
34547
18998.5
11775.9
8996
8791.98
10515.9
12110.5
8378.8
3136.86
911.654
256.207
82.3078
42.0658
63.0064
14356.1
81725.9
1.40885e-07
4.27364e-09
3.82344e-10
5.40727e-11
1.03484e-11
3.03575e-12
1.74124e-12
1.85444e-12
2.53751e-12
3.43802e-12
4.47593e-12
6.00603e-12
8.67745e-12
1.31137e-11
1.97818e-11
3.16516e-11
6.19723e-11
1.47614e-10
3.49635e-10
6.62035e-10
9.84965e-10
1.36754e-09
1.92153e-09
2.61338e-09
3.36148e-09
4.15279e-09
4.93052e-09
5.59297e-09
5.82372e-09
5.10694e-09
3.82094e-09
2.71497e-09
1.87815e-09
1.22276e-09
7.5789e-10
4.6394e-10
2.85582e-10
1.75162e-10
1.04541e-10
5.99355e-11
3.36598e-11
1.95415e-11
1.25385e-11
9.20122e-12
7.42586e-12
5.99357e-12
4.48963e-12
3.15959e-12
81749.2
81740.7
81729.5
81722.5
81721.4
81723.8
81728.8
81736.6
81745.8
81753.4
81756.2
81753
81747.9
81745.5
81745.8
81746.3
68170.1
38458.3
22368.5
15322.4
13440
15537.4
21668.2
23795.2
9862.87
1728.43
245.444
47.5678
19.1554
28.4309
81730.5
81755.3
9.86582e-08
3.31214e-09
3.04154e-10
4.28798e-11
8.13579e-12
2.43707e-12
1.48047e-12
1.60459e-12
2.01094e-12
2.26683e-12
2.34863e-12
2.54214e-12
3.08752e-12
4.04162e-12
5.44749e-12
8.38085e-12
1.63925e-11
3.50637e-11
6.35506e-11
9.07403e-11
1.16412e-10
1.52851e-10
2.0359e-10
2.58723e-10
3.12502e-10
3.65863e-10
4.11788e-10
4.42192e-10
4.45618e-10
4.00475e-10
3.23195e-10
2.5168e-10
1.9118e-10
1.37133e-10
9.34753e-11
6.24547e-11
4.17591e-11
2.78644e-11
1.81861e-11
1.1485e-11
7.14748e-12
4.59895e-12
3.24859e-12
2.62151e-12
2.39278e-12
2.33618e-12
2.29371e-12
2.20601e-12
81749.1
81740.1
81729.3
81722.9
81721.9
81724
81728.3
81735.3
81744.3
81752.1
81755.5
81753.1
81748.1
81745.3
81745.1
81744.6
81743.5
81742.3
78914.8
47162.5
35858.1
38093
59360.3
81745.8
81703.5
6598.63
324.827
38.5929
13.2755
20.9179
81766.3
0.000187643
7.16593e-08
2.74415e-09
2.67109e-10
3.9519e-11
8.05587e-12
2.69311e-12
1.80031e-12
1.97771e-12
2.33868e-12
2.39401e-12
2.1913e-12
2.0379e-12
2.08009e-12
2.27069e-12
2.62556e-12
3.6492e-12
6.32968e-12
1.08696e-11
1.48648e-11
1.68256e-11
1.91559e-11
2.4199e-11
3.14286e-11
3.8636e-11
4.53029e-11
5.15729e-11
5.58689e-11
5.75135e-11
5.68647e-11
5.20599e-11
4.35707e-11
3.51981e-11
2.79358e-11
2.12462e-11
1.54909e-11
1.10933e-11
8.01688e-12
5.87836e-12
4.29379e-12
3.09696e-12
2.25565e-12
1.73076e-12
1.45312e-12
1.36336e-12
1.43974e-12
1.69523e-12
2.13159e-12
2.6525e-12
81747.1
81739.1
81729
81723.3
81722.7
81724.3
81727.5
81733.7
81742.3
81750.3
81754.5
81753.1
81748.6
81745.6
81745.2
81744.6
81741.9
81738.4
81736.5
81736.4
81739.4
81741.6
81733.5
81702.9
81655.1
68185.4
590.968
46.6959
14.6262
25.059
81823.3
3.78042e-05
5.27573e-08
2.27581e-09
2.35079e-10
3.66744e-11
8.06523e-12
2.98666e-12
2.15661e-12
2.41103e-12
2.83483e-12
2.91025e-12
2.66427e-12
2.39588e-12
2.25467e-12
2.20071e-12
2.28206e-12
2.78208e-12
3.82261e-12
4.86462e-12
5.0272e-12
4.48319e-12
4.34531e-12
5.14371e-12
6.49653e-12
7.77228e-12
8.91029e-12
9.85091e-12
1.01144e-11
9.82846e-12
9.6009e-12
9.15654e-12
7.98475e-12
6.54908e-12
5.33534e-12
4.34828e-12
3.50637e-12
2.81157e-12
2.31404e-12
1.98171e-12
1.72404e-12
1.50037e-12
1.33091e-12
1.24168e-12
1.23542e-12
1.30649e-12
1.48524e-12
1.87527e-12
2.62156e-12
3.70885e-12
81741.9
81733.8
81725.8
81722.3
81722.7
81724.3
81726.9
81731.8
81739.9
81748.1
81752.8
81752.9
81749.5
81746.6
81746.3
81745.9
81744.1
81741.4
81738.8
81740.4
81742.9
81741.4
81722.2
81683.2
81643.2
81610.9
1517.85
90.8173
29.9507
60.6568
81894.3
1.27438e-05
3.60828e-08
1.7541e-09
1.9192e-10
3.11832e-11
7.21827e-12
2.87193e-12
2.20451e-12
2.53148e-12
3.02953e-12
3.21524e-12
3.07128e-12
2.8491e-12
2.70566e-12
2.62619e-12
2.69066e-12
3.04731e-12
3.46381e-12
3.54083e-12
3.02741e-12
2.16843e-12
1.69658e-12
1.78437e-12
2.13643e-12
2.4596e-12
2.72937e-12
2.8653e-12
2.68491e-12
2.39149e-12
2.35533e-12
2.49914e-12
2.37709e-12
1.96647e-12
1.63232e-12
1.48255e-12
1.40913e-12
1.33889e-12
1.30606e-12
1.33028e-12
1.36794e-12
1.38335e-12
1.39366e-12
1.44067e-12
1.5463e-12
1.69462e-12
1.89288e-12
2.27177e-12
3.08239e-12
4.47378e-12
81738.5
81731.3
81724.8
81722.8
81723.9
81725.1
81726.4
81730.2
81737.3
81745.4
81750.8
81752
81749.9
81748
81748
81748.9
81749
81748.1
81748.5
81749.7
81751.1
81740.7
81714.9
81680.2
81650.7
81606.8
5978.04
347.41
162.186
1518.29
81950
1.74163e-06
1.74314e-08
1.10193e-09
1.34159e-10
2.30892e-11
5.66575e-12
2.44923e-12
2.0307e-12
2.41214e-12
2.89864e-12
3.087e-12
3.00367e-12
2.88775e-12
2.87157e-12
2.93589e-12
3.17874e-12
3.67996e-12
4.06182e-12
3.98887e-12
3.19305e-12
1.98803e-12
1.31216e-12
1.23136e-12
1.38721e-12
1.53071e-12
1.63059e-12
1.60004e-12
1.35066e-12
1.11113e-12
1.16063e-12
1.47249e-12
1.58211e-12
1.29915e-12
1.07283e-12
1.08122e-12
1.19272e-12
1.28428e-12
1.38141e-12
1.52285e-12
1.66651e-12
1.7594e-12
1.81474e-12
1.89848e-12
2.05514e-12
2.23331e-12
2.35917e-12
2.5396e-12
3.08634e-12
4.31174e-12
81736.3
81728.8
81724.3
81724.3
81725.7
81726.2
81726.4
81728.5
81734.5
81742.4
81748.1
81750.6
81750.2
81749.1
81749.7
81751
81752
81753.7
81755.7
81755.9
81751.8
81738.5
81713.6
81686.2
81647.9
81561
52936.7
4566.48
13544.7
81864.3
1.81649e-05
1.15943e-07
5.1349e-09
5.08816e-10
7.53248e-11
1.45827e-11
4.04786e-12
2.0369e-12
1.89588e-12
2.32189e-12
2.71557e-12
2.7788e-12
2.65331e-12
2.59196e-12
2.68194e-12
2.90337e-12
3.41288e-12
4.35276e-12
5.27591e-12
5.42413e-12
4.17673e-12
2.42994e-12
1.54308e-12
1.41153e-12
1.54103e-12
1.65021e-12
1.70804e-12
1.61157e-12
1.29876e-12
1.06451e-12
1.23826e-12
1.84576e-12
2.12275e-12
1.6572e-12
1.30882e-12
1.36456e-12
1.57956e-12
1.72692e-12
1.83789e-12
1.98416e-12
2.12516e-12
2.19592e-12
2.21734e-12
2.29161e-12
2.48372e-12
2.68667e-12
2.70711e-12
2.6074e-12
2.75851e-12
3.58486e-12
81736.4
81730.7
81726.8
81726.5
81727.5
81727.4
81726.5
81727.4
81731.9
81739.2
81745.1
81748.2
81749
81749.4
81750.1
81751.2
81751.7
81752.8
81753.8
81753.4
81747.5
81731.9
21027.3
81691.1
81622.7
81521.5
81492.5
81533.7
81704.3
4.18311e-05
2.65245e-07
1.22757e-08
1.23018e-09
1.82797e-10
3.42298e-11
8.03478e-12
2.80671e-12
1.80031e-12
1.92769e-12
2.39475e-12
2.66987e-12
2.58433e-12
2.38636e-12
2.31621e-12
2.42161e-12
2.73179e-12
3.52644e-12
5.08552e-12
6.77314e-12
6.86008e-12
4.80848e-12
2.75095e-12
1.90304e-12
1.83806e-12
1.97281e-12
2.04557e-12
2.09186e-12
1.99579e-12
1.65232e-12
1.43901e-12
1.87361e-12
3.06677e-12
3.47439e-12
2.46829e-12
1.82409e-12
1.87046e-12
2.12868e-12
2.23421e-12
2.2517e-12
2.31098e-12
2.38442e-12
2.39956e-12
2.37739e-12
2.44589e-12
2.68055e-12
2.92876e-12
2.89083e-12
2.57532e-12
2.4149e-12
2.91351e-12
81735
81730.5
81727.9
81727.8
81728.3
81728
81726.7
81726.1
81729.2
81736
81742
81745.4
81747.5
81748.6
81749.7
81750.5
81748.9
81747.1
81745.5
81743.9
81735.9
81731.8
81722.3
820.43
81579.1
81503.6
81523.2
81608.6
81723.8
1.52392e-06
2.79841e-08
2.21452e-09
3.13494e-10
5.93382e-11
1.37455e-11
4.1931e-12
2.04869e-12
1.75392e-12
2.11454e-12
2.60697e-12
2.78362e-12
2.60379e-12
2.3516e-12
2.22759e-12
2.27867e-12
2.64985e-12
3.7794e-12
5.99237e-12
7.96621e-12
7.0726e-12
4.34485e-12
2.5983e-12
2.11711e-12
2.21051e-12
2.28761e-12
2.24633e-12
2.28611e-12
2.28461e-12
2.00933e-12
1.87039e-12
2.65398e-12
4.56919e-12
4.90066e-12
3.12062e-12
2.16245e-12
2.16529e-12
2.40579e-12
2.43406e-12
2.35524e-12
2.35045e-12
2.39799e-12