/*--------------------------------*- C++ -*----------------------------------*\
  =========                 |
  \\      /  F ield         | OpenFOAM: The Open Source CFD Toolbox
   \\    /   O peration     | Website:  https://openfoam.org
    \\  /    A nd           | Version:  7
     \\/     M anipulation  |
\*---------------------------------------------------------------------------*/
FoamFile
{
    version     2.0;
    format      ascii;
    class       volScalarField;
    location    "10";
    object      muTotal;
}
// * * * * * * * * * * * * * * * * * * * * * * * * * * * * * * * * * * * * * //

dimensions      [1 -1 -1 0 0 0 0];

internalField   nonuniform List<scalar> 
49920
(
0.000332523
0.000332516
0.000332515
0.000332515
0.000332515
0.000332514
0.000332515
0.000332514
0.000332514
0.000332515
0.000332515
0.000332515
0.000332515
0.000332514
0.000332518
0.000332513
0.00033252
0.000332522
0.000332517
0.000332515
0.000332514
0.000332514
0.000332513
0.000332513
0.000332513
0.000332512
0.000332512
0.000332512
0.000332512
0.000332513
0.000332513
0.000332514
0.000332514
0.000332515
0.000332516
0.000332518
0.000332519
0.000332519
0.00033252
0.00033252
0.00033252
0.000332521
0.000332522
0.000332522
0.000332523
0.000332523
0.000332524
0.000332531
0.000332529
0.000332539
0.000332523
0.000332542
0.000332516
0.000332537
0.000332505
0.000332543
0.000332519
0.00033254
0.000332511
0.000332538
0.000332506
0.000332535
0.000332499
0.000332531
0.000332492
0.000332524
0.00033248
0.000332515
0.00033247
0.000332502
0.000332458
0.000332488
0.00033245
0.000332475
0.000332447
0.000332462
0.000332448
0.00033245
0.000332455
0.000332442
0.000332565
0.00033251
0.000332516
0.000332516
0.000332515
0.000332513
0.000332513
0.000332512
0.000332513
0.000332512
0.000332512
0.000332511
0.000332512
0.000332513
0.00033252
0.000332508
0.000332501
0.000332502
0.00033251
0.000332513
0.000332513
0.000332512
0.000332511
0.00033251
0.00033251
0.00033251
0.00033251
0.00033251
0.00033251
0.000332511
0.000332512
0.000332513
0.000332513
0.000332515
0.000332516
0.000332518
0.000332519
0.000332521
0.00033252
0.000332522
0.000332522
0.000332525
0.000332523
0.000332527
0.000332525
0.000332529
0.000332532
0.000332544
0.000332551
0.000332531
0.00033255
0.000332513
0.00033255
0.000332511
0.000332567
0.000332522
0.000332555
0.000332513
0.000332551
0.000332505
0.00033255
0.000332496
0.000332544
0.000332486
0.000332539
0.000332473
0.000332526
0.000332458
0.000332511
0.000332442
0.000332489
0.000332427
0.000332465
0.000332417
0.000332438
0.000332411
0.000332416
0.000332418
0.000332401
0.000332415
0.000332667
0.000332534
0.000332524
0.000332516
0.000332518
0.00033252
0.000332519
0.000332519
0.000332516
0.000332514
0.000332514
0.000332513
0.000332515
0.000332516
0.000332527
0.000332522
0.000332498
0.000332495
0.000332511
0.000332513
0.000332512
0.00033251
0.000332509
0.000332508
0.000332508
0.000332508
0.000332509
0.000332509
0.000332511
0.00033251
0.000332511
0.00033251
0.000332513
0.000332512
0.000332516
0.000332515
0.000332519
0.000332517
0.000332522
0.000332519
0.000332524
0.000332521
0.000332527
0.000332523
0.000332528
0.000332527
0.00033255
0.000332541
0.000332548
0.000332535
0.000332517
0.000332548
0.000332525
0.000332536
0.000332532
0.000332541
0.000332531
0.000332539
0.000332526
0.000332537
0.000332522
0.000332533
0.000332515
0.000332528
0.000332507
0.000332518
0.000332496
0.000332506
0.000332482
0.000332487
0.000332466
0.000332464
0.000332448
0.000332435
0.000332428
0.000332407
0.000332417
0.000332395
0.000332402
0.000332382
0.00033272
0.00033256
0.000332513
0.000332526
0.000332519
0.000332519
0.000332518
0.00033252
0.000332519
0.000332521
0.00033252
0.00033252
0.00033252
0.000332522
0.000332521
0.00033252
0.000332508
0.000332497
0.000332507
0.000332508
0.000332509
0.000332508
0.000332506
0.000332505
0.000332505
0.000332506
0.000332506
0.000332508
0.000332507
0.000332509
0.000332507
0.000332509
0.000332509
0.000332511
0.000332511
0.000332514
0.000332514
0.000332517
0.000332518
0.00033252
0.000332521
0.000332522
0.000332524
0.000332524
0.00033253
0.00033254
0.000332528
0.000332552
0.000332514
0.000332538
0.000332525
0.00033254
0.000332513
0.000332538
0.000332518
0.000332545
0.00033252
0.000332547
0.000332519
0.000332549
0.000332516
0.000332549
0.000332512
0.000332547
0.000332504
0.000332542
0.000332495
0.000332533
0.000332481
0.000332518
0.000332464
0.000332496
0.000332442
0.000332462
0.000332416
0.000332424
0.0003324
0.000332388
0.000332387
0.000332378
0.00033273
0.000332596
0.00033253
0.000332535
0.000332525
0.000332515
0.000332516
0.00033251
0.000332526
0.000332523
0.000332521
0.000332522
0.000332517
0.000332513
0.000332513
0.000332532
0.000332513
0.000332495
0.000332498
0.000332503
0.000332505
0.000332506
0.000332504
0.000332503
0.000332502
0.000332503
0.000332503
0.000332503
0.000332504
0.000332505
0.000332505
0.000332506
0.000332506
0.000332509
0.000332508
0.000332512
0.000332511
0.000332516
0.000332514
0.000332521
0.000332517
0.000332525
0.00033252
0.000332536
0.000332525
0.00033253
0.000332528
0.00033251
0.000332542
0.000332525
0.000332532
0.000332519
0.000332529
0.00033252
0.000332533
0.000332524
0.000332539
0.000332526
0.000332543
0.000332528
0.000332546
0.000332528
0.000332548
0.000332526
0.000332546
0.000332521
0.000332541
0.000332512
0.000332529
0.000332499
0.000332509
0.000332479
0.000332476
0.000332448
0.00033243
0.000332412
0.000332379
0.000332375
0.000332358
0.000332365
0.000332681
0.000332563
0.000332544
0.000332513
0.000332531
0.000332532
0.000332532
0.000332515
0.000332504
0.000332508
0.000332514
0.000332516
0.000332525
0.000332524
0.000332528
0.000332531
0.00033252
0.000332498
0.000332496
0.000332498
0.000332503
0.000332504
0.000332503
0.000332501
0.000332501
0.000332501
0.000332502
0.000332501
0.000332502
0.000332501
0.000332504
0.000332503
0.000332506
0.000332505
0.000332508
0.000332507
0.000332512
0.00033251
0.000332517
0.000332515
0.000332521
0.000332522
0.000332533
0.000332518
0.000332537
0.000332503
0.000332524
0.000332514
0.000332534
0.000332508
0.000332532
0.000332511
0.000332537
0.000332513
0.000332539
0.000332516
0.000332545
0.00033252
0.000332553
0.000332524
0.000332559
0.000332526
0.000332563
0.000332526
0.000332565
0.000332522
0.000332563
0.000332514
0.000332554
0.0003325
0.000332536
0.000332476
0.000332502
0.000332437
0.000332448
0.000332386
0.000332384
0.000332344
0.000332348
0.000332343
0.000332618
0.000332489
0.000332472
0.000332444
0.000332497
0.000332528
0.000332522
0.00033253
0.00033252
0.000332521
0.000332518
0.000332522
0.000332529
0.00033253
0.000332531
0.000332531
0.000332524
0.000332506
0.000332498
0.000332497
0.000332502
0.000332502
0.000332502
0.000332501
0.000332501
0.000332502
0.000332502
0.000332501
0.000332501
0.000332501
0.000332503
0.000332503
0.000332504
0.000332504
0.000332505
0.000332506
0.000332508
0.000332511
0.000332514
0.000332516
0.000332523
0.000332526
0.000332517
0.000332534
0.000332494
0.000332544
0.000332501
0.000332534
0.000332498
0.000332535
0.000332501
0.000332542
0.000332504
0.000332545
0.000332503
0.00033255
0.000332507
0.00033256
0.000332512
0.000332571
0.000332516
0.00033258
0.000332517
0.000332588
0.000332517
0.000332593
0.000332514
0.000332591
0.000332506
0.00033258
0.000332491
0.000332553
0.000332464
0.000332501
0.000332422
0.000332429
0.000332371
0.000332353
0.000332351
0.000332338
0.00033255
0.000332433
0.000332397
0.000332376
0.000332418
0.000332457
0.000332465
0.000332502
0.000332526
0.000332519
0.00033252
0.000332524
0.000332528
0.000332535
0.000332536
0.000332533
0.000332524
0.00033251
0.000332498
0.000332498
0.000332499
0.000332503
0.000332502
0.000332504
0.000332503
0.000332505
0.000332503
0.000332503
0.000332502
0.000332503
0.000332503
0.000332504
0.000332503
0.000332504
0.000332503
0.000332506
0.000332507
0.00033251
0.000332512
0.000332518
0.000332521
0.000332514
0.000332529
0.000332491
0.000332545
0.000332495
0.000332526
0.000332494
0.000332531
0.000332499
0.000332537
0.000332501
0.000332541
0.000332499
0.000332543
0.000332502
0.000332553
0.000332508
0.000332565
0.000332514
0.000332577
0.000332519
0.000332589
0.000332524
0.0003326
0.000332527
0.000332608
0.000332528
0.000332608
0.000332523
0.000332596
0.000332508
0.00033256
0.000332477
0.000332498
0.000332429
0.000332403
0.000332375
0.000332365
0.000332355
0.000332485
0.000332399
0.000332368
0.000332346
0.000332356
0.000332381
0.000332401
0.000332452
0.000332499
0.000332496
0.000332504
0.000332514
0.000332527
0.000332537
0.000332538
0.000332532
0.000332522
0.00033251
0.000332501
0.000332499
0.0003325
0.000332503
0.000332504
0.000332505
0.000332507
0.000332506
0.000332506
0.000332504
0.000332505
0.000332504
0.000332505
0.000332504
0.000332504
0.000332503
0.000332504
0.000332505
0.000332507
0.00033251
0.00033251
0.000332513
0.000332508
0.000332521
0.000332489
0.000332536
0.000332495
0.00033252
0.000332493
0.000332521
0.000332497
0.000332528
0.000332499
0.000332531
0.000332498
0.000332532
0.000332499
0.00033254
0.000332506
0.000332551
0.000332513
0.000332565
0.000332522
0.00033258
0.000332532
0.000332596
0.000332542
0.000332612
0.000332552
0.000332624
0.000332558
0.000332627
0.000332557
0.000332612
0.000332542
0.000332568
0.000332502
0.000332475
0.000332426
0.000332398
0.000332404
0.00033238
0.000332435
0.00033238
0.000332366
0.00033235
0.000332342
0.000332348
0.000332362
0.000332405
0.000332455
0.000332468
0.000332488
0.000332508
0.000332527
0.000332535
0.000332537
0.000332528
0.000332519
0.000332508
0.000332502
0.000332496
0.000332503
0.000332502
0.000332509
0.000332507
0.00033251
0.000332508
0.000332508
0.000332506
0.000332507
0.000332506
0.000332506
0.000332505
0.000332505
0.000332503
0.000332506
0.000332504
0.000332508
0.000332503
0.000332504
0.000332503
0.000332506
0.00033249
0.000332515
0.000332497
0.000332504
0.000332497
0.000332505
0.0003325
0.000332511
0.000332503
0.000332513
0.000332503
0.000332514
0.000332504
0.000332519
0.000332511
0.00033253
0.000332521
0.000332543
0.000332533
0.000332558
0.000332547
0.000332577
0.000332565
0.000332598
0.000332584
0.000332619
0.000332603
0.000332635
0.000332616
0.00033264
0.000332615
0.000332619
0.000332585
0.000332546
0.000332498
0.000332445
0.000332444
0.00033244
0.000332414
0.000332407
0.000332372
0.000332368
0.000332366
0.000332362
0.000332359
0.000332364
0.000332389
0.000332428
0.000332456
0.000332482
0.000332509
0.000332524
0.000332534
0.000332533
0.000332528
0.000332517
0.000332512
0.000332499
0.000332502
0.000332501
0.000332509
0.000332507
0.000332513
0.000332509
0.000332513
0.000332507
0.00033251
0.000332506
0.000332509
0.000332505
0.000332507
0.000332502
0.000332506
0.000332501
0.000332506
0.000332498
0.000332499
0.000332498
0.000332488
0.000332492
0.00033249
0.000332504
0.000332486
0.000332501
0.000332488
0.000332505
0.000332492
0.000332509
0.000332493
0.000332511
0.000332495
0.000332514
0.000332499
0.000332521
0.000332507
0.000332533
0.000332519
0.000332547
0.000332534
0.000332566
0.000332552
0.00033259
0.000332575
0.000332618
0.000332601
0.000332647
0.000332627
0.000332673
0.000332647
0.000332687
0.00033265
0.000332668
0.000332607
0.000332584
0.000332508
0.000332495
0.00033248
0.000332489
0.000332436
0.000332399
0.000332378
0.000332376
0.000332378
0.000332382
0.000332385
0.000332389
0.000332402
0.000332429
0.000332454
0.000332482
0.000332504
0.000332519
0.000332529
0.000332531
0.000332524
0.000332517
0.000332509
0.000332505
0.000332501
0.000332504
0.000332509
0.000332512
0.000332514
0.000332515
0.000332512
0.000332513
0.000332509
0.00033251
0.000332506
0.000332507
0.000332503
0.000332504
0.0003325
0.0003325
0.000332495
0.000332493
0.000332492
0.000332476
0.000332491
0.000332484
0.000332495
0.000332476
0.0003325
0.00033248
0.000332507
0.000332483
0.00033251
0.000332484
0.000332512
0.000332485
0.000332516
0.000332489
0.000332524
0.000332497
0.000332536
0.000332507
0.000332552
0.000332522
0.000332573
0.00033254
0.000332599
0.000332564
0.000332631
0.000332592
0.000332668
0.000332624
0.000332705
0.000332657
0.000332734
0.000332679
0.000332735
0.000332663
0.000332673
0.000332584
0.000332568
0.000332525
0.000332543
0.000332515
0.000332454
0.000332413
0.000332401
0.000332394
0.000332393
0.000332397
0.000332405
0.000332413
0.000332424
0.000332443
0.000332462
0.000332484
0.000332497
0.000332513
0.000332523
0.000332528
0.000332522
0.000332517
0.000332509
0.000332505
0.000332503
0.000332509
0.000332512
0.000332518
0.000332515
0.000332519
0.000332514
0.000332514
0.000332509
0.000332509
0.000332504
0.000332503
0.0003325
0.000332498
0.000332493
0.000332489
0.000332484
0.000332482
0.000332467
0.00033248
0.000332473
0.000332483
0.000332472
0.000332495
0.000332479
0.000332503
0.000332482
0.000332507
0.000332481
0.000332508
0.000332482
0.000332512
0.000332487
0.000332521
0.000332495
0.000332533
0.000332506
0.000332548
0.00033252
0.000332569
0.000332538
0.000332595
0.000332562
0.000332628
0.000332592
0.000332667
0.000332628
0.000332711
0.000332669
0.000332755
0.000332707
0.000332781
0.000332719
0.000332753
0.000332668
0.00033266
0.000332587
0.000332596
0.000332564
0.000332543
0.000332446
0.000332439
0.000332431
0.000332421
0.000332413
0.000332413
0.00033242
0.00033243
0.000332441
0.000332455
0.000332471
0.000332484
0.000332497
0.000332512
0.000332525
0.000332528
0.000332525
0.000332517
0.000332513
0.000332507
0.00033251
0.000332511
0.000332517
0.000332518
0.000332523
0.000332517
0.000332517
0.000332509
0.00033251
0.000332502
0.000332502
0.000332495
0.000332494
0.000332486
0.000332481
0.000332472
0.000332469
0.000332455
0.000332468
0.000332466
0.000332476
0.000332468
0.000332491
0.000332478
0.000332501
0.000332482
0.000332505
0.000332481
0.000332507
0.000332482
0.000332511
0.000332487
0.000332519
0.000332496
0.000332531
0.000332506
0.000332546
0.00033252
0.000332565
0.000332537
0.00033259
0.00033256
0.000332621
0.00033259
0.00033266
0.000332626
0.000332707
0.000332672
0.000332761
0.000332724
0.00033281
0.000332763
0.00033282
0.000332746
0.000332753
0.000332665
0.000332659
0.000332604
0.000332597
0.000332521
0.000332429
0.000332465
0.000332459
0.000332449
0.000332439
0.000332433
0.000332434
0.000332442
0.000332453
0.000332465
0.000332477
0.000332488
0.0003325
0.000332515
0.000332529
0.000332532
0.000332525
0.000332519
0.000332512
0.000332508
0.000332508
0.000332515
0.000332518
0.000332522
0.000332521
0.00033252
0.000332514
0.000332511
0.000332502
0.000332498
0.000332491
0.000332486
0.000332477
0.000332469
0.000332461
0.000332455
0.000332443
0.000332456
0.000332456
0.000332469
0.000332465
0.000332487
0.000332479
0.0003325
0.000332485
0.000332506
0.000332487
0.000332509
0.000332489
0.000332514
0.000332494
0.000332522
0.000332502
0.000332533
0.000332513
0.000332546
0.000332525
0.000332563
0.000332541
0.000332585
0.000332561
0.000332613
0.000332588
0.00033265
0.000332624
0.000332696
0.000332671
0.000332755
0.000332732
0.000332819
0.00033279
0.000332858
0.000332804
0.000332824
0.000332742
0.000332725
0.000332651
0.000332629
0.000332559
0.000332486
0.000332375
0.00033249
0.000332482
0.000332472
0.000332463
0.000332455
0.000332453
0.000332456
0.000332464
0.000332474
0.000332483
0.000332493
0.000332505
0.00033252
0.000332533
0.000332535
0.000332528
0.000332522
0.000332515
0.000332513
0.000332514
0.000332518
0.00033252
0.000332523
0.000332518
0.000332515
0.000332507
0.000332502
0.000332498
0.000332488
0.000332477
0.000332468
0.000332456
0.00033245
0.000332442
0.000332439
0.000332447
0.00033245
0.000332465
0.000332467
0.000332484
0.000332485
0.000332499
0.000332495
0.000332507
0.0003325
0.000332512
0.000332505
0.000332517
0.000332511
0.000332524
0.000332519
0.000332534
0.000332528
0.000332545
0.000332539
0.000332558
0.000332553
0.000332575
0.00033257
0.000332597
0.000332594
0.000332628
0.000332628
0.00033267
0.000332677
0.000332729
0.000332741
0.000332799
0.00033281
0.000332855
0.000332843
0.000332847
0.000332798
0.000332761
0.000332696
0.000332644
0.000332579
0.000332503
0.000332418
0.000332315
0.000332506
0.000332495
0.000332486
0.000332481
0.000332476
0.000332473
0.000332473
0.000332477
0.000332484
0.000332491
0.0003325
0.000332512
0.000332527
0.000332537
0.000332538
0.000332531
0.000332525
0.000332519
0.000332515
0.000332516
0.000332516
0.000332521
0.000332523
0.00033252
0.000332512
0.000332508
0.000332493
0.000332484
0.000332473
0.000332459
0.000332446
0.000332438
0.000332431
0.000332437
0.000332441
0.000332455
0.000332464
0.000332473
0.000332483
0.000332494
0.000332499
0.000332508
0.000332509
0.000332518
0.000332515
0.000332525
0.000332521
0.000332532
0.000332527
0.000332539
0.000332535
0.000332547
0.000332542
0.000332557
0.000332551
0.000332568
0.000332562
0.000332583
0.000332578
0.000332604
0.000332602
0.000332636
0.000332637
0.000332682
0.000332689
0.000332746
0.000332755
0.000332817
0.000332815
0.000332858
0.000332824
0.000332825
0.000332754
0.000332719
0.000332634
0.000332583
0.000332492
0.000332423
0.000332323
0.000332242
0.000332518
0.000332501
0.000332492
0.000332491
0.000332491
0.00033249
0.000332489
0.000332491
0.000332495
0.0003325
0.000332509
0.00033252
0.000332532
0.00033254
0.000332539
0.000332531
0.000332524
0.000332519
0.000332515
0.000332519
0.000332524
0.000332527
0.00033252
0.000332508
0.000332497
0.000332488
0.000332482
0.00033247
0.000332453
0.000332443
0.000332432
0.000332428
0.000332433
0.000332437
0.000332458
0.000332466
0.000332481
0.000332486
0.000332502
0.000332503
0.000332519
0.000332515
0.000332531
0.000332523
0.000332541
0.000332529
0.000332549
0.000332535
0.000332556
0.000332541
0.000332563
0.000332546
0.00033257
0.000332552
0.000332579
0.00033256
0.000332591
0.00033257
0.000332609
0.000332586
0.000332635
0.000332612
0.000332674
0.000332652
0.000332728
0.000332706
0.000332792
0.000332761
0.000332835
0.000332777
0.000332813
0.00033272
0.000332709
0.000332601
0.000332561
0.000332456
0.000332394
0.000332296
0.000332229
0.000332146
0.000332525
0.000332502
0.000332491
0.000332493
0.000332498
0.000332501
0.000332502
0.000332503
0.000332505
0.00033251
0.000332517
0.000332528
0.000332537
0.000332542
0.000332539
0.00033253
0.000332523
0.00033252
0.00033252
0.000332523
0.000332524
0.00033252
0.000332515
0.000332511
0.000332507
0.000332488
0.000332468
0.000332444
0.000332438
0.00033243
0.000332429
0.000332436
0.000332438
0.000332461
0.000332466
0.000332487
0.00033249
0.000332507
0.000332509
0.000332525
0.000332523
0.00033254
0.000332534
0.000332551
0.000332542
0.000332559
0.000332548
0.000332567
0.000332553
0.000332573
0.000332558
0.000332578
0.000332562
0.000332585
0.000332567
0.000332593
0.000332572
0.000332604
0.000332582
0.00033262
0.000332597
0.000332645
0.000332621
0.000332684
0.000332659
0.000332732
0.000332701
0.000332771
0.000332718
0.000332759
0.000332673
0.000332667
0.000332558
0.000332516
0.000332409
0.000332348
0.000332252
0.000332194
0.00033211
0.000332055
0.000332526
0.000332498
0.000332485
0.000332487
0.000332496
0.000332504
0.000332509
0.000332511
0.000332514
0.000332518
0.000332525
0.000332534
0.000332541
0.000332544
0.000332541
0.000332533
0.000332527
0.000332525
0.000332525
0.000332526
0.000332528
0.000332526
0.000332518
0.000332501
0.000332479
0.000332458
0.000332447
0.000332444
0.000332434
0.000332424
0.000332437
0.000332437
0.000332473
0.000332466
0.000332493
0.000332494
0.000332512
0.000332515
0.000332532
0.000332533
0.00033255
0.000332548
0.000332562
0.00033256
0.000332571
0.000332568
0.000332577
0.000332572
0.000332581
0.000332575
0.000332584
0.000332576
0.000332585
0.000332577
0.000332586
0.000332577
0.000332588
0.000332578
0.000332591
0.000332581
0.0003326
0.00033259
0.000332617
0.000332611
0.000332646
0.000332641
0.000332673
0.000332657
0.000332664
0.000332621
0.000332586
0.000332513
0.000332444
0.000332355
0.000332279
0.000332192
0.000332133
0.000332054
0.000332013
0.000331944
0.000332527
0.000332493
0.000332476
0.000332478
0.000332489
0.000332501
0.000332509
0.000332515
0.000332519
0.000332525
0.000332532
0.000332539
0.000332543
0.000332545
0.00033254
0.000332532
0.000332525
0.000332522
0.000332523
0.000332525
0.000332522
0.000332508
0.000332485
0.00033246
0.000332444
0.000332436
0.00033243
0.000332425
0.00033242
0.000332444
0.000332447
0.000332481
0.00033246
0.000332506
0.000332496
0.000332521
0.000332525
0.000332545
0.000332553
0.000332569
0.000332576
0.000332589
0.000332594
0.000332599
0.000332605
0.000332604
0.000332608
0.000332603
0.000332606
0.000332599
0.000332601
0.000332592
0.000332593
0.000332582
0.000332583
0.000332571
0.000332574
0.00033256
0.000332565
0.000332552
0.000332562
0.000332551
0.000332569
0.00033256
0.000332587
0.000332571
0.000332596
0.000332557
0.000332564
0.000332489
0.000332461
0.00033236
0.000332304
0.000332206
0.000332139
0.000332072
0.000332011
0.000331974
0.000331906
0.000331856
0.000332522
0.000332486
0.000332466
0.000332465
0.000332477
0.000332493
0.000332506
0.000332515
0.000332522
0.00033253
0.000332537
0.000332542
0.000332544
0.000332544
0.000332538
0.000332529
0.000332522
0.000332522
0.000332526
0.000332529
0.000332527
0.00033252
0.000332517
0.000332521
0.000332517
0.00033249
0.000332453
0.000332432
0.000332442
0.000332459
0.00033248
0.000332479
0.000332517
0.000332502
0.000332544
0.000332541
0.000332574
0.000332591
0.000332609
0.000332631
0.000332639
0.000332654
0.000332658
0.000332666
0.000332664
0.000332669
0.00033266
0.000332662
0.00033265
0.000332648
0.000332632
0.000332628
0.00033261
0.000332605
0.000332585
0.000332582
0.00033256
0.00033256
0.000332538
0.000332543
0.000332524
0.000332536
0.000332518
0.000332538
0.000332516
0.000332533
0.000332499
0.000332498
0.000332441
0.000332404
0.000332333
0.000332271
0.000332188
0.00033212
0.000332048
0.000331992
0.00033193
0.00033187
0.000331792
0.000331711
0.000332519
0.000332481
0.000332457
0.000332453
0.000332464
0.000332482
0.000332499
0.000332513
0.000332524
0.000332535
0.000332542
0.000332544
0.000332544
0.000332543
0.000332539
0.00033253
0.000332524
0.000332526
0.00033253
0.000332526
0.000332512
0.000332489
0.000332456
0.000332409
0.000332358
0.000332337
0.000332369
0.000332428
0.000332479
0.000332478
0.000332508
0.000332502
0.000332534
0.000332558
0.000332581
0.00033262
0.000332647
0.000332667
0.000332695
0.000332696
0.000332721
0.000332719
0.000332729
0.00033273
0.00033273
0.000332728
0.000332722
0.000332716
0.000332704
0.000332695
0.000332679
0.000332665
0.000332646
0.000332631
0.000332611
0.000332595
0.000332574
0.000332563
0.000332542
0.000332537
0.000332518
0.000332519
0.0003325
0.000332506
0.000332475
0.000332486
0.000332424
0.000332435
0.000332336
0.000332337
0.000332226
0.000332192
0.000332086
0.000332031
0.000331949
0.000331861
0.000331799
0.000331695
0.00033162
0.000331516
0.000332516
0.000332478
0.00033245
0.000332442
0.000332452
0.000332471
0.000332491
0.00033251
0.000332526
0.000332539
0.000332546
0.000332546
0.000332543
0.000332543
0.00033254
0.000332533
0.000332529
0.000332528
0.000332526
0.000332515
0.000332497
0.000332476
0.000332452
0.000332436
0.000332448
0.000332491
0.000332529
0.000332539
0.000332497
0.000332532
0.000332517
0.000332584
0.000332583
0.000332641
0.000332664
0.000332684
0.000332696
0.000332711
0.000332709
0.000332729
0.000332712
0.000332725
0.000332724
0.000332727
0.000332731
0.00033273
0.000332731
0.000332723
0.000332721
0.000332704
0.000332698
0.000332675
0.000332665
0.000332638
0.000332626
0.000332595
0.000332586
0.000332552
0.00033255
0.000332513
0.000332521
0.000332478
0.000332493
0.000332434
0.00033246
0.000332365
0.000332414
0.000332286
0.0003323
0.000332184
0.000332164
0.000332046
0.000332048
0.000331876
0.000331819
0.000331745
0.000331664
0.000331607
0.000331512
0.000331453
0.000332514
0.000332477
0.000332445
0.000332433
0.000332441
0.000332461
0.000332485
0.000332508
0.000332529
0.000332544
0.000332551
0.000332547
0.000332541
0.00033254
0.000332537
0.000332529
0.000332522
0.000332519
0.000332516
0.00033251
0.000332503
0.000332494
0.000332493
0.000332505
0.000332518
0.000332501
0.000332459
0.000332414
0.000332486
0.000332534
0.000332652
0.00033264
0.000332689
0.000332671
0.000332623
0.00033264
0.000332612
0.000332589
0.000332583
0.000332556
0.00033257
0.000332556
0.000332571
0.000332588
0.000332604
0.000332624
0.000332636
0.000332654
0.000332656
0.000332666
0.000332657
0.000332654
0.000332634
0.000332622
0.000332597
0.000332581
0.000332551
0.000332539
0.000332502
0.000332498
0.000332454
0.000332454
0.000332402
0.000332409
0.000332333
0.000332371
0.000332254
0.000332254
0.000332146
0.000332119
0.000332002
0.000332117
0.0003317
0.000331892
0.000331679
0.000331649
0.000331608
0.000331536
0.000331488
0.000331456
0.000332517
0.00033248
0.000332444
0.000332427
0.000332433
0.000332453
0.000332479
0.000332506
0.000332531
0.00033255
0.000332555
0.000332548
0.000332539
0.000332536
0.000332532
0.000332523
0.000332516
0.000332515
0.000332515
0.000332508
0.000332492
0.000332471
0.000332449
0.000332429
0.000332398
0.000332383
0.00033241
0.000332555
0.00033265
0.000332768
0.000332728
0.000332769
0.000332678
0.000332441
0.00033245
0.000332348
0.000332323
0.00033228
0.000332247
0.000332252
0.00033222
0.00033223
0.00033225
0.000332299
0.000332312
0.000332393
0.000332415
0.000332475
0.000332516
0.00033255
0.000332582
0.000332585
0.000332583
0.000332558
0.000332539
0.000332509
0.00033249
0.000332454
0.000332443
0.000332399
0.000332382
0.000332347
0.000332325
0.000332282
0.00033227
0.000332173
0.000332204
0.000332021
0.000332047
0.000331835
0.000332018
0.000331384
0.000332143
0.000331589
0.000331755
0.000331689
0.000331568
0.000331526
0.000331502
0.000331453
0.000332522
0.000332485
0.000332445
0.000332423
0.000332427
0.000332447
0.000332475
0.000332506
0.000332535
0.000332555
0.00033256
0.000332551
0.000332539
0.000332535
0.000332533
0.000332525
0.00033252
0.00033252
0.000332516
0.000332502
0.000332478
0.000332448
0.000332419
0.000332394
0.000332406
0.000332476
0.000332631
0.000332721
0.000332807
0.000332682
0.000332661
0.000332476
0.000332196
0.000332143
0.000332133
0.000332037
0.000332003
0.000331976
0.000331958
0.000331937
0.000331929
0.000331909
0.000331891
0.000331959
0.000331976
0.000332028
0.000332104
0.000332163
0.000332248
0.000332331
0.000332426
0.000332475
0.000332496
0.000332474
0.000332448
0.000332419
0.000332359
0.000332344
0.000332284
0.00033226
0.000332225
0.000332184
0.000332167
0.000332109
0.000332045
0.00033206
0.00033183
0.000331899
0.000331522
0.000331604
0.00033096
0.000331811
0.000331241
0.000331837
0.000331813
0.000331834
0.000331833
0.000331767
0.000331632
0.000331612
0.000332528
0.000332491
0.000332447
0.000332423
0.000332424
0.000332444
0.000332473
0.000332506
0.000332538
0.000332561
0.000332566
0.000332554
0.00033254
0.000332537
0.000332537
0.000332534
0.00033253
0.000332528
0.000332518
0.000332496
0.000332473
0.00033246
0.000332465
0.000332501
0.000332568
0.000332665
0.00033271
0.000332733
0.000332572
0.000332466
0.000332248
0.000332404
0.000332563
0.000332325
0.000332211
0.000332102
0.000332128
0.000332127
0.000332115
0.000332093
0.000332039
0.000331963
0.000331838
0.000331779
0.0003318
0.000331766
0.000331812
0.000331824
0.000331884
0.000331971
0.000332125
0.00033227
0.000332363
0.000332389
0.000332397
0.000332303
0.000332273
0.000332171
0.000332119
0.00033205
0.000332014
0.000331987
0.000331936
0.000331903
0.000331864
0.000331724
0.000331702
0.000331437
0.000331362
0.000330888
0.000331172
0.000330677
0.000331429
0.000331547
0.000331806
0.000331807
0.000331929
0.000332008
0.000331957
0.000331745
0.000332536
0.000332498
0.000332452
0.000332424
0.000332424
0.000332443
0.000332472
0.000332507
0.000332541
0.000332565
0.00033257
0.000332557
0.000332543
0.000332538
0.000332539
0.000332535
0.000332528
0.00033252
0.000332506
0.00033249
0.000332485
0.000332496
0.000332522
0.000332561
0.000332606
0.000332654
0.000332656
0.000332583
0.000332507
0.000332352
0.000332296
0.000332296
0.000332288
0.000332444
0.000332284
0.00033214
0.000332161
0.000332183
0.000332187
0.000332166
0.000332112
0.000332034
0.000331929
0.00033184
0.0003318
0.000331763
0.000331761
0.000331722
0.000331665
0.000331669
0.000331758
0.000331919
0.000332126
0.000332282
0.000332273
0.000332282
0.000332196
0.000332061
0.000331941
0.000331896
0.000331822
0.000331812
0.000331759
0.000331763
0.000331675
0.000331624
0.000331542
0.000331435
0.000331303
0.000331181
0.000330987
0.00033126
0.000331443
0.0003315
0.000331645
0.00033145
0.000331644
0.000331819
0.000331832
0.000331719
0.000332545
0.000332506
0.000332457
0.000332427
0.000332426
0.000332443
0.000332472
0.000332508
0.000332544
0.000332569
0.000332574
0.00033256
0.000332544
0.000332538
0.000332537
0.000332529
0.000332518
0.000332508
0.0003325
0.000332493
0.000332491
0.000332487
0.000332488
0.000332498
0.000332544
0.000332565
0.00033258
0.000332547
0.000332498
0.000332341
0.000332105
0.000331927
0.000331948
0.000331977
0.000332145
0.000332199
0.000332227
0.000332237
0.000332229
0.0003322
0.00033215
0.000332081
0.000332001
0.000331921
0.00033186
0.00033181
0.000331774
0.000331755
0.000331722
0.000331704
0.000331658
0.00033164
0.000331845
0.000332049
0.000332212
0.000332257
0.000332162
0.000332011
0.000331865
0.000331736
0.000331718
0.000331664
0.000331656
0.000331612
0.000331616
0.000331622
0.00033154
0.000331552
0.000331461
0.000331403
0.000331345
0.000331476
0.000331398
0.000331512
0.000331439
0.000331505
0.000331586
0.000331666
0.000331699
0.000331677
0.00033255
0.000332509
0.00033246
0.000332431
0.000332428
0.000332444
0.000332472
0.000332507
0.000332545
0.000332572
0.000332577
0.000332562
0.000332544
0.000332537
0.000332535
0.000332525
0.000332512
0.000332504
0.000332502
0.000332504
0.0003325
0.00033249
0.00033248
0.000332497
0.000332549
0.000332622
0.000332693
0.000332655
0.000332489
0.000332235
0.000332006
0.000332031
0.000332105
0.000332139
0.000332247
0.000332283
0.00033229
0.000332282
0.000332261
0.000332226
0.000332179
0.000332121
0.000332059
0.000331996
0.000331937
0.000331882
0.000331833
0.000331797
0.000331764
0.000331738
0.000331703
0.000331625
0.000331615
0.000331735
0.000331912
0.000332032
0.000332146
0.000332081
0.000331796
0.000331725
0.000331666
0.000331571
0.000331543
0.000331513