/*--------------------------------*- C++ -*----------------------------------*\
  =========                 |
  \\      /  F ield         | OpenFOAM: The Open Source CFD Toolbox
   \\    /   O peration     | Website:  https://openfoam.org
    \\  /    A nd           | Version:  7
     \\/     M anipulation  |
\*---------------------------------------------------------------------------*/
FoamFile
{
    version     2.0;
    format      ascii;
    class       volScalarField;
    location    "10";
    object      nuTotal;
}
// * * * * * * * * * * * * * * * * * * * * * * * * * * * * * * * * * * * * * //

dimensions      [0 2 -1 0 0 0 0];

internalField   nonuniform List<scalar> 
49920
(
3.44984e-07
3.44976e-07
3.44975e-07
3.44974e-07
3.44975e-07
3.44974e-07
3.44975e-07
3.44973e-07
3.44974e-07
3.44975e-07
3.44975e-07
3.44974e-07
3.44975e-07
3.44973e-07
3.44977e-07
3.44972e-07
3.4498e-07
3.44983e-07
3.44977e-07
3.44975e-07
3.44974e-07
3.44973e-07
3.44973e-07
3.44972e-07
3.44972e-07
3.44972e-07
3.44971e-07
3.44971e-07
3.44971e-07
3.44972e-07
3.44972e-07
3.44973e-07
3.44974e-07
3.44975e-07
3.44976e-07
3.44978e-07
3.44979e-07
3.44979e-07
3.4498e-07
3.4498e-07
3.44981e-07
3.44981e-07
3.44982e-07
3.44982e-07
3.44983e-07
3.44984e-07
3.44985e-07
3.44992e-07
3.4499e-07
3.45001e-07
3.44983e-07
3.45005e-07
3.44975e-07
3.44999e-07
3.44964e-07
3.45006e-07
3.44979e-07
3.45002e-07
3.4497e-07
3.45e-07
3.44965e-07
3.44997e-07
3.44956e-07
3.44993e-07
3.44949e-07
3.44985e-07
3.44935e-07
3.44974e-07
3.44924e-07
3.4496e-07
3.4491e-07
3.44944e-07
3.44902e-07
3.44929e-07
3.44898e-07
3.44915e-07
3.44899e-07
3.44902e-07
3.44907e-07
3.44892e-07
3.45031e-07
3.44969e-07
3.44976e-07
3.44976e-07
3.44975e-07
3.44972e-07
3.44972e-07
3.44971e-07
3.44973e-07
3.44971e-07
3.44971e-07
3.4497e-07
3.44971e-07
3.44972e-07
3.4498e-07
3.44967e-07
3.44959e-07
3.44959e-07
3.44969e-07
3.44973e-07
3.44972e-07
3.44971e-07
3.4497e-07
3.44969e-07
3.44969e-07
3.44969e-07
3.44969e-07
3.44969e-07
3.44969e-07
3.4497e-07
3.44971e-07
3.44972e-07
3.44972e-07
3.44974e-07
3.44976e-07
3.44978e-07
3.44979e-07
3.44981e-07
3.44981e-07
3.44983e-07
3.44982e-07
3.44985e-07
3.44984e-07
3.44988e-07
3.44986e-07
3.4499e-07
3.44994e-07
3.45008e-07
3.45015e-07
3.44993e-07
3.45014e-07
3.44972e-07
3.45014e-07
3.4497e-07
3.45034e-07
3.44982e-07
3.4502e-07
3.44973e-07
3.45015e-07
3.44964e-07
3.45013e-07
3.44953e-07
3.45008e-07
3.44942e-07
3.45001e-07
3.44927e-07
3.44987e-07
3.4491e-07
3.4497e-07
3.44892e-07
3.44946e-07
3.44876e-07
3.44919e-07
3.44864e-07
3.44888e-07
3.44858e-07
3.44863e-07
3.44865e-07
3.44846e-07
3.44862e-07
3.45145e-07
3.44996e-07
3.44984e-07
3.44976e-07
3.44977e-07
3.4498e-07
3.44979e-07
3.44979e-07
3.44975e-07
3.44974e-07
3.44973e-07
3.44972e-07
3.44974e-07
3.44975e-07
3.44988e-07
3.44983e-07
3.44956e-07
3.44952e-07
3.4497e-07
3.44972e-07
3.44971e-07
3.44969e-07
3.44968e-07
3.44966e-07
3.44967e-07
3.44967e-07
3.44968e-07
3.44968e-07
3.4497e-07
3.44969e-07
3.44971e-07
3.44969e-07
3.44972e-07
3.44971e-07
3.44975e-07
3.44975e-07
3.44979e-07
3.44977e-07
3.44982e-07
3.44979e-07
3.44985e-07
3.44982e-07
3.44988e-07
3.44983e-07
3.44989e-07
3.44988e-07
3.45013e-07
3.45004e-07
3.45012e-07
3.44997e-07
3.44976e-07
3.45012e-07
3.44986e-07
3.44998e-07
3.44994e-07
3.45004e-07
3.44993e-07
3.45002e-07
3.44987e-07
3.44999e-07
3.44982e-07
3.44995e-07
3.44975e-07
3.44989e-07
3.44966e-07
3.44979e-07
3.44953e-07
3.44964e-07
3.44938e-07
3.44943e-07
3.44919e-07
3.44917e-07
3.44899e-07
3.44885e-07
3.44876e-07
3.44853e-07
3.44865e-07
3.4484e-07
3.44847e-07
3.44825e-07
3.45205e-07
3.45025e-07
3.44973e-07
3.44987e-07
3.44979e-07
3.4498e-07
3.44978e-07
3.4498e-07
3.4498e-07
3.44981e-07
3.4498e-07
3.4498e-07
3.4498e-07
3.44983e-07
3.44981e-07
3.4498e-07
3.44966e-07
3.44954e-07
3.44965e-07
3.44966e-07
3.44968e-07
3.44967e-07
3.44965e-07
3.44964e-07
3.44963e-07
3.44964e-07
3.44964e-07
3.44967e-07
3.44965e-07
3.44967e-07
3.44966e-07
3.44968e-07
3.44967e-07
3.4497e-07
3.4497e-07
3.44973e-07
3.44974e-07
3.44977e-07
3.44978e-07
3.4498e-07
3.44981e-07
3.44983e-07
3.44985e-07
3.44984e-07
3.44991e-07
3.45002e-07
3.44989e-07
3.45016e-07
3.44974e-07
3.45001e-07
3.44985e-07
3.45003e-07
3.44972e-07
3.45e-07
3.44978e-07
3.45008e-07
3.4498e-07
3.45011e-07
3.44979e-07
3.45012e-07
3.44976e-07
3.45012e-07
3.44971e-07
3.4501e-07
3.44963e-07
3.45005e-07
3.44952e-07
3.44995e-07
3.44937e-07
3.44978e-07
3.44917e-07
3.44953e-07
3.44893e-07
3.44915e-07
3.44863e-07
3.44873e-07
3.44845e-07
3.44832e-07
3.4483e-07
3.4482e-07
3.45216e-07
3.45066e-07
3.44991e-07
3.44997e-07
3.44986e-07
3.44974e-07
3.44976e-07
3.44969e-07
3.44987e-07
3.44984e-07
3.44981e-07
3.44982e-07
3.44977e-07
3.44973e-07
3.44972e-07
3.44993e-07
3.44972e-07
3.44952e-07
3.44955e-07
3.44961e-07
3.44963e-07
3.44965e-07
3.44962e-07
3.44961e-07
3.4496e-07
3.44961e-07
3.44961e-07
3.44962e-07
3.44962e-07
3.44963e-07
3.44963e-07
3.44965e-07
3.44965e-07
3.44967e-07
3.44967e-07
3.44971e-07
3.4497e-07
3.44976e-07
3.44973e-07
3.44982e-07
3.44976e-07
3.44986e-07
3.4498e-07
3.44998e-07
3.44986e-07
3.44992e-07
3.44989e-07
3.44969e-07
3.45005e-07
3.44986e-07
3.44993e-07
3.44979e-07
3.4499e-07
3.44981e-07
3.44995e-07
3.44984e-07
3.45001e-07
3.44987e-07
3.45006e-07
3.44989e-07
3.4501e-07
3.44989e-07
3.45011e-07
3.44986e-07
3.4501e-07
3.44981e-07
3.45004e-07
3.44972e-07
3.44991e-07
3.44956e-07
3.44968e-07
3.44934e-07
3.44931e-07
3.44899e-07
3.44879e-07
3.44859e-07
3.44821e-07
3.44817e-07
3.44798e-07
3.44806e-07
3.45161e-07
3.45029e-07
3.45008e-07
3.44973e-07
3.44992e-07
3.44993e-07
3.44994e-07
3.44975e-07
3.44962e-07
3.44967e-07
3.44973e-07
3.44976e-07
3.44985e-07
3.44984e-07
3.4499e-07
3.44992e-07
3.4498e-07
3.44956e-07
3.44953e-07
3.44956e-07
3.44961e-07
3.44962e-07
3.44961e-07
3.44958e-07
3.44959e-07
3.44959e-07
3.44959e-07
3.44959e-07
3.4496e-07
3.44959e-07
3.44962e-07
3.44961e-07
3.44964e-07
3.44963e-07
3.44967e-07
3.44965e-07
3.44971e-07
3.44969e-07
3.44977e-07
3.44975e-07
3.44982e-07
3.44983e-07
3.44995e-07
3.44978e-07
3.45e-07
3.44961e-07
3.44985e-07
3.44973e-07
3.44996e-07
3.44967e-07
3.44994e-07
3.4497e-07
3.44999e-07
3.44972e-07
3.45002e-07
3.44975e-07
3.45009e-07
3.44981e-07
3.45017e-07
3.44985e-07
3.45024e-07
3.44987e-07
3.45029e-07
3.44987e-07
3.45031e-07
3.44983e-07
3.45029e-07
3.44974e-07
3.45019e-07
3.44957e-07
3.44998e-07
3.44931e-07
3.4496e-07
3.44887e-07
3.449e-07
3.44829e-07
3.44828e-07
3.44782e-07
3.44786e-07
3.44781e-07
3.4509e-07
3.44946e-07
3.44926e-07
3.44895e-07
3.44954e-07
3.44989e-07
3.44982e-07
3.44991e-07
3.4498e-07
3.44982e-07
3.44978e-07
3.44983e-07
3.4499e-07
3.44992e-07
3.44993e-07
3.44993e-07
3.44984e-07
3.44964e-07
3.44956e-07
3.44954e-07
3.4496e-07
3.4496e-07
3.4496e-07
3.44958e-07
3.44959e-07
3.4496e-07
3.4496e-07
3.44959e-07
3.44959e-07
3.44959e-07
3.44961e-07
3.44961e-07
3.44962e-07
3.44963e-07
3.44964e-07
3.44965e-07
3.44967e-07
3.4497e-07
3.44973e-07
3.44975e-07
3.44984e-07
3.44987e-07
3.44977e-07
3.44996e-07
3.44951e-07
3.45007e-07
3.44959e-07
3.44996e-07
3.44955e-07
3.44997e-07
3.44959e-07
3.45005e-07
3.44963e-07
3.45008e-07
3.44961e-07
3.45014e-07
3.44966e-07
3.45026e-07
3.44971e-07
3.45037e-07
3.44976e-07
3.45048e-07
3.44977e-07
3.45056e-07
3.44977e-07
3.45062e-07
3.44974e-07
3.45061e-07
3.44965e-07
3.45048e-07
3.44948e-07
3.45017e-07
3.44917e-07
3.44959e-07
3.4487e-07
3.44878e-07
3.44812e-07
3.44792e-07
3.4479e-07
3.44776e-07
3.45014e-07
3.44883e-07
3.44842e-07
3.44818e-07
3.44866e-07
3.44909e-07
3.44918e-07
3.4496e-07
3.44987e-07
3.44979e-07
3.4498e-07
3.44985e-07
3.4499e-07
3.44997e-07
3.44999e-07
3.44995e-07
3.44985e-07
3.44969e-07
3.44956e-07
3.44956e-07
3.44957e-07
3.44961e-07
3.4496e-07
3.44962e-07
3.44961e-07
3.44963e-07
3.44961e-07
3.44962e-07
3.44959e-07
3.44962e-07
3.44961e-07
3.44962e-07
3.44961e-07
3.44963e-07
3.44961e-07
3.44964e-07
3.44965e-07
3.44969e-07
3.44971e-07
3.44978e-07
3.44981e-07
3.44973e-07
3.44991e-07
3.44948e-07
3.45009e-07
3.44952e-07
3.44987e-07
3.44951e-07
3.44992e-07
3.44956e-07
3.45e-07
3.44959e-07
3.45003e-07
3.44957e-07
3.45006e-07
3.4496e-07
3.45017e-07
3.44967e-07
3.4503e-07
3.44974e-07
3.45044e-07
3.44979e-07
3.45058e-07
3.44985e-07
3.4507e-07
3.44988e-07
3.45079e-07
3.44989e-07
3.4508e-07
3.44983e-07
3.45065e-07
3.44966e-07
3.45026e-07
3.44932e-07
3.44956e-07
3.44878e-07
3.44849e-07
3.44817e-07
3.44806e-07
3.44794e-07
3.44941e-07
3.44845e-07
3.44809e-07
3.44784e-07
3.44795e-07
3.44824e-07
3.44847e-07
3.44904e-07
3.44957e-07
3.44953e-07
3.44962e-07
3.44974e-07
3.44988e-07
3.44999e-07
3.45e-07
3.44993e-07
3.44983e-07
3.44969e-07
3.44959e-07
3.44956e-07
3.44957e-07
3.44961e-07
3.44963e-07
3.44964e-07
3.44965e-07
3.44965e-07
3.44965e-07
3.44962e-07
3.44963e-07
3.44962e-07
3.44963e-07
3.44962e-07
3.44963e-07
3.44961e-07
3.44962e-07
3.44964e-07
3.44965e-07
3.44969e-07
3.44969e-07
3.44973e-07
3.44966e-07
3.44982e-07
3.44946e-07
3.44998e-07
3.44952e-07
3.4498e-07
3.4495e-07
3.44982e-07
3.44955e-07
3.44989e-07
3.44957e-07
3.44993e-07
3.44956e-07
3.44994e-07
3.44957e-07
3.45003e-07
3.44964e-07
3.45016e-07
3.44973e-07
3.45031e-07
3.44983e-07
3.45047e-07
3.44993e-07
3.45066e-07
3.45005e-07
3.45084e-07
3.45016e-07
3.45098e-07
3.45023e-07
3.45101e-07
3.45022e-07
3.45084e-07
3.45005e-07
3.45035e-07
3.4496e-07
3.44929e-07
3.44875e-07
3.44843e-07
3.44849e-07
3.44823e-07
3.44885e-07
3.44823e-07
3.44807e-07
3.44789e-07
3.4478e-07
3.44787e-07
3.44803e-07
3.44851e-07
3.44907e-07
3.44921e-07
3.44945e-07
3.44967e-07
3.44988e-07
3.44997e-07
3.44999e-07
3.44989e-07
3.4498e-07
3.44967e-07
3.4496e-07
3.44953e-07
3.44961e-07
3.4496e-07
3.44968e-07
3.44965e-07
3.44969e-07
3.44966e-07
3.44967e-07
3.44964e-07
3.44965e-07
3.44964e-07
3.44965e-07
3.44963e-07
3.44963e-07
3.44961e-07
3.44964e-07
3.44962e-07
3.44967e-07
3.44961e-07
3.44962e-07
3.44961e-07
3.44964e-07
3.44947e-07
3.44975e-07
3.44955e-07
3.44963e-07
3.44954e-07
3.44964e-07
3.44958e-07
3.4497e-07
3.44961e-07
3.44972e-07
3.44962e-07
3.44973e-07
3.44962e-07
3.4498e-07
3.4497e-07
3.44991e-07
3.44981e-07
3.45006e-07
3.44995e-07
3.45023e-07
3.45011e-07
3.45044e-07
3.45031e-07
3.45068e-07
3.45052e-07
3.45091e-07
3.45073e-07
3.4511e-07
3.45088e-07
3.45115e-07
3.45087e-07
3.45092e-07
3.45053e-07
3.45009e-07
3.44955e-07
3.44896e-07
3.44894e-07
3.4489e-07
3.44861e-07
3.44853e-07
3.44814e-07
3.4481e-07
3.44807e-07
3.44802e-07
3.44799e-07
3.44805e-07
3.44833e-07
3.44877e-07
3.44908e-07
3.44937e-07
3.44968e-07
3.44984e-07
3.44996e-07
3.44994e-07
3.44989e-07
3.44976e-07
3.44971e-07
3.44957e-07
3.4496e-07
3.44958e-07
3.44968e-07
3.44965e-07
3.44972e-07
3.44968e-07
3.44972e-07
3.44966e-07
3.44969e-07
3.44965e-07
3.44968e-07
3.44963e-07
3.44966e-07
3.4496e-07
3.44964e-07
3.44959e-07
3.44964e-07
3.44956e-07
3.44956e-07
3.44956e-07
3.44944e-07
3.44948e-07
3.44947e-07
3.44962e-07
3.44942e-07
3.44959e-07
3.44945e-07
3.44964e-07
3.44949e-07
3.44968e-07
3.4495e-07
3.4497e-07
3.44952e-07
3.44973e-07
3.44956e-07
3.44981e-07
3.44966e-07
3.44994e-07
3.44979e-07
3.45011e-07
3.44995e-07
3.45032e-07
3.45017e-07
3.45059e-07
3.45042e-07
3.4509e-07
3.45071e-07
3.45123e-07
3.451e-07
3.45152e-07
3.45123e-07
3.45168e-07
3.45127e-07
3.45147e-07
3.45078e-07
3.45052e-07
3.44966e-07
3.44952e-07
3.44936e-07
3.44946e-07
3.44885e-07
3.44845e-07
3.44821e-07
3.44818e-07
3.44821e-07
3.44825e-07
3.44828e-07
3.44833e-07
3.44847e-07
3.44877e-07
3.44906e-07
3.44938e-07
3.44962e-07
3.44979e-07
3.44991e-07
3.44992e-07
3.44985e-07
3.44977e-07
3.44968e-07
3.44963e-07
3.44959e-07
3.44962e-07
3.44968e-07
3.44971e-07
3.44973e-07
3.44974e-07
3.44972e-07
3.44972e-07
3.44968e-07
3.44969e-07
3.44965e-07
3.44965e-07
3.44961e-07
3.44962e-07
3.44958e-07
3.44958e-07
3.44952e-07
3.4495e-07
3.44948e-07
3.44931e-07
3.44948e-07
3.4494e-07
3.44952e-07
3.44931e-07
3.44958e-07
3.44935e-07
3.44965e-07
3.44939e-07
3.44969e-07
3.44939e-07
3.44971e-07
3.4494e-07
3.44976e-07
3.44945e-07
3.44985e-07
3.44954e-07
3.44999e-07
3.44966e-07
3.45016e-07
3.44982e-07
3.4504e-07
3.45003e-07
3.45069e-07
3.45029e-07
3.45106e-07
3.45061e-07
3.45146e-07
3.45098e-07
3.45188e-07
3.45134e-07
3.45221e-07
3.45159e-07
3.45222e-07
3.45141e-07
3.45152e-07
3.45052e-07
3.45035e-07
3.44986e-07
3.45007e-07
3.44975e-07
3.44906e-07
3.4486e-07
3.44846e-07
3.44839e-07
3.44837e-07
3.44842e-07
3.44851e-07
3.4486e-07
3.44872e-07
3.44893e-07
3.44915e-07
3.44939e-07
3.44954e-07
3.44973e-07
3.44983e-07
3.44989e-07
3.44983e-07
3.44977e-07
3.44968e-07
3.44964e-07
3.44961e-07
3.44968e-07
3.44971e-07
3.44978e-07
3.44974e-07
3.44979e-07
3.44973e-07
3.44973e-07
3.44968e-07
3.44968e-07
3.44962e-07
3.44961e-07
3.44957e-07
3.44956e-07
3.4495e-07
3.44946e-07
3.44939e-07
3.44937e-07
3.4492e-07
3.44936e-07
3.44928e-07
3.44939e-07
3.44926e-07
3.44952e-07
3.44934e-07
3.44962e-07
3.44937e-07
3.44965e-07
3.44937e-07
3.44967e-07
3.44938e-07
3.44971e-07
3.44943e-07
3.44981e-07
3.44952e-07
3.44994e-07
3.44964e-07
3.45012e-07
3.4498e-07
3.45035e-07
3.45e-07
3.45064e-07
3.45027e-07
3.45102e-07
3.45061e-07
3.45146e-07
3.45102e-07
3.45195e-07
3.45147e-07
3.45244e-07
3.45191e-07
3.45274e-07
3.45204e-07
3.45243e-07
3.45146e-07
3.45137e-07
3.45056e-07
3.45065e-07
3.4503e-07
3.45006e-07
3.44897e-07
3.44889e-07
3.4488e-07
3.44869e-07
3.4486e-07
3.44859e-07
3.44867e-07
3.44879e-07
3.44892e-07
3.44907e-07
3.44925e-07
3.4494e-07
3.44955e-07
3.44971e-07
3.44986e-07
3.44989e-07
3.44986e-07
3.44976e-07
3.44972e-07
3.44965e-07
3.44969e-07
3.4497e-07
3.44977e-07
3.44978e-07
3.44984e-07
3.44977e-07
3.44977e-07
3.44968e-07
3.44969e-07
3.4496e-07
3.4496e-07
3.44952e-07
3.4495e-07
3.44942e-07
3.44937e-07
3.44926e-07
3.44922e-07
3.44907e-07
3.44921e-07
3.44919e-07
3.4493e-07
3.44922e-07
3.44947e-07
3.44933e-07
3.44959e-07
3.44937e-07
3.44963e-07
3.44937e-07
3.44965e-07
3.44938e-07
3.4497e-07
3.44943e-07
3.44979e-07
3.44953e-07
3.44992e-07
3.44965e-07
3.45009e-07
3.4498e-07
3.45031e-07
3.45e-07
3.45059e-07
3.45025e-07
3.45094e-07
3.45058e-07
3.45138e-07
3.451e-07
3.45191e-07
3.45151e-07
3.45251e-07
3.45209e-07
3.45306e-07
3.45253e-07
3.45317e-07
3.45234e-07
3.45242e-07
3.45144e-07
3.45137e-07
3.45075e-07
3.45067e-07
3.44981e-07
3.44878e-07
3.44919e-07
3.44912e-07
3.449e-07
3.44889e-07
3.44882e-07
3.44884e-07
3.44892e-07
3.44905e-07
3.44918e-07
3.44932e-07
3.44944e-07
3.44957e-07
3.44975e-07
3.4499e-07
3.44993e-07
3.44986e-07
3.4498e-07
3.44971e-07
3.44967e-07
3.44966e-07
3.44974e-07
3.44978e-07
3.44982e-07
3.44981e-07
3.4498e-07
3.44973e-07
3.4497e-07
3.44959e-07
3.44956e-07
3.44948e-07
3.44941e-07
3.44932e-07
3.44923e-07
3.44913e-07
3.44907e-07
3.44894e-07
3.44908e-07
3.44908e-07
3.44923e-07
3.44919e-07
3.44943e-07
3.44934e-07
3.44958e-07
3.44941e-07
3.44964e-07
3.44943e-07
3.44968e-07
3.44945e-07
3.44973e-07
3.44951e-07
3.44982e-07
3.4496e-07
3.44994e-07
3.44972e-07
3.4501e-07
3.44986e-07
3.45029e-07
3.45004e-07
3.45054e-07
3.45027e-07
3.45085e-07
3.45057e-07
3.45126e-07
3.45097e-07
3.45178e-07
3.4515e-07
3.45244e-07
3.45218e-07
3.45317e-07
3.45284e-07
3.4536e-07
3.453e-07
3.45322e-07
3.45229e-07
3.45211e-07
3.45128e-07
3.45103e-07
3.45024e-07
3.44941e-07
3.44817e-07
3.44946e-07
3.44937e-07
3.44926e-07
3.44916e-07
3.44907e-07
3.44905e-07
3.44908e-07
3.44917e-07
3.44928e-07
3.44939e-07
3.44949e-07
3.44963e-07
3.44981e-07
3.44995e-07
3.44997e-07
3.44989e-07
3.44982e-07
3.44974e-07
3.44972e-07
3.44973e-07
3.44978e-07
3.44981e-07
3.44983e-07
3.44978e-07
3.44974e-07
3.44965e-07
3.44961e-07
3.44955e-07
3.44944e-07
3.44931e-07
3.44922e-07
3.44908e-07
3.44901e-07
3.44893e-07
3.44889e-07
3.44898e-07
3.44902e-07
3.44918e-07
3.44921e-07
3.4494e-07
3.4494e-07
3.44956e-07
3.44952e-07
3.44965e-07
3.44958e-07
3.44971e-07
3.44963e-07
3.44977e-07
3.4497e-07
3.44985e-07
3.44979e-07
3.44996e-07
3.44989e-07
3.45008e-07
3.45002e-07
3.45023e-07
3.45017e-07
3.45042e-07
3.45037e-07
3.45067e-07
3.45064e-07
3.45102e-07
3.45102e-07
3.45149e-07
3.45156e-07
3.45215e-07
3.45229e-07
3.45294e-07
3.45306e-07
3.45357e-07
3.45343e-07
3.45348e-07
3.45293e-07
3.45251e-07
3.45178e-07
3.4512e-07
3.45047e-07
3.44962e-07
3.44865e-07
3.44749e-07
3.44965e-07
3.44952e-07
3.44942e-07
3.44936e-07
3.44931e-07
3.44927e-07
3.44927e-07
3.44932e-07
3.44939e-07
3.44948e-07
3.44958e-07
3.44971e-07
3.44988e-07
3.44999e-07
3.45e-07
3.44993e-07
3.44986e-07
3.4498e-07
3.44974e-07
3.44976e-07
3.44976e-07
3.44982e-07
3.44983e-07
3.4498e-07
3.44971e-07
3.44966e-07
3.4495e-07
3.44939e-07
3.44927e-07
3.44912e-07
3.44897e-07
3.44888e-07
3.4488e-07
3.44886e-07
3.44891e-07
3.44907e-07
3.44918e-07
3.44927e-07
3.44939e-07
3.44951e-07
3.44957e-07
3.44967e-07
3.44968e-07
3.44978e-07
3.44975e-07
3.44986e-07
3.44981e-07
3.44994e-07
3.44988e-07
3.45002e-07
3.44997e-07
3.45011e-07
3.45005e-07
3.45021e-07
3.45016e-07
3.45034e-07
3.45028e-07
3.45051e-07
3.45046e-07
3.45075e-07
3.45072e-07
3.4511e-07
3.45112e-07
3.45163e-07
3.4517e-07
3.45234e-07
3.45245e-07
3.45314e-07
3.45312e-07
3.4536e-07
3.45322e-07
3.45323e-07
3.45243e-07
3.45204e-07
3.45108e-07
3.45051e-07
3.44949e-07
3.44871e-07
3.44759e-07
3.44667e-07
3.44978e-07
3.44959e-07
3.44949e-07
3.44948e-07
3.44948e-07
3.44946e-07
3.44946e-07
3.44948e-07
3.44952e-07
3.44958e-07
3.44967e-07
3.4498e-07
3.44994e-07
3.45003e-07
3.45001e-07
3.44993e-07
3.44985e-07
3.44979e-07
3.44975e-07
3.4498e-07
3.44985e-07
3.44988e-07
3.4498e-07
3.44967e-07
3.44955e-07
3.44944e-07
3.44937e-07
3.44923e-07
3.44905e-07
3.44893e-07
3.44881e-07
3.44876e-07
3.44882e-07
3.44887e-07
3.44911e-07
3.4492e-07
3.44936e-07
3.44942e-07
3.4496e-07
3.44961e-07
3.44979e-07
3.44974e-07
3.44992e-07
3.44983e-07
3.45003e-07
3.4499e-07
3.45012e-07
3.44997e-07
3.4502e-07
3.45003e-07
3.45028e-07
3.4501e-07
3.45037e-07
3.45017e-07
3.45047e-07
3.45025e-07
3.4506e-07
3.45036e-07
3.4508e-07
3.45055e-07
3.45109e-07
3.45084e-07
3.45153e-07
3.45128e-07
3.45215e-07
3.4519e-07
3.45286e-07
3.45251e-07
3.45334e-07
3.45269e-07
3.4531e-07
3.45205e-07
3.45193e-07
3.45071e-07
3.45026e-07
3.44909e-07
3.44839e-07
3.44728e-07
3.44653e-07
3.4456e-07
3.44986e-07
3.4496e-07
3.44948e-07
3.4495e-07
3.44955e-07
3.44959e-07
3.4496e-07
3.44961e-07
3.44964e-07
3.44969e-07
3.44977e-07
3.44989e-07
3.45e-07
3.45005e-07
3.45001e-07
3.44992e-07
3.44984e-07
3.4498e-07
3.4498e-07
3.44984e-07
3.44985e-07
3.4498e-07
3.44974e-07
3.4497e-07
3.44966e-07
3.44945e-07
3.44922e-07
3.44894e-07
3.44888e-07
3.44879e-07
3.44877e-07
3.44886e-07
3.44887e-07
3.44914e-07
3.44919e-07
3.44943e-07
3.44947e-07
3.44966e-07
3.44968e-07
3.44986e-07
3.44984e-07
3.45002e-07
3.44996e-07
3.45015e-07
3.45005e-07
3.45025e-07
3.45012e-07
3.45033e-07
3.45018e-07
3.45039e-07
3.45023e-07
3.45046e-07
3.45028e-07
3.45053e-07
3.45033e-07
3.45062e-07
3.45039e-07
3.45075e-07
3.4505e-07
3.45093e-07
3.45066e-07
3.45121e-07
3.45094e-07
3.45165e-07
3.45136e-07
3.45219e-07
3.45184e-07
3.45262e-07
3.45203e-07
3.45249e-07
3.45152e-07
3.45145e-07
3.45023e-07
3.44976e-07
3.44855e-07
3.44787e-07
3.44679e-07
3.44613e-07
3.44519e-07
3.44456e-07
3.44987e-07
3.44955e-07
3.44941e-07
3.44944e-07
3.44954e-07
3.44963e-07
3.44967e-07
3.4497e-07
3.44973e-07
3.44978e-07
3.44986e-07
3.44996e-07
3.45004e-07
3.45008e-07
3.45003e-07
3.44995e-07
3.44988e-07
3.44986e-07
3.44986e-07
3.44987e-07
3.44989e-07
3.44987e-07
3.44978e-07
3.44959e-07
3.44934e-07
3.4491e-07
3.44898e-07
3.44895e-07
3.44883e-07
3.44872e-07
3.44887e-07
3.44886e-07
3.44928e-07
3.4492e-07
3.4495e-07
3.44951e-07
3.44971e-07
3.44974e-07
3.44994e-07
3.44995e-07
3.45014e-07
3.45012e-07
3.45028e-07
3.45025e-07
3.45037e-07
3.45034e-07
3.45044e-07
3.45039e-07
3.45049e-07
3.45042e-07
3.45052e-07
3.45044e-07
3.45053e-07
3.45044e-07
3.45055e-07
3.45044e-07
3.45057e-07
3.45045e-07
3.45061e-07
3.45049e-07
3.4507e-07
3.45059e-07
3.4509e-07
3.45083e-07
3.45122e-07
3.45117e-07
3.45152e-07
3.45134e-07
3.45142e-07
3.45094e-07
3.45054e-07
3.44972e-07
3.44895e-07
3.44794e-07
3.44709e-07
3.44611e-07
3.44545e-07
3.44456e-07
3.44409e-07
3.44332e-07
3.44988e-07
3.4495e-07
3.44931e-07
3.44932e-07
3.44945e-07
3.44959e-07
3.44968e-07
3.44974e-07
3.44979e-07
3.44985e-07
3.44993e-07
3.45001e-07
3.45007e-07
3.45008e-07
3.45003e-07
3.44993e-07
3.44986e-07
3.44983e-07
3.44983e-07
3.44985e-07
3.44983e-07
3.44967e-07
3.44941e-07
3.44913e-07
3.44894e-07
3.44885e-07
3.44879e-07
3.44873e-07
3.44868e-07
3.44894e-07
3.44898e-07
3.44936e-07
3.44913e-07
3.44965e-07
3.44953e-07
3.44982e-07
3.44985e-07
3.45008e-07
3.45017e-07
3.45036e-07
3.45044e-07
3.45057e-07
3.45063e-07
3.45069e-07
3.45076e-07
3.45074e-07
3.4508e-07
3.45074e-07
3.45077e-07
3.45069e-07
3.45071e-07
3.45061e-07
3.45062e-07
3.4505e-07
3.45051e-07
3.45038e-07
3.4504e-07
3.45025e-07
3.45031e-07
3.45016e-07
3.45027e-07
3.45015e-07
3.45035e-07
3.45025e-07
3.45056e-07
3.45037e-07
3.45066e-07
3.45022e-07
3.4503e-07
3.44945e-07
3.44914e-07
3.448e-07
3.44737e-07
3.44626e-07
3.44551e-07
3.44476e-07
3.44408e-07
3.44365e-07
3.44289e-07
3.44232e-07
3.44982e-07
3.44942e-07
3.4492e-07
3.44919e-07
3.44932e-07
3.4495e-07
3.44964e-07
3.44974e-07
3.44983e-07
3.44991e-07
3.44999e-07
3.45005e-07
3.45007e-07
3.45007e-07
3.45001e-07
3.4499e-07
3.44982e-07
3.44982e-07
3.44987e-07
3.44991e-07
3.44988e-07
3.4498e-07
3.44977e-07
3.44981e-07
3.44977e-07
3.44946e-07
3.44905e-07
3.44881e-07
3.44893e-07
3.44912e-07
3.44935e-07
3.44934e-07
3.44976e-07
3.4496e-07
3.45007e-07
3.45004e-07
3.45041e-07
3.4506e-07
3.45081e-07
3.45105e-07
3.45114e-07
3.45131e-07
3.45136e-07
3.45144e-07
3.45142e-07
3.45148e-07
3.45138e-07
3.4514e-07
3.45126e-07
3.45124e-07
3.45106e-07
3.45102e-07
3.45081e-07
3.45076e-07
3.45053e-07
3.4505e-07
3.45025e-07
3.45025e-07
3.45001e-07
3.45006e-07
3.44984e-07
3.44998e-07
3.44978e-07
3.45e-07
3.44976e-07
3.44995e-07
3.44957e-07
3.44956e-07
3.44891e-07
3.44849e-07
3.44769e-07
3.447e-07
3.44607e-07
3.4453e-07
3.44449e-07
3.44385e-07
3.44316e-07
3.44249e-07
3.4416e-07
3.44069e-07
3.44979e-07
3.44936e-07
3.44909e-07
3.44905e-07
3.44918e-07
3.44938e-07
3.44956e-07
3.44972e-07
3.44985e-07
3.44997e-07
3.45005e-07
3.45007e-07
3.45007e-07
3.45006e-07
3.45001e-07
3.44991e-07
3.44985e-07
3.44987e-07
3.44991e-07
3.44987e-07
3.44972e-07
3.44945e-07
3.44908e-07
3.44856e-07
3.44798e-07
3.44775e-07
3.4481e-07
3.44877e-07
3.44934e-07
3.44933e-07
3.44967e-07
3.44961e-07
3.44995e-07
3.45023e-07
3.45049e-07
3.45092e-07
3.45123e-07
3.45146e-07
3.45177e-07
3.45179e-07
3.45206e-07
3.45205e-07
3.45215e-07
3.45217e-07
3.45216e-07
3.45214e-07
3.45207e-07
3.45201e-07
3.45188e-07
3.45177e-07
3.45159e-07
3.45144e-07
3.45122e-07
3.45105e-07
3.45082e-07
3.45065e-07
3.45041e-07
3.45028e-07
3.45005e-07
3.45e-07
3.44978e-07
3.4498e-07
3.44957e-07
3.44964e-07
3.4493e-07
3.44942e-07
3.44872e-07
3.44885e-07
3.44774e-07
3.44774e-07
3.4465e-07
3.44611e-07
3.44491e-07
3.44429e-07
3.44337e-07
3.44238e-07
3.44168e-07
3.44051e-07
3.43967e-07
3.43849e-07
3.44976e-07
3.44933e-07
3.44901e-07
3.44892e-07
3.44903e-07
3.44925e-07
3.44948e-07
3.44969e-07
3.44987e-07
3.45002e-07
3.4501e-07
3.45009e-07
3.45007e-07
3.45006e-07
3.45003e-07
3.44995e-07
3.4499e-07
3.44989e-07
3.44986e-07
3.44974e-07
3.44955e-07
3.44931e-07
3.44904e-07
3.44886e-07
3.449e-07
3.44948e-07
3.4499e-07
3.45002e-07
3.44954e-07
3.44994e-07
3.44976e-07
3.45052e-07
3.45052e-07
3.45116e-07
3.45142e-07
3.45165e-07
3.45178e-07
3.45195e-07
3.45193e-07
3.45216e-07
3.45197e-07
3.45211e-07
3.45209e-07
3.45214e-07
3.45217e-07
3.45216e-07
3.45217e-07
3.45208e-07
3.45206e-07
3.45188e-07
3.45181e-07
3.45155e-07
3.45143e-07
3.45113e-07
3.45099e-07
3.45065e-07
3.45054e-07
3.45016e-07
3.45014e-07
3.44972e-07
3.44981e-07
3.44933e-07
3.4495e-07
3.44884e-07
3.44913e-07
3.44806e-07
3.44861e-07
3.44717e-07
3.44733e-07
3.44602e-07
3.4458e-07
3.44447e-07
3.44449e-07
3.44255e-07
3.4419e-07
3.44107e-07
3.44016e-07
3.43952e-07
3.43844e-07
3.43778e-07
3.44973e-07
3.44932e-07
3.44896e-07
3.44882e-07
3.44891e-07
3.44914e-07
3.4494e-07
3.44966e-07
3.4499e-07
3.45008e-07
3.45015e-07
3.45011e-07
3.45004e-07
3.45002e-07
3.45e-07
3.4499e-07
3.44982e-07
3.44979e-07
3.44976e-07
3.44969e-07
3.44961e-07
3.44951e-07
3.4495e-07
3.44963e-07
3.44978e-07
3.44959e-07
3.44912e-07
3.44861e-07
3.44942e-07
3.44996e-07
3.45129e-07
3.45115e-07
3.4517e-07
3.4515e-07
3.45096e-07
3.45115e-07
3.45084e-07
3.45058e-07
3.45051e-07
3.4502e-07
3.45037e-07
3.45021e-07
3.45038e-07
3.45057e-07
3.45075e-07
3.45097e-07
3.45111e-07
3.45131e-07
3.45133e-07
3.45144e-07
3.45134e-07
3.45131e-07
3.45108e-07
3.45095e-07
3.45066e-07
3.45049e-07
3.45015e-07
3.45002e-07
3.4496e-07
3.44956e-07
3.44906e-07
3.44906e-07
3.44847e-07
3.44856e-07
3.4477e-07
3.44813e-07
3.44681e-07
3.44681e-07
3.44559e-07
3.44529e-07
3.44397e-07
3.44526e-07
3.44057e-07
3.44273e-07
3.44033e-07
3.44e-07
3.43953e-07
3.43872e-07
3.43818e-07
3.43781e-07
3.44977e-07
3.44936e-07
3.44895e-07
3.44875e-07
3.44882e-07
3.44905e-07
3.44934e-07
3.44965e-07
3.44993e-07
3.45014e-07
3.4502e-07
3.45012e-07
3.45002e-07
3.44998e-07
3.44994e-07
3.44984e-07
3.44976e-07
3.44975e-07
3.44974e-07
3.44966e-07
3.44948e-07
3.44925e-07
3.449e-07
3.44878e-07
3.44843e-07
3.44826e-07
3.44857e-07
3.45019e-07
3.45127e-07
3.45259e-07
3.45214e-07
3.4526e-07
3.45158e-07
3.44891e-07
3.44902e-07
3.44787e-07
3.44759e-07
3.4471e-07
3.44673e-07
3.44678e-07
3.44642e-07
3.44654e-07
3.44677e-07
3.44732e-07
3.44746e-07
3.44837e-07
3.44862e-07
3.4493e-07
3.44976e-07
3.45014e-07
3.4505e-07
3.45053e-07
3.45052e-07
3.45024e-07
3.45002e-07
3.44968e-07
3.44946e-07
3.44906e-07
3.44893e-07
3.44844e-07
3.44825e-07
3.44786e-07
3.44761e-07
3.44712e-07
3.44699e-07
3.44589e-07
3.44625e-07
3.44419e-07
3.44447e-07
3.44209e-07
3.44415e-07
3.437e-07
3.44556e-07
3.43931e-07
3.44119e-07
3.44044e-07
3.43907e-07
3.4386e-07
3.43834e-07
3.43778e-07
3.44983e-07
3.44941e-07
3.44895e-07
3.44871e-07
3.44876e-07
3.44898e-07
3.4493e-07
3.44964e-07
3.44997e-07
3.4502e-07
3.45026e-07
3.45015e-07
3.45001e-07
3.44997e-07
3.44994e-07
3.44986e-07
3.4498e-07
3.4498e-07
3.44976e-07
3.4496e-07
3.44933e-07
3.449e-07
3.44867e-07
3.44838e-07
3.44852e-07
3.4493e-07
3.45105e-07
3.45206e-07
3.45303e-07
3.45163e-07
3.45139e-07
3.4493e-07
3.44616e-07
3.44556e-07
3.44544e-07
3.44436e-07
3.44398e-07
3.44368e-07
3.44347e-07
3.44324e-07
3.44315e-07
3.44292e-07
3.44272e-07
3.44349e-07
3.44368e-07
3.44427e-07
3.44512e-07
3.44578e-07
3.44674e-07
3.44768e-07
3.44874e-07
3.4493e-07
3.44953e-07
3.44929e-07
3.44899e-07
3.44866e-07
3.44799e-07
3.44782e-07
3.44715e-07
3.44688e-07
3.44649e-07
3.44601e-07
3.44583e-07
3.44518e-07
3.44446e-07
3.44462e-07
3.44203e-07
3.44281e-07
3.43856e-07
3.43949e-07
3.43222e-07
3.44182e-07
3.43538e-07
3.44211e-07
3.44184e-07
3.44208e-07
3.44207e-07
3.44133e-07
3.4398e-07
3.43957e-07
3.44989e-07
3.44947e-07
3.44898e-07
3.44871e-07
3.44873e-07
3.44895e-07
3.44928e-07
3.44965e-07
3.45001e-07
3.45026e-07
3.45031e-07
3.45018e-07
3.45003e-07
3.44999e-07
3.45e-07
3.44996e-07
3.44992e-07
3.44989e-07
3.44978e-07
3.44953e-07
3.44927e-07
3.44913e-07
3.44918e-07
3.44958e-07
3.45034e-07
3.45143e-07
3.45194e-07
3.4522e-07
3.45038e-07
3.44919e-07
3.44674e-07
3.44849e-07
3.45028e-07
3.44761e-07
3.44632e-07
3.4451e-07
3.44539e-07
3.44538e-07
3.44524e-07
3.445e-07
3.44438e-07
3.44354e-07
3.44212e-07
3.44146e-07
3.44169e-07
3.44131e-07
3.44183e-07
3.44196e-07
3.44264e-07
3.44362e-07
3.44536e-07
3.44699e-07
3.44804e-07
3.44833e-07
3.44842e-07
3.44736e-07
3.44702e-07
3.44587e-07
3.44529e-07
3.44451e-07
3.44411e-07
3.4438e-07
3.44322e-07
3.44286e-07
3.44241e-07
3.44083e-07
3.44059e-07
3.4376e-07
3.43675e-07
3.4314e-07
3.43461e-07
3.42902e-07
3.43751e-07
3.43884e-07
3.44176e-07
3.44177e-07
3.44315e-07
3.44404e-07
3.44347e-07
3.44108e-07
3.44998e-07
3.44956e-07
3.44903e-07
3.44873e-07
3.44872e-07
3.44894e-07
3.44927e-07
3.44966e-07
3.45004e-07
3.45031e-07
3.45037e-07
3.45022e-07
3.45006e-07
3.45001e-07
3.45002e-07
3.44997e-07
3.44989e-07
3.4498e-07
3.44964e-07
3.44946e-07
3.4494e-07
3.44954e-07
3.44983e-07
3.45026e-07
3.45077e-07
3.45131e-07
3.45133e-07
3.45051e-07
3.44965e-07
3.44791e-07
3.44728e-07
3.44728e-07
3.44719e-07
3.44895e-07
3.44714e-07
3.44553e-07
3.44576e-07
3.44601e-07
3.44606e-07
3.44582e-07
3.44521e-07
3.44433e-07
3.44315e-07
3.44215e-07
3.44169e-07
3.44128e-07
3.44125e-07
3.44081e-07
3.44017e-07
3.44022e-07
3.44122e-07
3.44304e-07
3.44536e-07
3.44712e-07
3.44702e-07
3.44713e-07
3.44616e-07
3.44464e-07
3.44328e-07
3.44278e-07
3.44194e-07
3.44183e-07
3.44124e-07
3.44127e-07
3.44029e-07
3.43971e-07
3.43878e-07
3.43758e-07
3.43609e-07
3.43471e-07
3.43252e-07
3.4356e-07
3.43766e-07
3.43831e-07
3.43995e-07
3.43774e-07
3.43993e-07
3.44191e-07
3.44205e-07
3.44078e-07
3.45009e-07
3.44965e-07
3.44909e-07
3.44876e-07
3.44874e-07
3.44894e-07
3.44926e-07
3.44966e-07
3.45007e-07
3.45036e-07
3.45041e-07
3.45025e-07
3.45007e-07
3.45e-07
3.44999e-07
3.4499e-07
3.44978e-07
3.44967e-07
3.44958e-07
3.4495e-07
3.44947e-07
3.44943e-07
3.44944e-07
3.44955e-07
3.45007e-07
3.4503e-07
3.45048e-07
3.4501e-07
3.44956e-07
3.44779e-07
3.44513e-07
3.44313e-07
3.44337e-07
3.44369e-07
3.44558e-07
3.44618e-07
3.4465e-07
3.44662e-07
3.44653e-07
3.4462e-07
3.44563e-07
3.44487e-07
3.44396e-07
3.44306e-07
3.44237e-07
3.4418e-07
3.4414e-07
3.44118e-07
3.44081e-07
3.44061e-07
3.44009e-07
3.43989e-07
3.4422e-07
3.4445e-07
3.44634e-07
3.44684e-07
3.44577e-07
3.44407e-07
3.44243e-07
3.44097e-07
3.44077e-07
3.44016e-07
3.44008e-07
3.43957e-07
3.43961e-07
3.43968e-07
3.43876e-07
3.4389e-07
3.43787e-07
3.43722e-07
3.43656e-07
3.43804e-07
3.43716e-07
3.43845e-07
3.43762e-07
3.43837e-07
3.43928e-07
3.44019e-07
3.44056e-07
3.4403e-07
3.45014e-07
3.44968e-07
3.44913e-07
3.4488e-07
3.44877e-07
3.44895e-07
3.44926e-07
3.44966e-07
3.45008e-07
3.45038e-07
3.45044e-07
3.45027e-07
3.45007e-07
3.45e-07
3.44997e-07
3.44986e-07
3.44971e-07
3.44962e-07
3.4496e-07
3.44962e-07
3.44957e-07
3.44946e-07
3.44936e-07
3.44954e-07
3.45013e-07
3.45095e-07
3.45175e-07
3.45132e-07
3.44945e-07
3.44659e-07
3.44401e-07
3.4443e-07
3.44513e-07
3.44551e-07
3.44673e-07
3.44713e-07
3.44722e-07
3.44712e-07
3.44689e-07
3.4465e-07
3.44596e-07
3.44532e-07
3.44462e-07
3.4439e-07
3.44324e-07
3.44262e-07
3.44206e-07
3.44165e-07
3.44129e-07
3.44099e-07
3.4406e-07
3.43972e-07
3.43961e-07
3.44097e-07
3.44295e-07
3.44431e-07
3.44559e-07
3.44486e-07
3.44165e-07
3.44085e-07
3.44019e-07
3.43911e-07
3.43879e-07
3.43846e-07
3.43852e-07
3.43862e-07