/*--------------------------------*- C++ -*----------------------------------*\
  =========                 |
  \\      /  F ield         | OpenFOAM: The Open Source CFD Toolbox
   \\    /   O peration     | Website:  https://openfoam.org
    \\  /    A nd           | Version:  7
     \\/     M anipulation  |
\*---------------------------------------------------------------------------*/
FoamFile
{
    version     2.0;
    format      ascii;
    class       surfaceScalarField;
    location    "10";
    object      phi;
}
// * * * * * * * * * * * * * * * * * * * * * * * * * * * * * * * * * * * * * //

dimensions      [0 3 -1 0 0 0 0];

internalField   nonuniform List<scalar> 
99520
(
-6.77109e-09
2.62358e-10
1.38718e-08
-4.49231e-09
5.08423e-09
-2.37727e-09
5.24796e-09
-1.26501e-09
6.25074e-09
1.11971e-10
5.98602e-09
-2.30426e-09
9.77923e-09
-5.52629e-10
5.61137e-09
-2.87661e-10
7.09803e-09
6.14276e-10
6.46106e-09
4.55334e-10
7.52194e-09
3.04363e-10
7.51397e-09
1.46637e-09
6.20099e-09
2.70742e-09
6.12195e-09
4.88825e-09
5.18217e-09
7.32245e-09
4.9288e-09
1.43362e-08
3.49207e-10
1.02526e-08
1.14467e-08
6.27509e-09
1.13406e-08
3.14999e-09
1.04882e-08
1.37706e-09
9.13606e-09
6.04598e-10
8.13553e-09
2.78039e-10
7.68965e-09
1.15712e-10
7.52535e-09
2.24725e-11
7.45628e-09
-3.71935e-11
7.42264e-09
-7.89108e-11
7.40469e-09
-1.10412e-10
7.39441e-09
-1.35632e-10
7.38812e-09
-1.5674e-10
7.38398e-09
-1.74946e-10
7.38107e-09
-1.90964e-10
7.37893e-09
-2.05239e-10
7.37719e-09
-2.18029e-10
7.37574e-09
-2.29508e-10
7.37442e-09
-2.39738e-10
7.37321e-09
-2.48767e-10
7.37202e-09
-2.56613e-10
7.37088e-09
-2.63308e-10
7.36973e-09
-2.6887e-10
7.3686e-09
-2.73307e-10
7.36747e-09
-2.76633e-10
7.36638e-09
-2.78875e-10
7.3653e-09
-2.80072e-10
7.36427e-09
-2.80282e-10
7.36328e-09
-2.79548e-10
7.36236e-09
-2.77941e-10
7.36148e-09
-2.75507e-10
7.36069e-09
-2.72307e-10
7.36002e-09
-2.68505e-10
7.35942e-09
-2.64106e-10
7.35889e-09
-2.59342e-10
7.35848e-09
-2.54146e-10
7.35812e-09
-2.4878e-10
7.35784e-09
-2.43063e-10
7.35763e-09
-2.37395e-10
7.35742e-09
-2.31389e-10
7.35745e-09
-2.25565e-10
7.35741e-09
-2.19603e-10
7.35751e-09
-2.14021e-10
7.35749e-09
-2.08202e-10
7.35777e-09
-2.02971e-10
7.35774e-09
-1.97456e-10
7.35817e-09
-1.92792e-10
7.35806e-09
-1.87637e-10
7.35867e-09
-1.83568e-10
7.35845e-09
-1.78931e-10
7.3592e-09
-1.75683e-10
7.35881e-09
-1.71596e-10
7.35972e-09
-1.69031e-10
7.35916e-09
-1.65549e-10
7.36017e-09
-1.63741e-10
7.35945e-09
-1.60831e-10
7.36049e-09
-1.59383e-10
7.3597e-09
-1.5687e-10
7.36063e-09
-1.55458e-10
7.35985e-09
-1.532e-10
7.36046e-09
-1.51294e-10
7.35992e-09
-1.49227e-10
7.35994e-09
-1.46548e-10
7.35986e-09
7.35931e-09
-1.44689e-10
-3.92816e-09
-1.28488e-09
5.47553e-09
-2.903e-09
4.05911e-09
-2.48776e-09
4.83273e-09
-2.1978e-09
5.96078e-09
-2.18636e-09
5.97458e-09
-1.18543e-09
8.77832e-09
-1.50587e-11
4.441e-09
2.25441e-10
6.85754e-09
-5.867e-10
7.2732e-09
3.71391e-10
6.56385e-09
1.43346e-09
6.4519e-09
1.9851e-09
5.64935e-09
3.06736e-09
5.0397e-09
4.42735e-09
3.82218e-09
4.65086e-09
4.70529e-09
5.60303e-09
-6.02976e-10
1.12882e-08
5.76151e-09
9.91014e-09
1.27187e-08
6.48446e-09
1.3914e-08
3.5895e-09
1.20311e-08
1.81613e-09
9.90899e-09
8.68676e-10
8.63714e-09
3.61919e-10
8.03216e-09
6.91134e-11
7.74907e-09
-1.17235e-10
7.60897e-09
-2.46767e-10
7.53415e-09
-3.4394e-10
7.4915e-09
-4.21417e-10
7.46547e-09
-4.8603e-10
7.44845e-09
-5.41643e-10
7.43662e-09
-5.90601e-10
7.42776e-09
-6.34184e-10
7.42077e-09
-6.73288e-10
7.41478e-09
-7.08324e-10
7.40948e-09
-7.39621e-10
7.40448e-09
-7.67246e-10
7.39973e-09
-7.91341e-10
7.39502e-09
-8.1191e-10
7.39041e-09
-8.29042e-10
7.3858e-09
-8.42725e-10
7.38128e-09
-8.53065e-10
7.3768e-09
-8.60096e-10
7.37248e-09
-8.63992e-10
7.36828e-09
-8.64851e-10
7.3643e-09
-8.62914e-10
7.36053e-09
-8.5831e-10
7.35707e-09
-8.5133e-10
7.35395e-09
-8.4215e-10
7.35117e-09
-8.31107e-10
7.34871e-09
-8.18377e-10
7.34655e-09
-8.04335e-10
7.34475e-09
-7.89179e-10
7.3433e-09
-7.73143e-10
7.34215e-09
-7.5655e-10
7.34125e-09
-7.3936e-10
7.34095e-09
-7.22087e-10
7.34052e-09
-7.04693e-10
7.34057e-09
-6.87575e-10
7.34056e-09
-6.70464e-10
7.34105e-09
-6.54024e-10
7.34131e-09
-6.37566e-10
7.34217e-09
-6.22245e-10
7.34253e-09
-6.0676e-10
7.34363e-09
-5.92769e-10
7.34401e-09
-5.78332e-10
7.34528e-09
-5.6588e-10
7.34553e-09
-5.5266e-10
7.34686e-09
-5.41699e-10
7.34695e-09
-5.29525e-10
7.34829e-09
-5.19931e-10
7.34816e-09
-5.08811e-10
7.34935e-09
-5.00215e-10
7.34905e-09
-4.89791e-10
7.35e-09
-4.81592e-10
7.34959e-09
-4.71662e-10
7.35007e-09
-4.63145e-10
7.34965e-09
-4.5339e-10
7.34941e-09
-4.43831e-10
7.34908e-09
-4.3365e-10
7.34821e-09
7.34757e-09
-4.22697e-10
-1.76627e-09
-1.86889e-09
2.35047e-09
-6.72278e-11
2.36015e-09
-3.3951e-09
8.16064e-09
-2.1067e-09
4.6724e-09
-2.25229e-09
6.12018e-09
-1.69287e-10
6.69532e-09
-1.94568e-10
4.46628e-09
2.93037e-10
6.36994e-09
-1.03867e-09
8.60492e-09
-1.72087e-11
5.5424e-09
1.16179e-09
5.27291e-09
2.0234e-09
4.78775e-09
3.0805e-09
3.98261e-09
3.94167e-09
2.96102e-09
5.01474e-09
3.63217e-09
4.72992e-09
-3.18209e-10
6.55903e-09
3.93242e-09
7.77735e-09
1.15005e-08
6.6281e-09
1.50634e-08
4.43495e-09
1.42243e-08
2.5117e-09
1.18323e-08
1.25422e-09
9.89466e-09
5.09051e-10
8.77735e-09
5.54412e-11
8.20268e-09
-2.41745e-10
7.9061e-09
-4.52194e-10
7.74452e-09
-6.12188e-10
7.65137e-09
-7.40981e-10
7.59412e-09
-8.49091e-10
7.55656e-09
-9.42777e-10
7.53018e-09
-1.02542e-09
7.51045e-09
-1.09934e-09
7.4946e-09
-1.1656e-09
7.48113e-09
-1.22515e-09
7.46898e-09
-1.27818e-09
7.45764e-09
-1.32511e-09
7.44668e-09
-1.36585e-09
7.43595e-09
-1.40066e-09
7.4253e-09
-1.42944e-09
7.41476e-09
-1.4524e-09
7.40432e-09
-1.46952e-09
7.3941e-09
-1.48106e-09
7.38412e-09
-1.48714e-09
7.37454e-09
-1.48814e-09
7.3654e-09
-1.48427e-09
7.35687e-09
-1.47599e-09
7.34899e-09
-1.46357e-09
7.34186e-09
-1.44757e-09
7.33549e-09
-1.42829e-09
7.32981e-09
-1.40639e-09
7.32495e-09
-1.38215e-09
7.32083e-09
-1.35619e-09
7.31765e-09
-1.32861e-09
7.31506e-09
-1.30019e-09
7.31332e-09
-1.271e-09
7.31213e-09
-1.24159e-09
7.3116e-09
-1.21212e-09
7.31146e-09
-1.18292e-09
7.31191e-09
-1.15421e-09
7.31263e-09
-1.12605e-09
7.31382e-09
-1.0988e-09
7.31512e-09
-1.07228e-09
7.31673e-09
-1.04701e-09
7.31838e-09
-1.02239e-09
7.32018e-09
-9.99266e-10
7.32195e-09
-9.76724e-10
7.32366e-09
-9.5583e-10
7.32535e-09
-9.35206e-10
7.32682e-09
-9.16241e-10
7.32832e-09
-8.97296e-10
7.32933e-09
-8.79909e-10
7.33049e-09
-8.6215e-10
7.33096e-09
-8.45607e-10
7.33173e-09
-8.28424e-10
7.33155e-09
-8.11925e-10
7.33179e-09
-7.94666e-10
7.33089e-09
-7.77303e-10
7.33046e-09
-7.58957e-10
7.32908e-09
-7.39998e-10
7.32767e-09
7.32569e-09
-7.19728e-10
-7.80875e-10
-1.44614e-09
3.58322e-10
-1.30524e-09
2.88469e-09
-1.43808e-09
8.29374e-09
-4.52828e-11
3.27967e-09
-6.67064e-12
6.08165e-09
1.61576e-11
6.6725e-09
-9.53986e-12
4.49205e-09
-6.5201e-11
6.42562e-09
-2.95734e-09
1.14971e-08
-1.82871e-10
2.76793e-09
1.04413e-10
4.98564e-09
7.4464e-10
4.14752e-09
2.30583e-09
2.42142e-09
2.96586e-09
2.30086e-09
3.64372e-09
2.95432e-09
2.74587e-09
5.79609e-10
3.45225e-09
3.22616e-09
5.04332e-09
9.90948e-09
5.29837e-09
1.48085e-08
4.13616e-09
1.53866e-08
2.57225e-09
1.33963e-08
1.31553e-09
1.11514e-08
4.77854e-10
9.61508e-09
-6.82082e-11
8.74866e-09
-4.41551e-10
8.27942e-09
-7.14767e-10
8.01759e-09
-9.27888e-10
7.8644e-09
-1.10289e-09
7.76908e-09
-1.25217e-09
7.70586e-09
-1.38284e-09
7.6609e-09
-1.49919e-09
7.62683e-09
-1.60365e-09
7.59909e-09
-1.69775e-09
7.57527e-09
-1.7823e-09
7.55356e-09
-1.85775e-09
7.53319e-09
-1.92433e-09
7.51334e-09
-1.98213e-09
7.49391e-09
-2.03124e-09
7.47453e-09
-2.07169e-09
7.45539e-09
-2.10363e-09
7.43638e-09
-2.12716e-09
7.4178e-09
-2.14259e-09
7.39966e-09
-2.15016e-09
7.38229e-09
-2.15038e-09
7.36576e-09
-2.14365e-09
7.35036e-09
-2.13054e-09
7.33613e-09
-2.11163e-09
7.32321e-09
-2.08753e-09
7.31167e-09
-2.05898e-09
7.30154e-09
-2.02662e-09
7.29283e-09
-1.99115e-09
7.28563e-09
-1.95298e-09
7.2799e-09
-1.91302e-09
7.27541e-09
-1.8717e-09
7.27229e-09
-1.82953e-09
7.27033e-09
-1.78699e-09
7.26946e-09
-1.74459e-09
7.26943e-09
-1.70252e-09
7.27035e-09
-1.66136e-09
7.2718e-09
-1.62095e-09
7.27405e-09
-1.58203e-09
7.27644e-09
-1.54407e-09
7.27953e-09
-1.50804e-09
7.28239e-09
-1.4729e-09
7.28591e-09
-1.44002e-09
7.28877e-09
-1.40778e-09
7.29232e-09
-1.37802e-09
7.29482e-09
-1.34844e-09
7.29809e-09
-1.3214e-09
7.29994e-09
-1.29401e-09
7.30262e-09
-1.26904e-09
7.30359e-09
-1.24312e-09
7.30542e-09
-1.21923e-09
7.30542e-09
-1.19394e-09
7.30612e-09
-1.16999e-09
7.30512e-09
-1.1444e-09
7.30443e-09
-1.11897e-09
7.30261e-09
-1.09191e-09
7.30045e-09
-1.0638e-09
7.29768e-09
7.29426e-09
-1.03421e-09
-1.12107e-09
-6.56655e-10
3.31361e-10
-5.56788e-10
2.32061e-09
1.42428e-09
6.31279e-09
1.11588e-09
3.58841e-09
1.01749e-09
6.18007e-09
9.00169e-10
6.79015e-09
3.90836e-10
5.00145e-09
-7.60246e-10
7.57703e-09
-7.85406e-10
1.15223e-08
-4.83787e-11
2.03103e-09
8.50051e-12
4.92875e-09
2.06586e-11
4.13546e-09
9.79161e-10
1.4628e-09
1.41055e-09
1.8696e-09
2.47295e-09
1.89183e-09
2.00294e-09
1.04988e-09
1.89424e-09
3.33488e-09
2.91439e-09
8.88962e-09
3.60911e-09
1.41139e-08
3.20778e-09
1.57881e-08
2.14814e-09
1.44559e-08
1.077e-09
1.22227e-08
2.60763e-10
1.04312e-08
-3.15418e-10
9.32492e-09
-7.30289e-10
8.69411e-09
-1.04614e-09
8.33343e-09
-1.30081e-09
8.11889e-09
-1.51537e-09
7.98378e-09
-1.70222e-09
7.89267e-09
-1.8681e-09
7.82703e-09
-2.0175e-09
7.7761e-09
-2.15244e-09
7.73421e-09
-2.27469e-09
7.69737e-09
-2.3846e-09
7.66367e-09
-2.48292e-09
7.63141e-09
-2.5694e-09
7.60008e-09
-2.64447e-09
7.56894e-09
-2.70776e-09
7.53811e-09
-2.7597e-09
7.50732e-09
-2.80005e-09
7.47702e-09
-2.82939e-09
7.44714e-09
-2.84772e-09
7.41826e-09
-2.85581e-09
7.39044e-09
-2.85396e-09
7.36424e-09
-2.84311e-09
7.33963e-09
-2.82375e-09
7.31706e-09
-2.79693e-09
7.29655e-09
-2.76333e-09
7.27832e-09
-2.72409e-09
7.26246e-09
-2.67976e-09
7.24887e-09
-2.63158e-09
7.23769e-09
-2.58008e-09
7.2287e-09
-2.52642e-09
7.22196e-09
-2.47099e-09
7.21719e-09
-2.41477e-09
7.21439e-09
-2.35811e-09
7.21317e-09
-2.30179e-09
7.21353e-09
-2.24613e-09
7.21506e-09
-2.19158e-09
7.21778e-09
-2.13849e-09
7.22128e-09
-2.08696e-09
7.22557e-09
-2.03745e-09
7.23026e-09
-1.98965e-09
7.23535e-09
-1.94424e-09
7.24053e-09
-1.9004e-09
7.24574e-09
-1.85915e-09
7.25079e-09
-1.8191e-09
7.25552e-09
-1.78164e-09
7.25994e-09
-1.74482e-09
7.2637e-09
-1.71043e-09
7.26704e-09
-1.67601e-09
7.26937e-09
-1.64355e-09
7.27132e-09
-1.61041e-09
7.27188e-09
-1.57852e-09
7.2722e-09
-1.54545e-09
7.27077e-09
-1.51251e-09
7.26934e-09
-1.47801e-09
7.26609e-09
-1.44235e-09
7.26276e-09
-1.40475e-09
7.25804e-09
7.25286e-09
-1.36515e-09
-1.48289e-09
1.63574e-10
6.63014e-10
-1.00741e-09
1.84516e-09
9.80069e-10
4.32554e-09
8.35091e-10
3.73347e-09
1.13255e-09
5.88285e-09
1.29654e-09
6.62621e-09
8.13417e-10
5.48487e-09
6.52224e-10
7.73823e-09
1.3072e-09
1.08676e-08
-1.07657e-10
3.44592e-09
-5.31136e-10
5.35247e-09
-7.9658e-10
4.40088e-09
-8.34147e-10
1.50061e-09
2.44447e-10
7.90969e-10
1.32301e-09
8.13487e-10
1.18107e-09
1.19187e-09
9.10181e-10
3.60601e-09
1.36599e-09
8.43391e-09
2.00038e-09
1.34797e-08
2.00979e-09
1.57788e-08
1.40086e-09
1.5065e-08
5.92718e-10
1.30307e-08
-1.25429e-10
1.11494e-08
-6.82111e-10
9.88147e-09
-1.1096e-09
9.12161e-09
-1.45124e-09
8.67487e-09
-1.73702e-09
8.40471e-09
-1.98525e-09
8.23192e-09
-2.20599e-09
8.11363e-09
-2.40556e-09
8.02648e-09
-2.58698e-09
7.95768e-09
-2.75252e-09
7.89959e-09
-2.90282e-09
7.84781e-09
-3.03867e-09
7.79939e-09
-3.15984e-09
7.75277e-09
-3.26663e-09
7.70681e-09
-3.35861e-09
7.66116e-09
-3.43603e-09
7.61553e-09
-3.49862e-09
7.57018e-09
-3.5468e-09
7.52523e-09
-3.58064e-09
7.48124e-09
-3.60079e-09
7.43853e-09
-3.60764e-09
7.39775e-09
-3.60235e-09
7.35902e-09
-3.58539e-09
7.32309e-09
-3.55824e-09
7.28991e-09
-3.5215e-09
7.2602e-09
-3.47677e-09
7.23369e-09
-3.42472e-09
7.21077e-09
-3.36697e-09
7.19126e-09
-3.30428e-09
7.17529e-09
-3.23805e-09
7.16264e-09
-3.169e-09
7.15322e-09
-3.09835e-09
7.14675e-09
-3.02661e-09
7.14306e-09
-2.95493e-09
7.14174e-09
-2.88354e-09
7.14268e-09
-2.81352e-09
7.1453e-09
-2.74473e-09
7.14971e-09
-2.67829e-09
7.15505e-09
-2.6136e-09
7.16177e-09
-2.55192e-09
7.16866e-09
-2.49214e-09
7.17666e-09
-2.43577e-09
7.18399e-09
-2.38111e-09
7.19231e-09
-2.33002e-09
7.19916e-09
-2.28018e-09
7.207e-09
-2.23385e-09
7.21254e-09
-2.18807e-09
7.21917e-09
-2.14553e-09
7.22274e-09
-2.10266e-09
7.22755e-09
-2.06247e-09
7.22862e-09
-2.02103e-09
7.23107e-09
-1.98149e-09
7.22937e-09
-1.93981e-09
7.22906e-09
-1.89884e-09
7.22486e-09
-1.8553e-09
7.22132e-09
-1.81061e-09
7.21536e-09
-1.76314e-09
7.20849e-09
7.20084e-09
-1.71274e-09
-1.40929e-09
8.30439e-10
7.42497e-10
-1.26853e-09
1.70461e-09
-1.73057e-10
3.23021e-09
-4.32453e-11
3.60389e-09
5.18791e-10
5.32091e-09
1.02991e-09
6.11525e-09
5.71077e-10
5.94386e-09
7.33406e-10
7.57604e-09
2.19708e-09
9.40404e-09
4.86349e-10
5.1568e-09
2.86807e-10
5.55209e-09
4.69188e-10
4.21862e-09
3.27511e-10
1.64239e-09
5.68626e-10
5.49952e-10
8.42348e-10
5.39803e-10
5.78705e-10
1.45561e-09
1.5745e-10
4.02735e-09
1.97471e-10
8.394e-09
5.97579e-10
1.30797e-08
7.57548e-10
1.56189e-08
4.70897e-10
1.53517e-08
-7.87326e-11
1.35804e-08
-6.55573e-10
1.17262e-08
-1.15884e-09
1.03847e-08
-1.57732e-09
9.53998e-09
-1.93137e-09
9.02883e-09
-2.24055e-09
8.7138e-09
-2.51757e-09
8.50895e-09
-2.76988e-09
8.36591e-09
-3.00155e-09
8.25817e-09
-3.21482e-09
8.1709e-09
-3.41068e-09
8.09546e-09
-3.58954e-09
8.02663e-09
-3.7513e-09
7.9612e-09
-3.89574e-09
7.89724e-09
-4.0225e-09
7.83368e-09
-4.13131e-09
7.77005e-09
-4.22197e-09
7.70634e-09
-4.29447e-09
7.64281e-09
-4.34901e-09
7.57995e-09
-4.38594e-09
7.51841e-09
-4.40582e-09
7.45891e-09
-4.40981e-09
7.40188e-09
-4.39851e-09
7.34828e-09
-4.37372e-09
7.29822e-09
-4.33596e-09
7.25286e-09
-4.28741e-09
7.21164e-09
-4.22888e-09
7.17554e-09
-4.16219e-09
7.14424e-09
-4.08866e-09
7.118e-09
-4.00975e-09
7.09657e-09
-3.9267e-09
7.07989e-09
-3.84082e-09
7.06758e-09
-3.75313e-09
7.05945e-09
-3.66481e-09
7.05499e-09
-3.57652e-09
7.054e-09
-3.48939e-09
7.05578e-09
-3.40359e-09
7.0603e-09
-3.32036e-09
7.06659e-09
-3.23917e-09
7.075e-09
-3.16159e-09
7.08411e-09
-3.08626e-09
7.09487e-09
-3.0153e-09
7.10523e-09
-2.94629e-09
7.11696e-09
-2.88214e-09
7.12719e-09
-2.81925e-09
7.13867e-09
-2.76154e-09
7.14754e-09
-2.70401e-09
7.15772e-09
-2.6517e-09
7.16421e-09
-2.5983e-09
7.17216e-09
-2.54985e-09
7.17542e-09
-2.49892e-09
7.18032e-09
-2.45227e-09
7.17981e-09
-2.40186e-09
7.18103e-09
-2.35441e-09
7.1768e-09
-2.3029e-09
7.17363e-09
-2.25176e-09
7.16657e-09
-2.19699e-09
7.15837e-09
-2.13928e-09
7.14862e-09
7.13745e-09
-2.07759e-09
-1.14793e-09
1.31187e-09
6.66647e-10
-1.12397e-09
1.68082e-09
-5.86021e-10
2.69241e-09
-4.66886e-10
3.48491e-09
4.45332e-11
4.80961e-09
4.70642e-10
5.68929e-09
2.92473e-10
6.12222e-09
5.66581e-10
7.30208e-09
1.72437e-09
8.24636e-09
8.71516e-10
6.00982e-09
1.10304e-09
5.32063e-09
1.42289e-09
3.89881e-09
1.13114e-09
1.9342e-09
8.56864e-10
8.24226e-10
5.94285e-10
8.02398e-10
9.67046e-11
1.95321e-09
-4.79567e-10
4.60365e-09
-7.53621e-10
8.66809e-09
-6.11835e-10
1.2938e-08
-4.38228e-10
1.54453e-08
-5.25598e-10
1.5439e-08
-8.59117e-10
1.39139e-08
-1.29761e-09
1.21647e-08
-1.73194e-09
1.08189e-08
-2.12801e-09
9.93595e-09
-2.486e-09
9.38672e-09
-2.81351e-09
9.04123e-09
-3.11665e-09
8.81203e-09
-3.39907e-09
8.6483e-09
-3.66251e-09
8.52159e-09
-3.90762e-09
8.41598e-09
-4.13426e-09
8.3221e-09
-4.34198e-09
8.23436e-09
-4.53004e-09
8.1493e-09
-4.69771e-09
8.06497e-09
-4.84424e-09
7.98031e-09
-4.96914e-09
7.89507e-09
-5.07206e-09
7.8094e-09
-5.15297e-09
7.72389e-09
-5.21206e-09
7.63933e-09
-5.24979e-09
7.55666e-09
-5.26734e-09
7.47666e-09
-5.26537e-09
7.40059e-09
-5.246e-09
7.32878e-09
-5.20972e-09
7.26285e-09
-5.15917e-09
7.20228e-09
-5.09547e-09
7.14838e-09
-5.02073e-09
7.10099e-09
-4.93662e-09
7.06044e-09
-4.84497e-09
7.02657e-09
-4.74742e-09
6.99929e-09
-4.64553e-09
6.97828e-09
-4.54079e-09
6.96317e-09
-4.43451e-09
6.9535e-09
-4.32786e-09
6.9488e-09
-4.22194e-09
6.94843e-09
-4.11748e-09
6.95199e-09
-4.01554e-09
6.95864e-09
-3.9162e-09
6.96824e-09
-3.82068e-09
6.97962e-09
-3.72827e-09
6.9931e-09
-3.64061e-09
7.00707e-09
-3.55598e-09
7.02249e-09
-3.47669e-09
7.03708e-09
-3.39982e-09
7.05273e-09
-3.32868e-09
7.06624e-09
-3.25887e-09
7.08063e-09
-3.19491e-09
7.09157e-09
-3.13084e-09
7.10336e-09
-3.07252e-09
7.11048e-09
-3.01233e-09
7.11856e-09
-2.95737e-09
7.1209e-09
-2.89877e-09
7.12431e-09
-2.84425e-09
7.12148e-09
-2.78513e-09
7.11933e-09
-2.72768e-09
7.11196e-09
-2.6663e-09
7.10304e-09
-2.60207e-09
7.09158e-09
-2.53365e-09
7.07748e-09
7.0624e-09
-2.46015e-09
-9.23955e-10
1.6898e-09
5.46256e-10
-9.77411e-10
1.7344e-09
-7.3083e-10
2.44593e-09
-5.56849e-10
3.31102e-09
-2.01302e-10
4.45418e-09
1.06035e-10
5.38208e-09
1.54256e-10
6.07417e-09
4.75177e-10
6.98135e-09
1.23861e-09
7.48305e-09
1.08533e-09
6.16332e-09
1.29135e-09
5.11462e-09
1.47193e-09
3.71843e-09
1.24097e-09
2.16507e-09
8.37213e-10
1.22811e-09
3.29141e-10
1.31034e-09
-3.5032e-10
2.63279e-09
-1.08831e-09
5.34153e-09
-1.58588e-09
9.16577e-09
-1.66409e-09
1.30161e-08
-1.54002e-09
1.53213e-08
-1.51935e-09
1.54182e-08
-1.69974e-09
1.40943e-08
-2.01649e-09
1.24812e-08
-2.38293e-09
1.11854e-08
-2.75354e-09
1.03064e-08
-3.11274e-09
9.74593e-09
-3.45711e-09
9.38546e-09
-3.78588e-09
9.14082e-09
-4.09867e-09
8.96098e-09
-4.39451e-09
8.81748e-09
-4.67231e-09
8.69372e-09
-4.93056e-09
8.58042e-09
-5.16783e-09
8.47161e-09
-5.38254e-09
8.36412e-09
-5.57341e-09
8.25585e-09
-5.73918e-09
8.14627e-09
-5.87915e-09
8.03512e-09
-5.99276e-09
7.92323e-09
-6.08001e-09
7.81141e-09
-6.14113e-09
7.70089e-09
-6.17712e-09
7.59292e-09
-6.18877e-09
7.48899e-09
-6.17829e-09
7.39001e-09
-6.14639e-09
7.29785e-09
-6.09603e-09
7.21247e-09
-6.02863e-09
7.13535e-09
-5.94673e-09
7.06669e-09
-5.8524e-09
7.00696e-09
-5.74784e-09
6.95612e-09
-5.63519e-09
6.91416e-09
-5.51633e-09
6.88073e-09
-5.39327e-09
6.85546e-09
-5.26749e-09
6.83777e-09
-5.14074e-09
6.82708e-09
-5.01417e-09
6.82263e-09
-4.88907e-09
6.82381e-09
-4.76636e-09
6.8297e-09
-4.6468e-09
6.8398e-09
-4.53125e-09
6.85304e-09
-4.41975e-09
6.86919e-09
-4.31335e-09
6.88693e-09
-4.21123e-09
6.90645e-09
-4.1149e-09
6.92608e-09
-4.02244e-09
6.94662e-09
-3.93612e-09
6.96588e-09
-3.85275e-09
6.98536e-09
-3.77561e-09
7.00222e-09
-3.69999e-09
7.01885e-09
-3.63045e-09
7.0316e-09
-3.56061e-09
7.04379e-09
-3.49633e-09
7.05099e-09
-3.42969e-09
7.05739e-09
-3.36749e-09
7.05805e-09
-3.30136e-09
7.05751e-09
-3.23737e-09
7.0515e-09
-3.17003e-09
7.04269e-09
-3.10008e-09
7.03038e-09
-3.02624e-09
7.01402e-09
-2.94638e-09
6.99579e-09
6.97504e-09
-2.86108e-09
-7.72146e-10
2.02913e-09
4.32907e-10
-8.97303e-10
1.85962e-09
-8.07743e-10
2.3564e-09
-6.62163e-10
3.1655e-09
-3.9213e-10
4.18423e-09
-1.27878e-10
5.11794e-09
4.92477e-11
5.89724e-09
4.01802e-10
6.62899e-09
9.71866e-10
6.91323e-09
1.10349e-09
6.0317e-09
1.25635e-09
4.96222e-09
1.31827e-09
3.65639e-09
1.09923e-09
2.38448e-09
6.41646e-10
1.68544e-09
-1.18191e-11
1.96411e-09
-8.37335e-10
3.45801e-09
-1.71007e-09
6.21453e-09
-2.36183e-09
9.81721e-09
-2.59751e-09
1.3252e-08
-2.539e-09
1.52625e-08
-2.47119e-09
1.53506e-08
-2.55309e-09
1.41759e-08
-2.78066e-09
1.2709e-08
-3.09396e-09
1.14984e-08
-3.445e-09
1.06576e-08
-3.80873e-09
1.01094e-08
-4.17204e-09
9.74892e-09
-4.52865e-09
9.4972e-09
-4.87363e-09
9.30612e-09
-5.20392e-09
9.14758e-09
-5.51598e-09
9.00596e-09
-5.80738e-09
8.87168e-09
-6.07503e-09
8.73948e-09
-6.31696e-09
8.60596e-09
-6.53069e-09
8.46988e-09
-6.71503e-09
8.33058e-09
-6.8684e-09
8.18888e-09
-6.99063e-09
8.04568e-09
-7.08151e-09
7.90255e-09
-7.14158e-09
7.76138e-09
-7.17194e-09
7.62371e-09
-7.17439e-09
7.49157e-09
-7.15037e-09
7.36672e-09
-7.10264e-09
7.25026e-09
-7.03339e-09
7.14358e-09
-6.94531e-09
7.04758e-09
-6.84118e-09
6.96277e-09
-6.72347e-09
6.88953e-09
-6.595e-09
6.82783e-09
-6.45799e-09
6.77746e-09
-6.31505e-09
6.73797e-09
-6.16799e-09
6.70875e-09
-6.01907e-09
6.68908e-09
-5.86965e-09
6.67807e-09
-5.72155e-09
6.67486e-09
-5.57573e-09
6.67845e-09
-5.43352e-09
6.68795e-09
-5.29554e-09
6.70233e-09
-5.16261e-09
6.72077e-09
-5.03513e-09
6.74227e-09
-4.91341e-09
6.7661e-09
-4.79779e-09
6.79135e-09
-4.68795e-09
6.81742e-09
-4.58435e-09
6.84347e-09
-4.48603e-09
6.86898e-09
-4.39373e-09
6.89323e-09
-4.30568e-09
6.91577e-09
-4.22308e-09
6.93599e-09
-4.1433e-09
6.95343e-09
-4.06804e-09
6.96765e-09
-3.99375e-09
6.97816e-09
-3.92255e-09
6.98474e-09
-3.85049e-09
6.98678e-09
-3.77933e-09
6.98451e-09
-3.70668e-09
6.97685e-09
-3.63153e-09
6.96533e-09
-3.55346e-09
6.94792e-09
-3.46882e-09
6.92768e-09
-3.37867e-09
6.90281e-09
6.87577e-09
-3.28069e-09
-6.58317e-10
2.35585e-09
3.3171e-10
-8.35672e-10
2.03706e-09
-8.46811e-10
2.36761e-09
-7.55784e-10
3.07453e-09
-5.54885e-10
3.98341e-09
-3.18386e-10
4.88156e-09
-8.11245e-11
5.66012e-09
2.80821e-10
6.2673e-09
7.61328e-10
6.43274e-09
9.99589e-10
5.79385e-09
1.14426e-09
4.81759e-09
1.13578e-09
3.66533e-09
8.70607e-10
2.64967e-09
3.43666e-10
2.21263e-09
-4.21647e-10
2.72929e-09
-1.37585e-09
4.41229e-09
-2.35628e-09
7.19473e-09
-3.10845e-09
1.05694e-08
-3.4468e-09
1.35901e-08
-3.44698e-09
1.52628e-08
-3.36794e-09
1.52714e-08
-3.39608e-09
1.42041e-08
-3.56986e-09
1.28826e-08
-3.85128e-09
1.17798e-08
-4.1958e-09
1.10019e-08
-4.5716e-09
1.04852e-08
-4.95981e-09
1.0137e-08
-5.34833e-09
9.88577e-09
-5.72952e-09
9.68719e-09
-6.09707e-09
9.51521e-09
-6.44628e-09
9.35508e-09
-6.77247e-09
9.19799e-09
-7.07206e-09
9.03903e-09
-7.34135e-09
8.87546e-09
-7.57789e-09
8.70645e-09
-7.7792e-09
8.53223e-09
-7.94414e-09
8.35413e-09
-8.07212e-09
8.17384e-09
-8.16301e-09
7.99402e-09
-8.21814e-09
7.81649e-09
-8.23845e-09
7.64468e-09
-8.22655e-09
7.48e-09
-8.18444e-09
7.32523e-09
-8.1156e-09
7.18158e-09
-8.02261e-09
7.05106e-09
-7.90916e-09
6.93421e-09
-7.77805e-09
6.83204e-09
-7.63288e-09
6.74445e-09
-7.47634e-09
6.67161e-09
-7.31164e-09
6.61288e-09
-7.14114e-09
6.56779e-09
-6.96753e-09
6.53533e-09
-6.79271e-09
6.5146e-09
-6.6188e-09
6.5044e-09
-6.44713e-09
6.50363e-09
-6.27936e-09
6.51099e-09
-6.11625e-09
6.52541e-09
-5.95906e-09
6.5455e-09
-5.80795e-09
6.57043e-09
-5.66399e-09
6.5987e-09
-5.52672e-09
6.62985e-09
-5.39715e-09
6.66216e-09
-5.27417e-09
6.69574e-09
-5.15891e-09
6.72848e-09
-5.04955e-09
6.76119e-09
-4.94752e-09
6.79122e-09
-4.85021e-09
6.82021e-09
-4.75942e-09
6.84479e-09
-4.67174e-09
6.86754e-09
-4.58936e-09
6.88427e-09
-4.50808e-09
6.89851e-09
-4.43042e-09
6.90537e-09
-4.3516e-09
6.90903e-09
-4.27445e-09
6.90445e-09
-4.19403e-09
6.89598e-09
-4.11276e-09
6.87932e-09
-4.02484e-09
6.85873e-09
-3.93197e-09
6.83119e-09
-3.83042e-09
6.79981e-09
6.76392e-09
-3.72075e-09
-5.61545e-10
2.67967e-09
2.37645e-10
-7.733e-10
2.24883e-09
-8.48802e-10
2.44313e-09
-8.11157e-10
3.0369e-09
-6.70128e-10
3.84244e-09
-4.6539e-10
4.67695e-09
-2.12631e-10
5.40759e-09
1.35403e-10
5.91944e-09
5.49183e-10
6.01919e-09
8.1691e-10
5.52636e-09
9.46753e-10
4.68821e-09
8.8275e-10
3.72989e-09
5.56789e-10
2.97567e-09
-4.98329e-11
2.8195e-09
-9.19464e-10
3.59867e-09
-1.9729e-09
5.46609e-09
-3.02776e-09
8.24929e-09
-3.8357e-09
1.13776e-08
-4.23078e-09
1.39849e-08
-4.276e-09
1.53081e-08
-4.20779e-09
1.52029e-08
-4.21946e-09
1.4216e-08
-4.3733e-09
1.30361e-08
-4.64763e-09
1.20544e-08
-5.00194e-09
1.13559e-08
-5.40116e-09
1.08846e-08
-5.82231e-09
1.05578e-08
-6.24926e-09
1.03129e-08
-6.67173e-09
1.01094e-08
-7.08096e-09
9.9246e-09
-7.47055e-09
9.74448e-09
-7.83414e-09
9.56178e-09
-8.16695e-09
9.37171e-09
-8.46416e-09
9.17294e-09
-8.72263e-09
8.9649e-09
-8.9393e-09
8.74937e-09
-9.11313e-09
8.52802e-09
-9.24291e-09
8.30438e-09
-9.33005e-09
8.08085e-09
-9.37448e-09
7.86216e-09
-9.37981e-09
7.64996e-09
-9.34743e-09
7.44852e-09
-9.28176e-09
7.25959e-09
-9.18563e-09
7.08608e-09
-9.06357e-09
6.92898e-09
-8.91889e-09
6.78999e-09
-8.75602e-09
6.66918e-09
-8.57831e-09
6.56708e-09
-8.38966e-09
6.48303e-09
-8.19312e-09
6.41664e-09
-7.9919e-09
6.36672e-09
-7.78854e-09
6.33227e-09
-7.5855e-09
6.31179e-09
-7.38471e-09
6.30398e-09
-7.18799e-09
6.30719e-09
-6.99654e-09
6.32008e-09
-6.81177e-09
6.34093e-09
-6.63411e-09
6.36863e-09
-6.46475e-09
6.40133e-09
-6.30329e-09
6.43839e-09
-6.15102e-09
6.47771e-09
-6.00657e-09
6.51929e-09
-5.87159e-09
6.56065e-09
-5.74362e-09
6.6026e-09
-5.625e-09
6.64201e-09
-5.51194e-09
6.68074e-09
-5.40775e-09
6.71479e-09
-5.30715e-09
6.74716e-09
-5.21455e-09
6.77284e-09
-5.12317e-09
6.79601e-09
-5.03837e-09
6.81068e-09
-4.95226e-09
6.82198e-09
-4.87049e-09
6.82342e-09
-4.78517e-09
6.82044e-09
-4.70111e-09
6.80716e-09
-4.61106e-09
6.78864e-09
-4.51734e-09
6.76072e-09
-4.41467e-09
6.72728e-09
-4.30386e-09
6.68628e-09
6.64061e-09
-4.18169e-09
-4.72429e-10
3.0077e-09
1.44526e-10
-7.09522e-10
2.48594e-09
-8.29061e-10
2.56268e-09
-8.36662e-10
3.04452e-09
-7.42789e-10
3.74862e-09
-5.69397e-10
4.50362e-09
-3.2698e-10
5.16529e-09
-8.78837e-12
5.60127e-09
3.40601e-10
5.67006e-09
5.86916e-10
5.28007e-09
6.79741e-10
4.59592e-09
5.57846e-10
3.85207e-09
1.64434e-10
3.36964e-09
-5.26045e-10
3.50986e-09
-1.48953e-09
4.56277e-09
-2.62075e-09
6.59667e-09
-3.71736e-09
9.34626e-09
-4.5436e-09
1.22033e-08
-4.96023e-09
1.44019e-08
-5.03833e-09
1.53858e-08
-4.99623e-09
1.51612e-08
-5.02288e-09
1.42422e-08
-5.18782e-09
1.32014e-08
-5.48065e-09
1.23467e-08
-5.86248e-09
1.1738e-08
-6.29875e-09
1.13204e-08
-6.76235e-09
1.10217e-08
-7.23606e-09
1.07862e-08
-7.70592e-09
1.05795e-08
-8.16246e-09
1.03808e-08
-8.59622e-09
1.01785e-08
-9.00042e-09
9.96566e-09
-9.36774e-09
9.73933e-09
-9.69342e-09
9.49838e-09
-9.97242e-09
9.24438e-09
-1.02025e-08
8.9793e-09
-1.03811e-08
8.70741e-09
-1.05091e-08
8.43198e-09
-1.05857e-08
8.15893e-09
-1.06148e-08
7.89096e-09
-1.05975e-08
7.63367e-09
-1.05389e-08
7.38989e-09
-1.04422e-08
7.16357e-09
-1.03127e-08
6.95656e-09
-1.01545e-08
6.77133e-09
-9.97296e-09
6.60843e-09
-9.77222e-09
6.46883e-09
-9.55711e-09
6.352e-09
-9.33143e-09
6.25763e-09
-9.09914e-09
6.18446e-09
-8.86345e-09
6.13129e-09
-8.62741e-09
6.09642e-09
-8.39348e-09
6.07817e-09
-8.16385e-09
6.07463e-09
-7.94019e-09
6.08398e-09
-7.72404e-09
6.10426e-09
-7.51625e-09
6.13382e-09
-7.31798e-09
6.17068e-09
-7.12921e-09
6.21359e-09
-6.95102e-09
6.26044e-09
-6.78247e-09
6.31061e-09
-6.62486e-09
6.36172e-09
-6.47618e-09
6.41393e-09
-6.33829e-09
6.46437e-09
-6.20796e-09
6.51416e-09
-6.08787e-09
6.55971e-09
-5.9734e-09
6.60324e-09
-5.86829e-09
6.64023e-09
-5.76638e-09
6.67407e-09
-5.67246e-09
6.69924e-09
-5.57907e-09
6.7202e-09
-5.49162e-09
6.73066e-09
-5.40196e-09
6.73571e-09
-5.31523e-09
6.72902e-09
-5.22359e-09
6.71574e-09
-5.13041e-09
6.69057e-09
-5.02867e-09
6.65815e-09
-4.91998e-09
6.61484e-09
-4.79931e-09
6.56417e-09
6.50559e-09
-4.66646e-09
-3.84159e-10
3.34465e-09
4.71598e-11
-6.42601e-10
2.7444e-09
-7.95613e-10
2.71571e-09
-8.40704e-10
3.08962e-09
-7.84934e-10
3.69288e-09
-6.42438e-10
4.36118e-09
-4.25563e-10
4.9485e-09
-1.49226e-10
5.32501e-09
1.38399e-10
5.38253e-09
3.35732e-10
5.08301e-09
3.72666e-10
4.55919e-09
1.82917e-10
4.04211e-09
-2.89975e-10
3.84265e-09
-1.07031e-09
4.29038e-09
-2.11881e-09
5.61103e-09
-3.30361e-09
7.78198e-09
-4.41263e-09
1.04548e-08
-5.22602e-09
1.30171e-08
-5.64194e-09
1.48172e-08
-5.74552e-09
1.54897e-08
-5.74422e-09
1.51596e-08
-5.81148e-09
1.43097e-08
-6.01654e-09
1.34063e-08
-6.35099e-09
1.26812e-08
-6.7795e-09
1.21663e-08
-7.26617e-09
1.1807e-08
-7.78403e-09
1.15393e-08
-8.31299e-09
1.13151e-08
-8.83841e-09
1.11047e-08
-9.34788e-09
1.08902e-08
-9.83115e-09
1.06616e-08
-1.02787e-08
1.04133e-08
-1.06828e-08
1.01433e-08
-1.10364e-08
9.8523e-09
-1.13351e-08
9.54282e-09
-1.15748e-08
9.21955e-09
-1.1755e-08
8.88706e-09
-1.1874e-08
8.55248e-09
-1.19354e-08
8.22006e-09
-1.19405e-08
7.89695e-09
-1.18943e-08
7.5875e-09
-1.18007e-08
7.29707e-09
-1.16659e-08
7.02873e-09
-1.14948e-08
6.78602e-09
-1.12939e-08
6.57032e-09
-1.10682e-08
6.38318e-09
-1.08238e-08
6.2244e-09
-1.05653e-08
6.09386e-09
-1.02979e-08
5.99023e-09
-1.00254e-08
5.91217e-09
-9.75163e-09
5.85771e-09
-9.47976e-09
5.82478e-09
-9.21246e-09
5.81113e-09
-8.95192e-09
5.81441e-09
-8.6999e-09
5.83231e-09
-8.4577e-09
5.86257e-09
-8.22645e-09
5.90297e-09
-8.00658e-09
5.95161e-09
-7.79893e-09
6.0063e-09
-7.60299e-09
6.06571e-09
-7.4197e-09
6.12754e-09
-7.24751e-09
6.19123e-09
-7.08779e-09
6.25414e-09
-6.93783e-09
6.31662e-09
-6.79971e-09
6.37548e-09
-6.66942e-09
6.43209e-09
-6.55e-09
6.48249e-09
-6.43601e-09
6.52917e-09
-6.33151e-09
6.56724e-09
-6.22971e-09
6.60028e-09
-6.13548e-09
6.62253e-09
-6.04103e-09
6.63837e-09
-5.9514e-09
6.64161e-09
-5.8584e-09
6.63695e-09
-5.76629e-09
6.61852e-09
-5.66693e-09
6.59091e-09
-5.56282e-09
6.54944e-09
-5.44712e-09
6.49787e-09
-5.31998e-09
6.43411e-09
6.36106e-09
-5.17666e-09
-2.9097e-10
3.69375e-09
-5.81357e-11
-5.68669e-10
3.02212e-09
-7.48851e-10
2.8959e-09
-8.2537e-10
3.16615e-09
-8.02663e-10
3.6702e-09
-6.92127e-10
4.25069e-09
-5.09457e-10
4.7659e-09
-2.80502e-10
5.09614e-09
-5.74457e-11
5.15959e-09
7.5352e-11
4.9504e-09
4.16859e-11
4.59304e-09
-2.29265e-10
4.31326e-09
-7.93817e-10
4.40735e-09
-1.66707e-09
5.16376e-09
-2.78831e-09
6.73227e-09
-4.00377e-09
8.99748e-09
-5.09737e-09
1.15484e-08
-5.87705e-09
1.37965e-08
-6.27942e-09
1.52197e-08
-6.41016e-09
1.56203e-08
-6.46369e-09
1.52133e-08
-6.59532e-09
1.44414e-08
-6.86488e-09
1.36756e-08
-7.26288e-09
1.30794e-08
-7.75542e-09
1.26585e-08
-8.30708e-09
1.23588e-08
-8.89081e-09
1.21226e-08
-9.48531e-09
1.19097e-08
-1.00746e-08
1.16937e-08
-1.06443e-08
1.146e-08
-1.11824e-08
1.11994e-08
-1.16772e-08
1.09082e-08
-1.21197e-08
1.05857e-08
-1.25018e-08
1.02343e-08
-1.28175e-08
9.85887e-09
-1.30641e-08
9.46564e-09
-1.32388e-08
9.06296e-09
-1.33442e-08
8.65746e-09
-1.33813e-08
8.25793e-09
-1.33553e-08
7.87094e-09
-1.32706e-08
7.50344e-09
-1.3134e-08
7.16045e-09
-1.29515e-08
6.84683e-09
-1.27309e-08
6.56535e-09
-1.24785e-08
6.31835e-09
-1.22017e-08
6.10635e-09
-1.19065e-08
5.92943e-09
-1.1599e-08
5.7864e-09
-1.12843e-08
5.67573e-09
-1.09672e-08
5.59517e-09
-1.06516e-08
5.54226e-09
-1.03408e-08
5.51424e-09
-1.00377e-08
5.50824e-09
-9.7444e-09
5.5214e-09
-9.46265e-09
5.55086e-09
-9.19357e-09
5.59391e-09
-8.9381e-09
5.64804e-09
-8.69679e-09
5.71074e-09
-8.46966e-09
5.78003e-09
-8.25711e-09
5.85355e-09
-8.05824e-09
5.92995e-09
-7.87366e-09