/*--------------------------------*- C++ -*----------------------------------*\
  =========                 |
  \\      /  F ield         | OpenFOAM: The Open Source CFD Toolbox
   \\    /   O peration     | Website:  https://openfoam.org
    \\  /    A nd           | Version:  7
     \\/     M anipulation  |
\*---------------------------------------------------------------------------*/
FoamFile
{
    version     2.0;
    format      ascii;
    class       volScalarField;
    location    "10";
    object      rho1;
}
// * * * * * * * * * * * * * * * * * * * * * * * * * * * * * * * * * * * * * //

dimensions      [1 -3 0 0 0 0 0];

internalField   nonuniform List<scalar> 
49920
(
0.994961
0.994965
0.994966
0.994966
0.994966
0.994966
0.994966
0.994967
0.994966
0.994966
0.994966
0.994966
0.994966
0.994967
0.994964
0.994967
0.994963
0.994962
0.994965
0.994966
0.994966
0.994967
0.994967
0.994967
0.994967
0.994967
0.994968
0.994968
0.994968
0.994967
0.994967
0.994967
0.994966
0.994966
0.994965
0.994964
0.994964
0.994963
0.994963
0.994963
0.994963
0.994962
0.994962
0.994962
0.994962
0.994961
0.99496
0.994957
0.994958
0.994952
0.994961
0.99495
0.994966
0.994953
0.994972
0.99495
0.994964
0.994952
0.994968
0.994953
0.994971
0.994954
0.994975
0.994957
0.994979
0.99496
0.994986
0.994966
0.994992
0.994973
0.994999
0.994982
0.995003
0.994989
0.995005
0.994996
0.995005
0.995003
0.995
0.995008
0.994937
0.994969
0.994965
0.994965
0.994966
0.994967
0.994967
0.994968
0.994967
0.994968
0.994968
0.994968
0.994968
0.994967
0.994963
0.99497
0.994974
0.994974
0.994969
0.994967
0.994967
0.994968
0.994968
0.994969
0.994969
0.994969
0.994969
0.994969
0.994969
0.994968
0.994968
0.994967
0.994967
0.994966
0.994965
0.994964
0.994964
0.994963
0.994963
0.994962
0.994962
0.99496
0.994961
0.994959
0.99496
0.994958
0.994956
0.994949
0.994945
0.994957
0.994946
0.994967
0.994946
0.994968
0.994936
0.994962
0.994943
0.994967
0.994945
0.994972
0.994946
0.994977
0.994949
0.994983
0.994952
0.99499
0.99496
0.994999
0.994968
0.995008
0.994981
0.995017
0.994995
0.995023
0.99501
0.995026
0.995023
0.995022
0.995032
0.995024
0.994879
0.994955
0.994961
0.994965
0.994964
0.994963
0.994963
0.994964
0.994965
0.994966
0.994967
0.994967
0.994966
0.994966
0.994959
0.994962
0.994976
0.994977
0.994968
0.994967
0.994968
0.994969
0.994969
0.99497
0.99497
0.99497
0.994969
0.994969
0.994968
0.994969
0.994968
0.994969
0.994967
0.994968
0.994966
0.994966
0.994964
0.994965
0.994962
0.994963
0.994961
0.994962
0.994959
0.994961
0.994958
0.994959
0.994946
0.994951
0.994947
0.994954
0.994965
0.994947
0.99496
0.994954
0.994956
0.994951
0.994956
0.994952
0.99496
0.994953
0.994962
0.994955
0.994966
0.994958
0.99497
0.994964
0.994977
0.994971
0.994985
0.994982
0.994994
0.994995
0.995005
0.995012
0.995016
0.995028
0.995022
0.995035
0.995032
0.995043
0.994848
0.99494
0.994967
0.99496
0.994964
0.994963
0.994964
0.994963
0.994963
0.994963
0.994963
0.994963
0.994963
0.994962
0.994963
0.994963
0.99497
0.994976
0.994971
0.99497
0.99497
0.99497
0.994971
0.994971
0.994972
0.994971
0.994971
0.99497
0.994971
0.99497
0.99497
0.994969
0.99497
0.994968
0.994968
0.994966
0.994966
0.994965
0.994964
0.994963
0.994962
0.994962
0.994961
0.994961
0.994957
0.994952
0.994959
0.994944
0.994966
0.994952
0.99496
0.994952
0.994967
0.994953
0.994964
0.994949
0.994963
0.994947
0.994964
0.994947
0.994965
0.994947
0.994968
0.994948
0.994972
0.99495
0.994978
0.994955
0.994985
0.994964
0.994995
0.994977
0.995008
0.994997
0.995023
0.995018
0.995032
0.995039
0.99504
0.995045
0.994843
0.994919
0.994957
0.994954
0.99496
0.994966
0.994965
0.994969
0.99496
0.994961
0.994962
0.994962
0.994965
0.994967
0.994967
0.994956
0.994967
0.994977
0.994976
0.994973
0.994972
0.994971
0.994972
0.994973
0.994974
0.994973
0.994973
0.994973
0.994972
0.994972
0.994972
0.994971
0.994971
0.99497
0.99497
0.994968
0.994968
0.994965
0.994967
0.994962
0.994965
0.99496
0.994963
0.994954
0.99496
0.994957
0.994958
0.994969
0.99495
0.99496
0.994956
0.994964
0.994958
0.994963
0.994956
0.994961
0.994952
0.994959
0.99495
0.994958
0.994948
0.994958
0.994947
0.99496
0.994948
0.994963
0.994951
0.994967
0.994958
0.994975
0.994969
0.994987
0.994988
0.995005
0.995015
0.995026
0.995045
0.995047
0.995057
0.995053
0.99487
0.994938
0.994949
0.994967
0.994957
0.994956
0.994956
0.994966
0.994972
0.99497
0.994967
0.994965
0.99496
0.994961
0.994958
0.994957
0.994963
0.994976
0.994977
0.994975
0.994973
0.994972
0.994973
0.994974
0.994974
0.994974
0.994974
0.994974
0.994974
0.994974
0.994973
0.994973
0.994971
0.994972
0.99497
0.994971
0.994968
0.994969
0.994965
0.994966
0.994962
0.994962
0.994955
0.994964
0.994953
0.994973
0.99496
0.994967
0.994955
0.99497
0.994956
0.994968
0.994953
0.994967
0.994952
0.994966
0.994948
0.994963
0.994944
0.994961
0.994941
0.994959
0.994938
0.99496
0.994937
0.994962
0.994938
0.994966
0.994943
0.994975
0.994954
0.994988
0.994974
0.995011
0.995004
0.995041
0.995042
0.995065
0.995063
0.995066
0.994907
0.994981
0.994991
0.995007
0.994976
0.994959
0.994962
0.994957
0.994963
0.994962
0.994964
0.994962
0.994958
0.994957
0.994956
0.994957
0.994961
0.994971
0.994976
0.994976
0.994973
0.994973
0.994973
0.994974
0.994974
0.994974
0.994973
0.994974
0.994974
0.994974
0.994973
0.994973
0.994972
0.994972
0.994972
0.994971
0.99497
0.994969
0.994967
0.994965
0.994961
0.994959
0.994965
0.994955
0.994978
0.994949
0.994974
0.994955
0.994976
0.994954
0.994974
0.99495
0.994972
0.994949
0.994973
0.994946
0.99497
0.99494
0.994968
0.994934
0.994965
0.994928
0.994965
0.994924
0.994965
0.994921
0.994966
0.994922
0.994971
0.994928
0.99498
0.994944
0.994995
0.994974
0.99502
0.995016
0.995049
0.99506
0.995061
0.995068
0.994946
0.995013
0.995034
0.995047
0.995022
0.995
0.994995
0.994973
0.99496
0.994964
0.994963
0.99496
0.994958
0.994955
0.994954
0.994956
0.994961
0.994969
0.994976
0.994975
0.994975
0.994973
0.994974
0.994973
0.994973
0.994972
0.994973
0.994973
0.994974
0.994973
0.994973
0.994972
0.994973
0.994972
0.994973
0.994971
0.994971
0.994969
0.994968
0.994964
0.994962
0.994967
0.994958
0.99498
0.994948
0.994978
0.994959
0.994978
0.994957
0.994975
0.994953
0.994974
0.994951
0.994975
0.99495
0.994973
0.994944
0.99497
0.994937
0.994966
0.99493
0.994963
0.994923
0.994961
0.994917
0.994959
0.994912
0.994958
0.994912
0.994962
0.994919
0.99497
0.99494
0.994988
0.994976
0.995016
0.995031
0.995047
0.995053
0.995059
0.994983
0.995033
0.995051
0.995064
0.995058
0.995043
0.995032
0.995002
0.994975
0.994977
0.994972
0.994966
0.994959
0.994953
0.994953
0.994956
0.994962
0.994969
0.994974
0.994975
0.994975
0.994973
0.994972
0.994971
0.994971
0.994971
0.994971
0.994972
0.994972
0.994972
0.994972
0.994972
0.994972
0.994973
0.994972
0.994971
0.994971
0.994969
0.994969
0.994967
0.99497
0.994962
0.994981
0.994954
0.994977
0.994963
0.994979
0.994962
0.994976
0.994958
0.994975
0.994957
0.994975
0.994956
0.994975
0.994952
0.994971
0.994945
0.994967
0.994937
0.994962
0.994929
0.994956
0.994919
0.99495
0.99491
0.994945
0.994903
0.994941
0.994901
0.994942
0.99491
0.99495
0.994935
0.994973
0.994989
0.995017
0.995034
0.99503
0.995044
0.995012
0.995044
0.995052
0.995061
0.995066
0.995063
0.995054
0.99503
0.995001
0.994993
0.994981
0.99497
0.994959
0.994954
0.994953
0.994959
0.994963
0.99497
0.994973
0.994977
0.994973
0.994973
0.994969
0.994971
0.994969
0.99497
0.99497
0.994971
0.994971
0.994971
0.994971
0.994972
0.994972
0.994973
0.994971
0.994973
0.99497
0.994973
0.994972
0.994973
0.994971
0.99498
0.994966
0.994976
0.994972
0.994976
0.994972
0.994975
0.994968
0.994973
0.994967
0.994973
0.994967
0.994972
0.994963
0.994968
0.994957
0.994963
0.99495
0.994956
0.994941
0.994947
0.99493
0.994937
0.994918
0.994926
0.994906
0.994915
0.994897
0.994908
0.994894
0.994908
0.994906
0.994926
0.994948
0.994976
0.995006
0.995007
0.995009
0.995024
0.995028
0.995049
0.995051
0.995052
0.995055
0.995056
0.995053
0.995039
0.995016
0.995
0.994985
0.994969
0.994961
0.994955
0.994956
0.994959
0.994965
0.994968
0.994975
0.994974
0.994974
0.99497
0.994971
0.994967
0.994969
0.994967
0.99497
0.994969
0.994971
0.994969
0.994972
0.99497
0.994973
0.994971
0.994974
0.994971
0.994975
0.994975
0.994976
0.994982
0.994979
0.99498
0.994972
0.994983
0.994974
0.994981
0.994971
0.994979
0.994969
0.994978
0.994968
0.994978
0.994967
0.994975
0.994962
0.99497
0.994956
0.994964
0.994947
0.994955
0.994936
0.994944
0.994923
0.994931
0.994907
0.994917
0.99489
0.994902
0.994875
0.99489
0.994867
0.994888
0.994878
0.994913
0.994926
0.99497
0.994978
0.994986
0.994981
0.995012
0.995033
0.995045
0.995047
0.995045
0.995043
0.995041
0.995039
0.995032
0.995016
0.995001
0.994985
0.994972
0.994964
0.994958
0.994957
0.99496
0.994965
0.994969
0.994972
0.994974
0.994972
0.994969
0.994968
0.994967
0.994966
0.994967
0.994967
0.994969
0.994969
0.994971
0.994971
0.994973
0.994972
0.994975
0.994975
0.994978
0.994979
0.994979
0.994988
0.99498
0.994984
0.994977
0.994988
0.994974
0.994986
0.994971
0.994984
0.994969
0.994984
0.994968
0.994983
0.994965
0.994981
0.994961
0.994977
0.994954
0.99497
0.994944
0.994962
0.994932
0.994952
0.994917
0.994938
0.994899
0.994922
0.994878
0.994903
0.994857
0.994884
0.99484
0.994872
0.994839
0.994881
0.994875
0.994926
0.994935
0.99496
0.99495
0.994966
0.995001
0.995025
0.995032
0.995036
0.995037
0.995034
0.995029
0.995025
0.995019
0.995008
0.994996
0.994984
0.994976
0.994967
0.994961
0.994958
0.994962
0.994965
0.994969
0.994972
0.994973
0.994969
0.994968
0.994964
0.994966
0.994964
0.994966
0.994966
0.994969
0.994969
0.994972
0.994973
0.994975
0.994976
0.994979
0.994981
0.994984
0.994985
0.994994
0.994986
0.99499
0.994984
0.994991
0.994977
0.994987
0.994973
0.994985
0.994971
0.994985
0.99497
0.994985
0.994968
0.994982
0.994963
0.994978
0.994956
0.994971
0.994947
0.994963
0.994935
0.994953
0.99492
0.994939
0.994901
0.994922
0.994878
0.994901
0.994853
0.994878
0.994828
0.994856
0.994813
0.994849
0.994829
0.994878
0.994883
0.994924
0.994919
0.994938
0.99495
0.995006
0.99501
0.995014
0.99502
0.995025
0.995025
0.995021
0.995015
0.995008
0.995001
0.994991
0.994984
0.994976
0.994968
0.99496
0.994959
0.99496
0.994965
0.994967
0.994971
0.994969
0.994968
0.994965
0.994964
0.994961
0.994965
0.994965
0.994969
0.994969
0.994973
0.994974
0.994977
0.994978
0.994983
0.994985
0.994991
0.994993
0.995001
0.994993
0.994994
0.994989
0.994993
0.99498
0.994987
0.994974
0.994985
0.994972
0.994985
0.994971
0.994985
0.994968
0.994982
0.994964
0.994977
0.994957
0.994971
0.994948
0.994963
0.994937
0.994953
0.994923
0.99494
0.994905
0.994923
0.994882
0.994902
0.994855
0.994876
0.994825
0.994846
0.994797
0.994824
0.994791
0.994833
0.994829
0.994879
0.994883
0.994915
0.994918
0.994963
0.995016
0.994995
0.994998
0.995004
0.99501
0.995014
0.995013
0.995008
0.995002
0.994995
0.994988
0.994982
0.994975
0.994966
0.994958
0.994956
0.99496
0.994963
0.994968
0.99497
0.99497
0.994966
0.994964
0.994962
0.994962
0.994963
0.994967
0.994968
0.994974
0.994976
0.99498
0.994983
0.994988
0.994992
0.994997
0.995
0.995007
0.995
0.995
0.994992
0.994995
0.994982
0.994987
0.994974
0.994983
0.994971
0.994982
0.99497
0.994981
0.994967
0.994978
0.994962
0.994973
0.994956
0.994967
0.994948
0.99496
0.994938
0.994951
0.994925
0.994939
0.994909
0.994924
0.994888
0.994903
0.994862
0.994876
0.994828
0.994842
0.994792
0.994808
0.994769
0.9948
0.994789
0.994836
0.994845
0.994887
0.9949
0.99494
0.994983
0.995047
0.99498
0.994985
0.994991
0.994996
0.995
0.995002
0.995
0.994995
0.99499
0.994984
0.994979
0.994972
0.994963
0.994956
0.994954
0.994959
0.994962
0.994966
0.994967
0.994967
0.994964
0.994963
0.994961
0.994964
0.994966
0.994971
0.994973
0.994976
0.994981
0.994988
0.994993
0.995
0.995004
0.995008
0.99501
0.995005
0.995003
0.994995
0.994994
0.994984
0.994984
0.994975
0.994978
0.994971
0.994974
0.994968
0.994972
0.994965
0.994968
0.994961
0.994964
0.994955
0.994958
0.994949
0.994952
0.994941
0.994944
0.994931
0.994934
0.994918
0.99492
0.994901
0.994901
0.994877
0.994873
0.994843
0.994836
0.994803
0.994797
0.994771
0.994778
0.994776
0.994804
0.994825
0.994862
0.994892
0.994929
0.994973
0.995022
0.995082
0.994971
0.994978
0.994982
0.994986
0.994988
0.99499
0.99499
0.994988
0.994984
0.99498
0.994975
0.994968
0.994959
0.994953
0.994953
0.994956
0.99496
0.994963
0.994966
0.994965
0.994965
0.994962
0.994962
0.994963
0.994968
0.99497
0.994978
0.994984
0.99499
0.994998
0.995006
0.99501
0.995014
0.995011
0.995009
0.995001
0.994995
0.99499
0.994984
0.994978
0.994975
0.99497
0.99497
0.994964
0.994966
0.99496
0.994963
0.994956
0.994959
0.994952
0.994955
0.994947
0.99495
0.994942
0.994945
0.994935
0.994939
0.994927
0.994929
0.994915
0.994916
0.994896
0.994896
0.99487
0.994866
0.994833
0.994828
0.994793
0.994794
0.99477
0.994789
0.994788
0.994829
0.994849
0.994898
0.994927
0.994979
0.995019
0.995077
0.995125
0.994964
0.994974
0.994979
0.99498
0.99498
0.99498
0.994981
0.99498
0.994978
0.994974
0.99497
0.994963
0.994956
0.994952
0.994952
0.994957
0.994961
0.994964
0.994966
0.994963
0.994961
0.994959
0.994963
0.99497
0.994976
0.994981
0.994985
0.994992
0.995002
0.995008
0.995014
0.995016
0.995013
0.995011
0.994999
0.994994
0.994986
0.994983
0.994973
0.994973
0.994964
0.994966
0.994957
0.994961
0.994951
0.994958
0.994947
0.994955
0.994942
0.994951
0.994938
0.994948
0.994934
0.994944
0.994929
0.99494
0.994922
0.994934
0.994912
0.994925
0.994897
0.99491
0.994875
0.994887
0.994843
0.994856
0.994807
0.994825
0.994783
0.994816
0.994795
0.994848
0.994854
0.994917
0.994939
0.995
0.995036
0.995093
0.995132
0.995181
0.99496
0.994974
0.99498
0.994979
0.994976
0.994974
0.994973
0.994973
0.994971
0.994969
0.994965
0.994959
0.994953
0.99495
0.994952
0.994957
0.994961
0.994963
0.994963
0.994961
0.994961
0.994963
0.994966
0.994968
0.994971
0.994981
0.994993
0.995007
0.995011
0.995015
0.995016
0.995012
0.995011
0.994997
0.994994
0.994982
0.99498
0.99497
0.994969
0.99496
0.994961
0.994952
0.994955
0.994945
0.99495
0.99494
0.994947
0.994936
0.994944
0.994933
0.994941
0.994929
0.994939
0.994926
0.994936
0.994921
0.994933
0.994915
0.994927
0.994905
0.994919
0.994891
0.994905
0.994869
0.994883
0.994841
0.994859
0.994819
0.994849
0.994826
0.994875
0.994879
0.994941
0.994965
0.995027
0.995063
0.995119
0.995153
0.995202
0.995235
0.99496
0.994976
0.994983
0.994982
0.994977
0.994972
0.99497
0.994968
0.994967
0.994964
0.99496
0.994955
0.994951
0.994949
0.994951
0.994956
0.994959
0.99496
0.99496
0.994959
0.994959
0.99496
0.994964
0.994974
0.994987
0.994999
0.995005
0.995007
0.995013
0.995019
0.995011
0.995011
0.99499
0.994994
0.994979
0.994978
0.994968
0.994966
0.994956
0.994956
0.994946
0.994947
0.994939
0.99494
0.994934
0.994935
0.99493
0.994933
0.994928
0.994931
0.994926
0.994931
0.994926
0.99493
0.994925
0.99493
0.994924
0.99493
0.994922
0.994928
0.994917
0.994923
0.994907
0.99491
0.994891
0.994893
0.994875
0.994884
0.99488
0.994905
0.994925
0.994967
0.995007
0.995059
0.995103
0.995154
0.995188
0.995235
0.995259
0.9953
0.994959
0.994979
0.994988
0.994988
0.994981
0.994974
0.994969
0.994966
0.994964
0.99496
0.994956
0.994952
0.994949
0.994949
0.994951
0.994956
0.99496
0.994962
0.994961
0.99496
0.994962
0.99497
0.994983
0.994998
0.995007
0.995012
0.995015
0.995018
0.995021
0.995007
0.995005
0.994986
0.994997
0.994971
0.994977
0.994962
0.99496
0.994949
0.994944
0.994935
0.99493
0.994923
0.99492
0.994917
0.994914
0.994915
0.994912
0.994915
0.994913
0.994917
0.994917
0.994922
0.994921
0.994927
0.994927
0.994934
0.994932
0.99494
0.994937
0.994945
0.994939
0.994945
0.994935
0.99494
0.994924
0.994934
0.994919
0.994942
0.994937
0.994981
0.994997
0.995056
0.995088
0.995146
0.995185
0.995225
0.99526
0.995283
0.995323
0.995353
0.994962
0.994983
0.994994
0.994995
0.994988
0.994979
0.994971
0.994966
0.994962
0.994957
0.994953
0.99495
0.994949
0.994949
0.994953
0.994958
0.994962
0.994962
0.99496
0.994958
0.994959
0.994963
0.994965
0.994963
0.994965
0.99498
0.995002
0.995014
0.995008
0.994998
0.994986
0.994987
0.994965
0.994974
0.994949
0.994951
0.994932
0.994922
0.994912
0.994899
0.994895
0.994886
0.994884
0.994879
0.99488
0.994877
0.994882
0.994881
0.994888
0.994889
0.994899
0.994901
0.994911
0.994914
0.994926
0.994927
0.99494
0.99494
0.994952
0.99495
0.994961
0.994954
0.994964
0.994953
0.994965
0.994955
0.994975
0.994976
0.995009
0.99503
0.995072
0.995108
0.995156
0.995196
0.995238
0.995272
0.995308
0.995344
0.995391
0.995439
0.994964
0.994986
0.994999
0.995002
0.994995
0.994985
0.994975
0.994967
0.99496
0.994955
0.99495
0.994949
0.994949
0.99495
0.994952
0.994957
0.99496
0.994959
0.994958
0.994959
0.994967
0.994981
0.995
0.995027
0.995057
0.995069
0.995051
0.995016
0.994987
0.994987
0.99497
0.994973
0.994955
0.994941
0.994928
0.994906
0.99489
0.994878
0.994862
0.994862
0.994847
0.994848
0.994843
0.994842
0.994843
0.994843
0.994847
0.99485
0.994857
0.994863
0.994872
0.994879
0.99489
0.994899
0.994911
0.99492
0.994932
0.994938
0.99495
0.994953
0.994964
0.994963
0.994975
0.994971
0.994989
0.994982
0.995019
0.995012
0.99507
0.995069
0.995134
0.995154
0.995216
0.995249
0.995297
0.99535
0.995387
0.995449
0.995494
0.995557
0.994965
0.994987
0.995004
0.995008
0.995003
0.994991
0.99498
0.994969
0.994959
0.994952
0.994948
0.994948
0.99495
0.99495
0.994951
0.994955
0.994958
0.994958
0.99496
0.994966
0.994976
0.994988
0.995002
0.995012
0.995004
0.99498
0.994958
0.994952
0.994976
0.994956
0.994965
0.994926
0.994926
0.994894
0.99488
0.994868
0.994862
0.994853
0.994854
0.994843
0.994852
0.994845
0.994846
0.994844
0.994842
0.994843
0.994842
0.994846
0.994848
0.994857
0.994861
0.994874
0.99488
0.994895
0.994902
0.99492
0.994925
0.994945
0.994946
0.994967
0.994963
0.994987
0.994979
0.995013
0.994998
0.995053
0.995024
0.995099
0.99509
0.995159
0.99517
0.99524
0.995239
0.995341
0.995375
0.995419
0.995468
0.995502
0.99556
0.995596
0.994967
0.994988
0.995006
0.995014
0.995009
0.994997
0.994984
0.99497
0.994958
0.994949
0.994945
0.994947
0.994951
0.994952
0.994953
0.994958
0.994962
0.994964
0.994965
0.994969
0.994973
0.994978
0.994979
0.994972
0.994964
0.994974
0.994998
0.995024
0.994983
0.994955
0.994887
0.994894
0.994866
0.994876
0.994904
0.994894
0.99491
0.994923
0.994927
0.994943
0.994934
0.994942
0.994934
0.994924
0.994915
0.994903
0.994896
0.994886
0.994885
0.994879
0.994884
0.994886
0.994897
0.994904
0.994919
0.994928
0.994945
0.994952
0.994974
0.994976
0.995001
0.995001
0.995031
0.995027
0.995072
0.995049
0.995117
0.995117
0.995181
0.995197
0.995266
0.995198
0.995446
0.995331
0.995459
0.995476
0.995502
0.995545
0.995574
0.995594
0.994965
0.994986
0.995007
0.995017
0.995014
0.995002
0.994987
0.994971
0.994956
0.994946
0.994943
0.994947
0.994952
0.994954
0.994956
0.994961
0.994965
0.994966
0.994966
0.99497
0.994979
0.994991
0.995004
0.995016
0.995034
0.995042
0.995027
0.994943
0.994888
0.994821
0.994844
0.99482
0.994872
0.995009
0.995003
0.995063
0.995077
0.995102
0.995122
0.995119
0.995138
0.995132
0.99512
0.995091
0.995084
0.995037
0.995024
0.994989
0.994965
0.994946
0.994927
0.994926
0.994926
0.994941
0.994952
0.994969
0.99498
0.995001
0.995008
0.995033
0.995043
0.995063
0.995076
0.995101
0.995108
0.995165
0.995147
0.995254
0.995239
0.995365
0.995256
0.995638
0.995183
0.995513
0.995413
0.995453
0.995526
0.995551
0.995566
0.995596
0.994962
0.994983
0.995007
0.995019
0.995017
0.995005
0.994989
0.994971
0.994954
0.994943
0.99494
0.994945
0.994952
0.994954
0.994956
0.99496
0.994963
0.994963
0.994965
0.994973
0.994987
0.995004
0.995021
0.995036
0.995029
0.994989
0.994899
0.994848
0.994799
0.99487
0.994882
0.994989
0.995151
0.995182
0.995189
0.995245
0.995265
0.995281
0.995292
0.995304
0.995309
0.995321
0.995332
0.995291
0.995281
0.99525
0.995206
0.995171
0.995121
0.995073
0.995018
0.994989
0.994977
0.99499
0.995005
0.995022
0.995056
0.995065
0.9951
0.995114
0.995134
0.995159
0.995168
0.995203
0.99524
0.995231
0.995368
0.995327
0.995553
0.995504
0.995899
0.99538
0.995726
0.995364
0.995378
0.995366
0.995366
0.995406
0.995487
0.995499
0.994959
0.99498
0.995005
0.995019
0.995018
0.995007
0.99499
0.994971
0.994953
0.99494
0.994937
0.994944
0.994951
0.994953
0.994953
0.994955
0.994957
0.994958
0.994964
0.994977
0.99499
0.994997
0.994995
0.994974
0.994935
0.99488
0.994854
0.994841
0.994933
0.994994
0.995121
0.99503
0.994938
0.995076
0.995143
0.995207
0.995192
0.995192
0.995199
0.995212
0.995244
0.995289
0.995364
0.995399
0.995386
0.995406
0.995379
0.995372
0.995336
0.995284
0.995193
0.995108
0.995054
0.995039
0.995034
0.995089
0.995107
0.995166
0.995197
0.995238
0.995259
0.995275
0.995305
0.995324
0.995348
0.995432
0.995445
0.995605
0.995651
0.995945
0.995768
0.996078
0.99561
0.995538
0.995382
0.995382
0.995309
0.995262
0.995292
0.995419
0.994954
0.994976
0.995003
0.995018
0.995019
0.995008
0.994991
0.994971
0.994951
0.994937
0.994934
0.994941
0.99495
0.994953
0.994952
0.994954
0.994958
0.994963
0.994971
0.994981
0.994983
0.994977
0.994962
0.994939
0.994913
0.994886
0.994885
0.994927
0.994971
0.99506
0.995093
0.995093
0.995098
0.995007
0.9951
0.995184
0.995172
0.995159
0.995157
0.995169
0.995201
0.995247
0.995309
0.995362
0.995386
0.995408
0.99541
0.995433
0.995467
0.995465
0.995411
0.995315
0.995193
0.995101
0.995106
0.995101
0.995152
0.995231
0.995302
0.995329
0.995373
0.995379
0.99541
0.995408
0.995461
0.995492
0.995542
0.995606
0.995687
0.995762
0.995883
0.995714
0.995602
0.995567
0.995479
0.995597
0.99548
0.995375
0.995367
0.995435
0.994948
0.994971
0.995
0.995017
0.995018
0.995008
0.994991
0.99497
0.994949
0.994935
0.994932
0.99494
0.994949
0.994953
0.994953
0.994958
0.994964
0.99497
0.994975
0.994979
0.99498
0.994982
0.994982
0.994976
0.994949
0.994937
0.994928
0.994948
0.994976
0.995067
0.995205
0.99531
0.995298
0.995281
0.995182
0.99515
0.995133
0.995127
0.995132
0.995149
0.995179
0.995219
0.995266
0.995314
0.99535
0.99538
0.995401
0.995413
0.995433
0.995444
0.995471
0.995482
0.995359
0.995238
0.995142
0.995116
0.995172
0.995261
0.995347
0.995425
0.995435
0.995467
0.995472
0.995499
0.995497
0.995493
0.995542
0.995535
0.995591
0.995626
0.995662
0.995581
0.995629
0.99556
0.995604
0.995564
0.995515
0.995466
0.995446
0.99546
0.994946
0.994969
0.994998
0.995015
0.995016
0.995007
0.994991
0.99497
0.994949
0.994933
0.99493
0.994939
0.994949
0.994953
0.994955
0.99496
0.994968
0.994972
0.994973
0.994973
0.994975
0.99498
0.994986
0.994976
0.994946
0.994904
0.994863
0.994885
0.994981
0.995129
0.995264
0.995249
0.995205
0.995185
0.995121
0.995101
0.995096
0.995101
0.995113
0.995134
0.995162
0.995195
0.995232
0.99527
0.995304
0.995337
0.995366
0.995388
0.995407
0.995423
0.995444
0.995491
0.995497
0.995425
0.99532
0.995248
0.995181
0.995219
0.995389
0.995431
0.995466
0.995524
0.995541
0.995559
0.995556
0.99555
0.995514
0.995497
0.99549
0.99549
0.995507
0.995499
0.995513
0.99553
0.995529
0.995522
0.995505
0.99548
0.995466
0.995461
0.994945
0.994967
0.994995
0.995012
0.995014
0.995006
0.994991
0.994971
0.994949
0.994933
0.994929
0.994938
0.994949
0.994953
0.994954
0.994957
0.994961
0.994962
0.99496
0.994961
0.994966
0.994972
0.994966
0.994917
0.994853
0.994774
0.994802
0.994921
0.995096
0.995225
0.995224
0.995116
0.995074
0.995081
0.995065
0.995061
0.995068
0.99508
0.995096
0.995117
0.995144
0.995173
0.995203
0.995234
0.995266
0.995297
0.995326
0.995349
0.995373
0.995392
0.995408
0.995432
0.995451
0.99546
0.995429
0.99542
0.995436
0.995375
0.995339
0.995339
0.995395
0.995461
0.995487
0.99549
0.995504
0.995501
0.995473
0.99545
0.995442
0.995435
0.995446
0.99545
0.99547
0.995483
0.995493
0.995494
0.995487
0.995478
0.995467
0.99546
0.994945
0.994967
0.994994
0.99501
0.995013
0.995005
0.994992
0.994973
0.994951
0.994933
0.994929
0.994937
0.994949
0.994953
0.994952
0.994952
0.994952
0.994951
0.994951
0.994955
0.994959
0.994953
0.994912
0.994854
0.994787
0.994819
0.994951
0.99512
0.99523
0.995228
0.995088
0.995
0.995003
0.995013
0.995019
0.995029
0.995043
0.99506
0.995078
0.995099
0.995124
0.995151
0.995178
0.995207
0.995236
0.995266
0.995292
0.995316
0.99534
0.995359
0.995371
0.995388
0.995407
0.995422
0.99542
0.995423
0.995425
0.995421
0.995412
0.995364
0.995371
0.995408
0.995419
0.995415
0.99542
0.995426
0.995409
0.9954
0.995391
0.995393
0.995397
0.995416
0.995432
0.995451
0.995464
0.995469
0.995473
0.995467
0.995464
0.995454
0.994945
0.994965
0.994992
0.995008
0.995011
0.995005
0.994993
0.994975
0.994953
0.994935
0.994929
0.994936
0.994948
0.994954
0.994953
0.994952
0.994951
0.99495
0.994952
0.99496
0.994964
0.994948
0.994912
0.994868
0.994885
0.994999
0.995151
0.995263
0.995289
0.995123
0.994989
0.994931
0.99495
0.994962
0.994979
0.994999
0.995019
0.995039
0.995059
0.995081
0.995105
0.99513
0.995156
0.995184
0.995213
0.995242
0.995268
0.995294
0.995315
0.995331
0.995345
0.995355
0.995373
0.995384
0.995391
0.995397
0.995402
0.995405
0.995401
0.995388
0.995378
0.995386
0.995382
0.995364
0.995362
0.995359
0.995356
0.995349
0.995359
0.995355
0.995371
0.995384
0.995406
0.995423
0.995437
0.995449
0.995453
0.995457
0.995453
0.995448
0.994945
0.994967
0.994992
0.995007
0.995009
0.995004
0.994994
0.994978
0.994957
0.994938
0.994931
0.994936
0.994948
0.994954
0.994955
0.994956
0.994959
0.994962
0.994966
0.994972
0.994968
0.994952
0.994933
0.994953
0.995053
0.995196
0.995308
0.995343
0.995206
0.995032
0.994905
0.994869
0.994902
0.994915
0.994939
0.994965
0.994991
0.995015
0.995038
0.99506
0.995084
0.995109
0.995134
0.995162
0.995191
0.99522
0.995249
0.995274
0.995297
0.995315
0.995325
0.995336
0.995345
0.995356
0.99536
0.995366
0.995371
0.995371
0.995372
0.995368
0.995365
0.995362
0.99535
0.995335
0.995325
0.995321
0.995318
0.995323
0.995328
0.995338
0.99535
0.995369
0.995386
0.995405
0.995419
0.995429
0.99544
0.995441
0.995442
0.995437
0.99495
0.994969
0.994993
0.995006
0.995008
0.995004
0.994996
0.994982
0.994961
0.994943
0.994933
0.994936
0.994947
0.994954
0.994955
0.994956
0.994962
0.994971
0.994975
0.994975
0.994968
0.994963
0.994982
0.995054
0.995168
0.99526
0.995306
0.995306
0.995176
0.994949
0.994773
0.994774
0.994853
0.994877
0.994901
0.994933
0.994964
0.994991
0.995015
0.995039
0.995062
0.995085
0.995111
0.995138
0.995167
0.995198
0.995225
0.995254
0.99528
0.995302
0.995314
0.995323
0.995331
0.995336
0.995341
0.995343
0.995344
0.995344
0.995341
0.995339
0.995337
0.995333
0.995322
0.995311
0.995304
0.995299
0.995301
0.995306
0.995316
0.995325
0.995341
0.995357
0.995376
0.995392
0.995407
0.99542
0.995426
0.995432
0.995429
0.995426
0.994962
0.994981
0.995
0.995008
0.995008
0.995004
0.994998
0.994986
0.994967
0.994948
0.994937
0.994937
0.994945
0.994951
0.994952
0.994953
0.994957
0.994964
0.99497
0.994966
0.99496
0.994964
0.995009
0.995101
0.995197
0.995274
0.995378
0.995338
0.99511
0.994855
0.99461
0.994663
0.99481
0.994857
0.994884
0.994915
0.994945
0.994972
0.994995
0.995017
0.995039
0.995061
0.995085
0.995112
0.99514
0.995169
0.9952
0.99523
0.99526
0.995286
0.995302
0.995315
0.995322
0.995329
0.995331
0.995332
0.99533
0.995326
0.995322
0.995317
0.995314
0.995308
0.9953
0.995294
0.99529
0.995289
0.995293
0.995301
0.99531
0.995323
0.995336
0.995353
0.99537
0.995386
0.995401
0.99541
0.995418
0.99542
0.995419
0.995413
0.99497
0.994987
0.995003
0.995007
0.995005
0.995002
0.994999
0.99499
0.994973
0.994954
0.994942
0.994939
0.994944
0.994948
0.994948
0.994946
0.994946
0.994948
0.994947
0.994944
0.994941
0.994965
0.995026
0.995108
0.995178
0.995284
0.995403
0.995372
0.995194
0.994746
0.994483
0.994584
0.99478
0.994853
0.994884
0.994911
0.994937
0.99496
0.99498
0.994999
0.995018
0.995038
0.99506
0.995085
0.995112
0.995142
0.995171
0.995205
0.995235
0.995265
0.995287
0.995302
0.995315
0.995323
0.995328
0.995329
0.995326
0.995321
0.995315
0.995308
0.995301
0.995294
0.995288
0.995284
0.995283
0.995286
0.995292
0.9953
0.995311
0.995323
0.995338
0.995353
0.99537
0.995385
0.995397
0.995406
0.99541
0.995412
0.995408
0.995403
0.994976
0.994993
0.995004
0.995004
0.995001
0.994999
0.994999
0.994994
0.99498
0.994961
0.994948
0.994942
0.994943
0.994946
0.994944
0.994941
0.994939
0.994935
0.99493
0.99493
0.994939
0.99497
0.995029
0.995094
0.995185
0.995395
0.995527
0.995427
0.995147
0.994678
0.994503
0.994688
0.994829
0.994876
0.994898
0.994919
0.994937
0.994954
0.99497
0.994984
0.995
0.995014
0.995037
0.99506
0.995087
0.995115
0.995146
0.995176
0.995208
0.995239
0.995266
0.995287
0.995304
0.995316
0.995325
0.995329
0.995329
0.995326
0.995319
0.99531
0.995301
0.995294
0.995288
0.995285
0.995285
0.995289
0.995296
0.995305
0.995316
0.995329
0.995343
0.995358
0.995372
0.995385
0.995396
0.995401
0.995405
0.995403
0.9954
0.995393
0.994975
0.994989
0.994998
0.994999
0.994996
0.994996
0.994999
0.994996
0.994986
0.994969
0.994955
0.994948
0.994946
0.994945
0.994943
0.994941
0.994939
0.994937
0.994934
0.994935
0.994949
0.994986
0.995028
0.995082
0.995246
0.995491
0.995563
0.995461
0.995051
0.99479
0.994637
0.994745
0.994854
0.994898
0.994919
0.994935
0.994945
0.994956
0.994964
0.994974
0.99498
0.994995
0.995012
0.995034
0.995059
0.995089
0.995118
0.995149
0.99518
0.995213
0.99524
0.995266
0.995285
0.995303
0.995316
0.995325
0.995329
0.995329
0.995325
0.995316
0.995308
0.995301
0.995295
0.995291
0.995292
0.995297
0.995305
0.995313
0.995323
0.995336
0.99535
0.995365
0.995376
0.995388
0.995395
0.995399
0.995399
0.995398
0.995391
0.995384
0.994978
0.994989
0.994995
0.994995
0.994994
0.994995
0.994998
0.995
0.994992
0.994976
0.994962
0.994954
0.994949
0.994947
0.994944
0.994942
0.994946
0.99495
0.994954
0.994958
0.994976
0.994986
0.995008
0.9951
0.995351
0.995535
0.995487
0.995279
0.995005
0.994856
0.994781
0.994839
0.994895
0.994926
0.994942
0.994952
0.994958
0.99496
0.994964
0.994964
0.994971
0.99498
0.994994
0.995011
0.995035
0.99506
0.99509
0.995117
0.99515
0.995181
0.995213
0.995239
0.995264
0.995283
0.995303
0.995317
0.995325
0.995329
0.995327
0.995323
0.995317
0.995311
0.995306
0.995302
0.995301
0.995307
0.995317
0.995326
0.995334
0.995346
0.995359
0.995371
0.995382
0.99539
0.995395
0.995397
0.995395
0.995391
0.995383
0.995373
0.99498
0.994986
0.99499
0.994989
0.994987
0.994988
0.994994
0.994998
0.994996
0.994984
0.99497
0.994961
0.994956
0.99495
0.994945
0.994942
0.994943
0.994951
0.99496
0.994969