/*--------------------------------*- C++ -*----------------------------------*\
  =========                 |
  \\      /  F ield         | OpenFOAM: The Open Source CFD Toolbox
   \\    /   O peration     | Website:  https://openfoam.org
    \\  /    A nd           | Version:  7
     \\/     M anipulation  |
\*---------------------------------------------------------------------------*/
FoamFile
{
    version     2.0;
    format      ascii;
    class       volVectorField;
    location    "10";
    object      U;
}
// * * * * * * * * * * * * * * * * * * * * * * * * * * * * * * * * * * * * * //

dimensions      [0 1 -1 0 0 0 0];

internalField   nonuniform List<vector> 
49920
(
(-0.00643832 0.000393244 -1.02985e-29)
(-0.0133593 0.00492006 7.57796e-30)
(-0.00522533 0.00461948 4.39823e-29)
(-0.00347509 0.00614054 -6.17878e-29)
(-0.000747414 0.00599142 -4.42732e-29)
(-0.00190084 0.00881782 -6.82336e-29)
(-0.00166337 0.00615364 -4.28013e-29)
(-0.000108883 0.00390219 0)
(0.000926648 0.00480378 -6.15377e-29)
(0.00272718 0.00737175 -1.76194e-29)
(0.00218954 0.00653555 1.6897e-28)
(0.00284794 0.00481052 0)
(0.0058762 0.00434877 2.80495e-28)
(0.00672529 0.00217417 9.11386e-36)
(0.0142844 0.000197462 0)
(0.00782943 -0.00199616 -2.05315e-28)
(0.044006 0.00212704 -3.46901e-28)
(0.0253171 0.00975409 2.22973e-29)
(0.012916 0.0128538 0)
(0.00957333 0.0130967 2.02176e-29)
(0.00772075 0.013192 1.77032e-29)
(0.00688907 0.013319 3.34847e-30)
(0.00671454 0.0133392 0)
(0.00675264 0.0132959 -1.00732e-30)
(0.00687609 0.0132212 8.64803e-31)
(0.00704402 0.0131269 -9.37896e-33)
(0.00723521 0.0130196 2.12753e-30)
(0.00743932 0.0129027 0)
(0.0076507 0.0127778 0)
(0.00786613 0.0126462 0)
(0.00808372 0.0125083 0)
(0.00830224 0.0123645 0)
(0.00852093 0.0122152 0)
(0.00873923 0.0120603 4.19659e-30)
(0.00895679 0.0118999 5.59247e-30)
(0.00917335 0.011734 -5.88566e-31)
(0.0093887 0.0115627 -5.35857e-30)
(0.00960262 0.0113857 -4.91357e-30)
(0.00981493 0.0112033 -6.02262e-31)
(0.0100254 0.0110153 -1.86449e-38)
(0.0102339 0.0108217 -1.8864e-38)
(0.0104402 0.0106225 6.15675e-31)
(0.0106442 0.0104179 5.21762e-30)
(0.0108454 0.0102077 5.84775e-30)
(0.0110439 0.00999218 6.26744e-31)
(0.0112392 0.00977133 -6.40531e-30)
(0.0114311 0.00954533 -5.09204e-30)
(0.0116196 0.0093143 0)
(0.0118042 0.00907839 0)
(0.0119849 0.00883795 0)
(0.012161 0.00859291 0)
(0.0123329 0.00834396 0)
(0.0124995 0.00809069 0)
(0.0126618 0.00783404 -4.91359e-30)
(0.0128182 0.00757341 -1.283e-32)
(0.0129705 0.00730999 -1.25165e-30)
(0.0131166 0.0070429 4.53627e-30)
(0.0132579 0.00677333 0)
(0.0133927 0.00650078 2.13876e-30)
(0.0135229 0.00622609 4.17081e-30)
(0.0136463 0.00594872 2.03706e-30)
(0.013765 0.00566964 0)
(0.0138766 0.0053883 0)
(0.0139837 0.00510557 -1.91033e-30)
(0.0140835 0.00482086 -1.88894e-30)
(0.0141787 0.00453514 0)
(0.0142665 0.00424793 -1.12203e-37)
(0.0143498 0.00395997 5.99433e-31)
(0.0144257 0.0036707 0)
(0.0144971 0.00338089 2.98451e-31)
(0.0145611 0.0030902 -1.09598e-30)
(0.0146204 0.00279908 -1.10733e-30)
(0.0146729 0.00250705 0)
(0.0147201 0.0022145 -1.13143e-30)
(0.0147612 0.00192111 -1.13965e-30)
(0.0147961 0.00162715 4.94304e-31)
(0.014826 0.00133217 4.1515e-31)
(0.0148484 0.0010367 -1.5994e-31)
(0.0148671 0.000740199 -1.58285e-31)
(0.0148774 0.000443476 1.17463e-31)
(-0.0033959 0.000341949 0)
(-0.00763049 0.0102785 0)
(-0.00420727 0.0114298 7.16866e-29)
(-0.00380124 0.011567 -2.96628e-29)
(-0.00247599 0.0118327 -1.67724e-28)
(-0.00227233 0.0229882 -3.44497e-28)
(0.000654568 0.0104506 -1.49037e-28)
(0.00301156 0.0185714 5.65319e-30)
(0.00196876 0.0139564 0)
(0.00226993 0.0134716 -1.61841e-28)
(0.00504482 0.0142984 3.24675e-28)
(0.00585929 0.0109086 -3.02125e-28)
(0.00715952 0.00906512 5.3159e-28)
(0.00927107 0.0081129 3.51173e-28)
(0.0126647 0.00727782 -2.58564e-28)
(0.00430297 -0.000921731 0)
(0.0285036 0.010499 0)
(0.030083 0.0161547 3.847e-29)
(0.0229453 0.0175981 -5.91155e-31)
(0.0164427 0.0157769 -1.14512e-29)
(0.0114636 0.0141839 -3.88842e-30)
(0.00869072 0.0135484 0)
(0.0075048 0.0133258 0)
(0.00699372 0.0132358 0)
(0.00679032 0.013178 2.53334e-31)
(0.00674837 0.0131203 1.52429e-30)
(0.00679378 0.0130566 2.26357e-30)
(0.00688953 0.0129855 8.01211e-31)
(0.00701602 0.012907 -8.7432e-31)
(0.00716246 0.0128215 -9.25237e-31)
(0.00732247 0.0127291 0)
(0.00749224 0.0126302 4.40797e-30)
(0.00766936 0.0125246 4.71477e-30)
(0.00785228 0.0124122 0)
(0.00803999 0.012293 7.31874e-30)
(0.00823183 0.0121666 6.49088e-30)
(0.00842725 0.0120328 5.54913e-30)
(0.00862586 0.0118913 4.58095e-30)
(0.00882721 0.011742 3.04905e-38)
(0.00903099 0.0115845 -1.01214e-38)
(0.00923676 0.0114189 -1.02387e-38)
(0.00944418 0.0112448 3.15688e-38)
(0.00965272 0.0110624 -4.79819e-30)
(0.00986196 0.0108716 -6.06081e-30)
(0.0100713 0.0106725 -7.29084e-30)
(0.0102803 0.0104654 -8.58357e-30)
(0.0104884 0.0102504 0)
(0.010695 0.0100279 -5.82131e-30)
(0.0108995 0.00979815 -5.73408e-30)
(0.0111013 0.00956136 0)
(0.0113002 0.00931836 1.32929e-30)
(0.0114948 0.00906904 1.3355e-30)
(0.011686 0.00881458 -1.34173e-30)
(0.0118719 0.00855456 -5.08987e-30)
(0.0120537 0.00829037 4.98153e-30)
(0.0122294 0.00802129 1.34276e-30)
(0.0124002 0.00774896 0)
(0.0125644 0.00747279 0)
(0.0127233 0.00719394 0)
(0.0128753 0.00691203 -6.66614e-31)
(0.0130216 0.00662799 -6.66528e-31)
(0.0131608 0.00634158 2.05109e-30)
(0.0132941 0.00605356 2.68118e-30)
(0.0134203 0.00576373 0)
(0.0135404 0.00547256 0)
(0.0136533 0.00518015 -1.92581e-30)
(0.01376 0.00488678 -6.46259e-31)
(0.0138599 0.00459253 1.26421e-30)
(0.0139531 0.00429732 -6.30043e-31)
(0.0140402 0.00400154 -1.307e-30)
(0.01412 0.00370498 -2.5863e-30)
(0.0141943 0.00340791 0)
(0.0142609 0.00310984 1.00336e-30)
(0.0143228 0.00281108 1.72511e-30)
(0.0143762 0.00251131 7.22544e-31)
(0.0144255 0.00221051 5.12421e-31)
(0.0144657 0.00190859 5.15034e-31)
(0.0145022 0.00160523 1.64465e-31)
(0.0145299 0.00130053 0)
(0.0145526 0.000994137 0)
(-0.00460989 -0.00443666 2.1207e-31)
(1.52011e-05 0.00359321 -6.85507e-32)
(-0.0022939 0.00469518 5.84123e-29)
(-0.00561254 0.0116727 0)
(-0.00292681 0.0115367 -7.16107e-29)
(-0.000995162 0.013102 1.64529e-28)
(0.000739096 0.00786871 4.43014e-30)
(0.00167656 0.0113186 -1.40178e-30)
(0.002285 0.018076 -1.17969e-29)
(0.00137623 0.0123351 -6.35777e-28)
(0.00330327 0.0107438 -2.32982e-29)
(0.00550484 0.0103008 -7.23431e-28)
(0.0077681 0.00873975 2.50384e-28)
(0.00759323 0.00534865 2.92679e-29)
(0.00547455 0.00312227 -1.14991e-28)
(0.0135991 -0.00647182 0)
(0.0132276 0.00533954 0)
(0.0221623 0.0176342 1.59387e-36)
(0.0239999 0.0219196 1.08752e-29)
(0.0196715 0.0200434 1.41624e-30)
(0.0141391 0.0169533 3.15591e-30)
(0.0103166 0.0149588 -6.66226e-30)
(0.00829607 0.0139995 -3.66189e-30)
(0.0072613 0.0135859 -1.97363e-30)
(0.00673467 0.0133998 -1.02155e-30)
(0.00648102 0.0133003 0)
(0.00637844 0.0132354 0)
(0.00636383 0.013183 1.09026e-31)
(0.00640385 0.0131333 1.46523e-37)
(0.00647986 0.0130818 3.38492e-30)
(0.006581 0.0130262 3.64972e-30)
(0.00670077 0.012965 5.24364e-31)
(0.00683505 0.0128974 0)
(0.0069813 0.0128226 6.36163e-31)
(0.00713781 0.0127398 6.86185e-31)
(0.00730348 0.0126484 -3.95549e-38)
(0.00747746 0.0125478 -5.51101e-30)
(0.00765911 0.0124376 -7.32661e-30)
(0.00784783 0.0123171 -4.89312e-30)
(0.0080431 0.0121861 -4.95641e-30)
(0.00824435 0.0120443 4.95842e-30)
(0.00845098 0.0118914 4.97644e-30)
(0.00866233 0.0117275 7.03887e-30)
(0.00887765 0.0115526 6.0034e-30)
(0.0090962 0.0113667 -4.41339e-38)
(0.00931715 0.0111703 -1.16353e-30)
(0.00953986 0.0109637 -1.18702e-30)
(0.00976307 0.0107471 0)
(0.0099862 0.0105213 -1.22017e-30)
(0.0102081 0.0102865 -4.27997e-30)
(0.0104281 0.0100436 -4.18264e-30)
(0.0106458 0.00979364 2.29553e-37)
(0.0108597 0.00953632 6.44464e-30)
(0.0110699 0.009273 0)
(0.0112754 0.00900419 0)
(0.0114755 0.00873038 -1.29329e-30)
(0.01167 0.00845223 -1.28138e-30)
(0.0118583 0.0081703 -1.29259e-30)
(0.0120404 0.00788515 -1.27344e-30)
(0.0122156 0.00759711 -4.24744e-30)
(0.0123842 0.00730674 -6.8637e-30)
(0.0125455 0.00701421 -2.03428e-30)
(0.0126999 0.00672017 1.28445e-37)
(0.0128466 0.00642444 0)
(0.0129867 0.00612772 0)
(0.0131186 0.00582971 -6.02139e-31)
(0.0132442 0.00553122 -1.30778e-30)
(0.0133613 0.00523156 -2.61258e-30)
(0.0134726 0.00493152 -4.91464e-30)
(0.013575 0.00463038 -1.91623e-30)
(0.013672 0.00432891 -1.30671e-31)
(0.01376 0.0040262 9.81904e-31)
(0.0138431 0.00372278 -9.90563e-31)
(0.013917 0.00341788 -1.01068e-30)
(0.0139858 0.00311179 2.70651e-31)
(0.0140457 0.00280397 0)
(0.0141001 0.00249436 0)
(0.0141465 0.00218252 1.40962e-31)
(0.0141857 0.00186837 1.22327e-31)
(0.0142175 0.0015516 1.02455e-31)
(-0.00085732 -0.00314901 7.85891e-31)
(-0.00146642 0.00897707 -4.29272e-31)
(-0.00312236 0.0253462 3.736e-29)
(0.00027 0.00485545 -3.06979e-29)
(0.000562305 0.00689176 0)
(0.000627657 0.00566611 -1.62933e-38)
(0.000559804 0.00431536 0)
(0.000805496 0.00584794 0)
(-0.00162322 0.00713926 0)
(-0.0015263 0.00818734 -2.77507e-28)
(0.00155303 0.00779103 -4.05641e-28)
(0.00244841 0.00705849 -1.89519e-28)
(0.00451943 0.00482084 2.94902e-28)
(0.00241001 0.00183202 1.47138e-29)
(0.0124727 0.00850501 -5.82055e-29)
(0.00714711 -0.000838196 1.67237e-29)
(0.00627984 0.00455285 0)
(0.0145713 0.016467 4.63914e-30)
(0.020392 0.023291 -1.36131e-29)
(0.0194197 0.0231328 -4.00333e-29)
(0.0151994 0.0199026 -1.04984e-29)
(0.0113151 0.0169347 -7.41888e-30)
(0.00883204 0.0151601 -2.43211e-30)
(0.00741636 0.0142838 -1.12948e-30)
(0.00663133 0.0138692 1.70748e-31)
(0.00619841 0.0136657 6.01519e-30)
(0.00596505 0.0135611 -1.56198e-32)
(0.00584969 0.0135026 -3.1405e-30)
(0.00580857 0.0134652 -1.22015e-37)
(0.00581702 0.0134358 -3.7054e-30)
(0.00586074 0.013408 2.22239e-32)
(0.00593091 0.0133775 4.52213e-30)
(0.00602227 0.0133419 -1.77043e-31)
(0.00613125 0.0132991 2.5876e-31)
(0.00625577 0.0132478 -5.14274e-30)
(0.00639417 0.0131866 -1.10787e-29)
(0.00654551 0.0131146 -5.50485e-30)
(0.00670882 0.0130308 -6.18463e-30)
(0.00688349 0.0129346 -1.08875e-29)
(0.0070687 0.0128254 -5.84928e-30)
(0.0072639 0.012703 5.89891e-30)
(0.00746816 0.0125669 1.10633e-29)
(0.00768078 0.0124172 5.97e-30)
(0.0079007 0.012254 5.94574e-30)
(0.00812707 0.0120776 1.18574e-29)
(0.00835876 0.0118884 5.886e-30)
(0.00859454 0.0116866 -1.07961e-30)
(0.00883353 0.0114733 1.11085e-30)
(0.00907395 0.0112484 -6.7327e-30)
(0.00931536 0.0110137 2.31839e-30)
(0.00955616 0.0107692 6.57255e-30)
(0.00979574 0.0105163 2.41124e-30)
(0.0100325 0.0102552 5.09348e-30)
(0.0102663 0.00998756 2.4163e-32)
(0.0104955 0.00971342 -8.45758e-30)
(0.0107201 0.00943421 -5.95699e-30)
(0.0109386 0.00914996 -5.79912e-30)
(0.0111514 0.00886213 -5.68188e-30)
(0.011357 0.00857057 -1.22863e-30)
(0.0115562 0.0082766 4.18583e-30)
(0.0117473 0.00797992 8.18236e-30)
(0.0119316 0.00768174 2.0138e-30)
(0.0121073 0.00738166 -2.54636e-30)
(0.012276 0.0070807 0)
(0.0124357 0.00677839 1.88573e-30)
(0.0125883 0.00647561 -1.07883e-30)
(0.0127319 0.00617186 -1.32645e-30)
(0.0128684 0.0058677 1.03816e-30)
(0.012996 0.00556268 -5.13397e-31)
(0.0131165 0.00525711 8.85393e-31)
(0.0132283 0.00495061 1.41511e-30)
(0.0133329 0.00464314 0)
(0.0134292 0.00433436 0)
(0.0135179 0.00402403 0)
(0.0135989 0.0037119 2.33929e-31)
(0.0136715 0.0033976 0)
(0.0137373 0.00308071 -5.07205e-31)
(0.0137939 0.00276093 -2.52328e-31)
(0.0138436 0.00243781 2.45053e-31)
(0.0138841 0.00211117 -1.63242e-32)
(-0.00151992 -0.00216145 5.85041e-32)
(-0.00158293 0.0049023 6.86315e-32)
(0.000878911 0.0166952 0)
(0.00421836 0.0114892 -1.12583e-30)
(0.00364059 0.0199482 0)
(0.00402121 0.0212389 1.91049e-37)
(0.00324215 0.0150293 -9.92753e-30)
(0.00318411 0.0214492 0)
(0.00305481 0.0337958 -1.91189e-28)
(0.000399929 0.00226838 -5.98291e-29)
(0.00125499 0.00626919 2.20046e-31)
(0.001074 0.0045376 -1.18408e-28)
(0.000522603 0.0020033 5.2813e-29)
(0.00444172 0.00664023 3.76223e-29)
(0.0055005 0.00331414 0)
(0.00430819 -0.00016178 1.30833e-29)
(0.00450192 0.0046862 -3.10305e-30)
(0.00971609 0.0149566 1.99829e-29)
(0.0158711 0.0229535 5.87293e-29)
(0.0172907 0.0247018 2.15848e-29)
(0.014862 0.022189 -8.74766e-30)
(0.0115494 0.0188612 -6.41291e-30)
(0.00899068 0.0164802 4.48864e-30)
(0.00737636 0.0151619 0)
(0.0064195 0.0144939 0)
(0.0058549 0.0141608 1.617e-30)
(0.00551841 0.0139969 -1.17758e-30)
(0.00531898 0.013918 8.63008e-31)
(0.00520678 0.0138819 -2.40626e-30)
(0.00515374 0.0138664 -3.48394e-30)
(0.00514336 0.0138595 -3.91484e-30)
(0.00516577 0.013854 1.79158e-31)
(0.00521482 0.0138452 1.26054e-31)
(0.00528657 0.0138298 -4.98668e-30)
(0.00537847 0.0138053 -1.35991e-31)
(0.0054888 0.0137698 2.29662e-31)
(0.00561632 0.0137218 0)
(0.0057601 0.0136601 -6.05017e-30)
(0.00591928 0.0135837 5.01073e-31)
(0.00609314 0.013492 6.44346e-30)
(0.00628078 0.0133843 -6.58412e-30)
(0.00648139 0.0132607 -7.96165e-31)
(0.00669388 0.013121 6.81853e-30)
(0.00691732 0.0129657 0)
(0.00715019 0.0127947 -2.01271e-30)
(0.00739143 0.0126091 1.05638e-30)
(0.00763946 0.0124091 6.8596e-30)
(0.00789288 0.0121957 2.32401e-30)
(0.00815043 0.0119702 1.17654e-30)
(0.00841034 0.0117327 -6.67101e-30)
(0.00867152 0.011485 4.03836e-30)
(0.00893247 0.0112276 7.74228e-30)
(0.00919203 0.0109619 1.30357e-30)
(0.00944894 0.0106888 -1.30559e-30)
(0.0097023 0.0104092 1.3194e-30)
(0.00995095 0.0101239 0)
(0.0101942 0.00983389 0)
(0.0104311 0.00953986 1.29619e-30)
(0.0106612 0.00924262 -1.29893e-30)
(0.010884 0.0089427 -1.26891e-30)
(0.011099 0.00864065 -4.00921e-30)
(0.0113059 0.00833698 -6.62201e-30)
(0.0115043 0.00803197 -3.84958e-30)
(0.0116944 0.00772609 5.86488e-31)
(0.0118753 0.00741929 0)
(0.0120481 0.0071121 -5.55149e-31)
(0.0122112 0.00680416 2.36876e-30)
(0.0123665 0.00649599 2.34936e-30)
(0.0125118 0.0061869 -5.183e-31)
(0.0126496 0.00587745 1.84016e-30)
(0.0127771 0.00556671 1.87461e-30)
(0.0128976 0.00525511 0)
(0.0130075 0.00494162 0)
(0.0131107 0.00462653 -2.30823e-31)
(0.0132031 0.0043089 0)
(0.0132887 0.00398867 0)
(0.013364 0.00366511 0)
(0.0134317 0.00333786 0)
(0.0134897 0.00300634 -2.43098e-31)
(0.0135393 0.00267026 -2.39071e-31)
(-0.00224413 -0.000478196 -5.21098e-31)
(-0.00275773 0.00326016 8.34153e-31)
(0.000535861 0.00827163 -2.53167e-32)
(0.00260106 0.00592626 -1.05226e-30)
(0.00255134 0.0110135 2.05658e-30)
(0.00362549 0.0125247 -3.02705e-29)
(0.00324442 0.00917337 -9.54227e-31)
(0.00349488 0.0146441 -1.62228e-29)
(0.00527943 0.0239306 3.26734e-29)
(0.00319205 0.00729826 2.42393e-29)
(0.00214562 0.0164549 3.88153e-29)
(0.00196837 0.0138099 -4.06527e-29)
(-0.000544257 0.00545451 -6.77477e-30)
(4.62024e-05 0.00233779 -1.5103e-29)
(0.00202917 0.00112922 -6.75024e-30)
(0.00291542 0.00108763 -3.57824e-30)
(0.00347064 0.00549035 5.98859e-31)
(0.00678178 0.0141814 1.7382e-32)
(0.0120237 0.0223005 -1.73285e-29)
(0.0145651 0.0253471 0)
(0.0136026 0.0237314 -6.69298e-30)
(0.0111003 0.0204698 -1.4561e-29)
(0.00875962 0.0177542 -1.52869e-30)
(0.00711757 0.0160953 4.19128e-30)
(0.00607754 0.015201 3.53364e-30)
(0.00543067 0.0147424 0)
(0.00502075 0.0145165 2.0101e-30)
(0.00475594 0.014413 4.7375e-30)
(0.00458455 0.0143736 9.04246e-31)
(0.00447744 0.0143675 0)
(0.00441754 0.0143771 5.46866e-31)
(0.00439484 0.0143924 -4.53926e-30)
(0.0044029 0.0144062 -4.48975e-30)
(0.00443786 0.014414 1.53398e-31)
(0.00449697 0.0144122 6.97595e-32)
(0.00457863 0.0143982 7.91256e-32)
(0.00468149 0.0143698 -5.71353e-30)
(0.00480472 0.0143255 -6.27306e-30)
(0.00494737 0.0142642 0)
(0.00510871 0.014185 -1.13354e-38)
(0.00528777 0.0140876 -1.14488e-38)
(0.00548365 0.0139717 0)
(0.00569525 0.0138376 7.63588e-30)
(0.00592103 0.0136854 6.87254e-30)
(0.00615984 0.0135162 -1.02219e-30)
(0.00640964 0.01333 2.21177e-30)
(0.00666946 0.0131287 1.15894e-30)
(0.00693698 0.0129123 6.84272e-30)
(0.00721094 0.0126828 -6.78649e-30)
(0.00748911 0.0124406 1.31076e-30)
(0.00777045 0.0121877 1.33829e-30)
(0.00805268 0.0119244 1.37645e-30)
(0.00833496 0.011653 -3.5951e-30)
(0.00861514 0.0113734 -6.28777e-30)
(0.00889276 0.0110879 0)
(0.00916566 0.0107962 -4.56801e-30)
(0.00943387 0.0105005 -4.45589e-30)
(0.00969524 0.0102005 5.69462e-30)
(0.00995037 0.00989803 2.82335e-30)
(0.010197 0.00959262 -1.36684e-30)
(0.0104365 0.00928601 0)
(0.0106662 0.00897745 5.15377e-30)
(0.0108882 0.00866854 2.4821e-32)
(0.0110996 0.00835834 -2.44433e-30)
(0.0113031 0.00804827 5.96047e-31)
(0.0114954 0.00773724 2.37979e-30)
(0.0116797 0.00742644 3.56635e-30)
(0.0118526 0.00711472 1.78702e-30)
(0.0120176 0.00680294 1.26684e-30)
(0.012171 0.00649 2.32876e-30)
(0.0123164 0.00617634 4.87661e-31)
(0.0124504 0.005861 0)
(0.0125762 0.00554396 2.35428e-31)
(0.012691 0.00522453 -9.68063e-31)
(0.0127969 0.00490224 -1.74112e-30)
(0.0128927 0.00457657 -1.99964e-30)
(0.0129786 0.00424698 -1.009e-30)
(0.0130556 0.0039128 -4.95762e-31)
(0.0131218 0.00357341 -4.8511e-31)
(0.0131789 0.00322792 3.16689e-32)
(-0.00209944 0.000974675 -1.88622e-31)
(-0.00272191 0.00308914 4.85878e-31)
(-0.000707908 0.00598929 0)
(0.000384298 0.00579963 0)
(0.000889823 0.00867097 -9.48325e-31)
(0.00263304 0.00974489 -1.43883e-30)
(0.00262419 0.00887577 -2.27672e-30)
(0.00249988 0.0121267 -2.94952e-30)
(0.00543082 0.0157778 0)
(0.00420072 0.00676322 0)
(0.00182316 0.0094775 1.65967e-29)
(0.0024138 0.00720134 0)
(0.00122751 0.00202459 0)
(0.000835004 0.000380206 0)
(0.00152411 0.000466834 -4.31608e-30)
(0.00200671 0.00178232 -2.94565e-30)
(0.002613 0.00629827 -2.8034e-30)
(0.00495814 0.0140803 -1.10894e-29)
(0.00910726 0.02186 -1.84796e-29)
(0.0118939 0.0255493 -3.96038e-30)
(0.0118751 0.0246756 1.52877e-29)
(0.0101539 0.0216898 -8.94723e-32)
(0.00818356 0.0188725 -9.53077e-30)
(0.0066456 0.0170058 -4.87312e-30)
(0.00560426 0.0159426 0)
(0.00492139 0.0153818 5.83302e-30)
(0.00446626 0.0151037 7.46041e-30)
(0.004154 0.0149789 1.37396e-30)
(0.00393514 0.0149368 -5.13468e-30)
(0.00378152 0.0149387 0)
(0.00367707 0.014963 1.59476e-30)
(0.00361213 0.0149961 4.61516e-30)
(0.00358092 0.0150295 4.82105e-30)
(0.00357969 0.0150567 -3.54823e-31)
(0.00360617 0.0150736 2.21204e-37)
(0.00365875 0.0150765 -5.40352e-30)
(0.00373644 0.0150631 -5.6072e-30)
(0.00383834 0.0150313 -1.85962e-31)
(0.00396374 0.01498 0)
(0.00411177 0.0149082 -4.55853e-31)
(0.00428163 0.0148158 5.85551e-31)
(0.00447229 0.0147024 0)
(0.00468223 0.0145686 8.24855e-31)
(0.00491021 0.0144152 6.84109e-30)
(0.00515412 0.0142424 5.88718e-30)
(0.00541294 0.0140525 2.45473e-37)
(0.00568395 0.013845 0)
(0.00596574 0.0136229 -4.32744e-30)
(0.00625585 0.0133859 -4.17305e-30)
(0.00655283 0.013137 1.37481e-30)
(0.00685403 0.0128761 1.41909e-30)
(0.00715833 0.0126061 3.62319e-30)
(0.00746306 0.0123267 1.50512e-30)
(0.00776751 0.0120407 -9.60522e-30)
(0.00806906 0.0117477 -3.17896e-30)
(0.00836747 0.0114503 0)
(0.0086602 0.011148 4.35904e-30)
(0.00894753 0.0108431 9.93568e-30)
(0.00922698 0.0105348 2.85121e-32)
(0.0094994 0.0102255 -3.99461e-30)
(0.00976234 0.00991401 0)
(0.0100172 0.00960237 2.38928e-30)
(0.0102613 0.00928943 3.69108e-30)
(0.0104967 0.00897686 6.42851e-31)
(0.0107208 0.00866348 6.26507e-31)
(0.0109356 0.00835054 1.19903e-30)
(0.0111388 0.00803698 0)
(0.0113324 0.00772352 0)
(0.0115144 0.00740928 0)
(0.0116864 0.0070944 -5.13843e-31)
(0.0118469 0.00677831 5.04151e-31)
(0.0119969 0.00646042 0)
(0.0121361 0.00614055 2.41604e-31)
(0.012264 0.00581752 2.36808e-31)
(0.0123818 0.00549136 2.40782e-31)
(0.0124875 0.00516093 2.4276e-31)
(0.012584 0.0048259 0)
(0.0126681 0.00448561 0)
(0.012742 0.00413845 -2.9966e-31)
(0.0128054 0.00378386 -2.04315e-31)
(-0.00165265 0.00193761 0)
(-0.0020979 0.00302188 4.7075e-31)
(-0.00115574 0.0051966 2.6662e-31)
(-0.000429936 0.00633299 2.59228e-31)
(0.000274506 0.00883528 5.22952e-31)
(0.00175857 0.0100946 -2.95364e-31)
(0.00205735 0.0104167 0)
(0.00206661 0.0126508 3.86862e-30)
(0.00467068 0.0140396 0)
(0.00427898 0.0088208 0)
(0.00287513 0.00820362 -1.13168e-30)
(0.00357113 0.00569883 -1.12508e-30)
(0.00295412 0.00224477 0)
(0.00193076 0.000597781 1.3932e-30)
(0.00152028 0.000667742 -2.65497e-30)
(0.00149669 0.00258786 5.62785e-32)
(0.00197512 0.00726504 9.94575e-32)
(0.00374379 0.014463 -8.49144e-30)
(0.00693179 0.0216905 9.83173e-31)
(0.00952 0.025547 -1.73243e-30)
(0.010011 0.0251763 3.3346e-30)
(0.00891273 0.0225365 0)
(0.00734682 0.0197877 3.37091e-30)
(0.00599266 0.0178412 -5.40465e-30)
(0.00501005 0.016682 -4.45181e-30)
(0.00433006 0.0160562 -1.91919e-30)
(0.0038542 0.0157445 3.71298e-32)
(0.00351023 0.0156079 5.62791e-30)
(0.00325419 0.0155675 -1.41232e-30)
(0.00306095 0.0155793 0)
(0.0029163 0.0156178 1.037e-30)
(0.00281191 0.0156674 8.70739e-31)
(0.00274287 0.0157176 0)
(0.00270619 0.0157611 -1.11473e-30)
(0.00270009 0.0157926 -4.03962e-31)
(0.00272342 0.0158081 0)
(0.00277546 0.0158045 5.61225e-30)
(0.00285558 0.0157799 5.8028e-30)
(0.00296319 0.0157329 0)
(0.0030976 0.0156629 -3.70098e-31)
(0.00325801 0.0155694 5.15871e-31)
(0.00344304 0.0154528 0)
(0.00365148 0.0153139 -6.7589e-30)
(0.00388125 0.0151533 -6.88585e-30)
(0.00413118 0.0149733 0)
(0.00439861 0.0147734 1.13424e-30)
(0.00468155 0.0145569 0)
(0.00497775 0.0143241 1.31028e-30)
(0.00528509 0.0140778 1.38347e-30)
(0.00560083 0.0138182 0)
(0.00592319 0.0135485 0)
(0.00624944 0.0132685 -1.52718e-30)
(0.00657811 0.0129812 -3.32514e-30)
(0.00690655 0.0126864 -3.07831e-32)
(0.00723374 0.0123868 6.1857e-30)
(0.00755717 0.012082 4.43121e-30)
(0.00787632 0.0117745 4.31424e-30)
(0.00818886 0.0114635 1.54248e-30)
(0.00849478 0.0111515 0)
(0.00879192 0.0108373 1.49161e-30)
(0.00908075 0.0105232 0)
(0.00935925 0.0102079 -1.42161e-30)
(0.00962827 0.00989329 3.57227e-30)
(0.00988594 0.00957809 2.62468e-32)
(0.0101334 0.00926362 -3.46095e-30)
(0.0103688 0.00894882 -1.07771e-30)
(0.0105934 0.00863447 -2.29586e-30)
(0.0108059 0.00831966 0)
(0.011007 0.00800454 5.48193e-31)
(0.0111959 0.00768855 -1.05262e-30)
(0.0113728 0.00737106 -5.06053e-31)
(0.0115379 0.00705188 -4.9176e-31)
(0.0116903 0.00672965 4.7806e-31)
(0.0118315 0.00640448 0)
(0.0119593 0.00607491 9.68865e-31)
(0.0120764 0.00574073 1.22803e-30)
(0.0121797 0.00540159 -4.92011e-31)
(0.0122715 0.00505519 -3.67751e-31)
(0.0123514 0.00470108 -1.09407e-31)
(0.0124194 0.00433769 0)
(-0.00126811 0.00261069 6.33171e-33)
(-0.00162601 0.00295925 -4.93108e-32)
(-0.00121927 0.00446849 -2.686e-31)
(-0.000673883 0.00599002 0)
(1.62675e-05 0.00814864 5.2273e-31)
(0.00109137 0.00965314 2.28462e-31)
(0.00162451 0.0106313 0)
(0.00200716 0.0123609 5.54241e-31)
(0.00386433 0.0131665 0)
(0.00406655 0.010103 0)
(0.00355791 0.00848011 -2.03996e-30)
(0.00378173 0.00585443 1.28766e-30)
(0.00318221 0.00289374 -2.89315e-32)
(0.00217063 0.00124565 8.2207e-31)
(0.00145938 0.00141268 -8.39875e-31)
(0.00117377 0.00369968 4.99217e-31)
(0.00148325 0.00846752 4.99435e-30)
(0.0028422 0.0152004 1.37955e-29)
(0.00528362 0.0217869 3.59076e-32)
(0.00749798 0.02547 -1.42523e-29)
(0.00820345 0.0253749 -1.08163e-29)
(0.00754726 0.0230683 -1.97735e-29)
(0.00634708 0.0204919 -1.75146e-29)
(0.00520362 0.0185749 -2.77039e-30)
(0.00431547 0.0173954 0)
(0.00366604 0.0167488 0)
(0.00318794 0.0164281 -2.06524e-30)
(0.00282444 0.0162935 4.19179e-30)
(0.00253928 0.0162624 -3.21073e-32)
(0.00231177 0.0162877 -4.39604e-30)
(0.0021303 0.0163417 0)
(0.00198851 0.0164072 0)
(0.0018827 0.0164724 -9.24593e-31)
(0.00181098 0.0165291 -7.57353e-31)
(0.00177224 0.0165712 0)
(0.00176606 0.0165944 0)
(0.00179206 0.0165953 -5.92378e-30)
(0.00185009 0.016572 -5.87571e-30)
(0.00193972 0.0165231 -1.11417e-31)
(0.00206043 0.0164482 -8.7055e-38)
(0.00221126 0.0163473 -8.76924e-38)
(0.00239106 0.0162212 6.11624e-31)
(0.00259804 0.0160707 5.25382e-30)
(0.00283075 0.0158981 4.15902e-30)
(0.0030869 0.0157038 0)
(0.00336391 0.0154905 0)
(0.00365969 0.0152594 0)
(0.00397153 0.0150132 -1.3673e-30)
(0.00429669 0.0147529 0)
(0.00463269 0.0144813 0)
(0.00497673 0.014199 5.14529e-30)
(0.00532657 0.0139087 3.16726e-32)
(0.00567949 0.0136108 -4.8635e-30)
(0.00603365 0.0133078 -1.65797e-30)
(0.00638653 0.0129996 0)
(0.00673679 0.0126887 0)
(0.00708217 0.0123746 5.84863e-30)
(0.0074218 0.0120595 6.52916e-30)
(0.00775373 0.0117427 7.88661e-30)
(0.00807754 0.011426 5.39737e-30)
(0.00839156 0.0111087 2.15926e-30)
(0.00869574 0.0107922 2.92872e-32)
(0.0089887 0.0104756 -6.98966e-30)
(0.00927059 0.0101601 -6.82581e-30)
(0.00954038 0.00984471 -6.70814e-30)
(0.00979817 0.0095301 -6.61707e-30)
(0.0100434 0.00921553 -6.15961e-30)
(0.0102758 0.00890102 -1.15892e-32)
(0.0104955 0.00858607 1.66267e-30)
(0.0107017 0.00827005 -5.36388e-31)
(0.0108952 0.00795276 -5.04275e-31)
(0.0110743 0.00763278 -4.89814e-31)
(0.0112412 0.00731014 4.655e-31)
(0.0113929 0.0069832 0)
(0.0115327 0.00665171 -9.53033e-31)
(0.0116569 0.00631548 -1.19235e-30)
(0.0117681 0.00597215 0)
(0.0118658 0.00562137 9.94827e-32)
(0.0119495 0.00526046 2.28241e-31)
(0.0120218 0.00488922 2.03388e-31)
(-0.000986897 0.00314832 0)
(-0.00134172 0.00303538 -1.64863e-31)
(-0.00122017 0.00405207 6.0848e-32)
(-0.000841599 0.00549267 -8.20002e-32)
(-0.000244281 0.0072979 9.18274e-31)
(0.000581979 0.00884027 -5.60577e-31)
(0.00123559 0.0100732 0)
(0.00187517 0.0113819 0)
(0.00320733 0.0118305 4.97261e-31)
(0.00368785 0.00993421 -2.81096e-31)
(0.00358096 0.00806721 -7.76679e-31)
(0.00350258 0.00563561 1.04244e-30)
(0.00293392 0.00323933 -7.55756e-31)
(0.002066 0.0019701 4.74765e-31)
(0.00131414 0.00244958 -3.48452e-30)
(0.000899963 0.00505102 -3.53892e-30)
(0.00106229 0.00987385 3.50176e-30)
(0.00211001 0.0161845 5.90283e-30)
(0.00399198 0.0220982 1.00575e-29)
(0.00580489 0.0253989 -1.97041e-31)
(0.00654321 0.0253868 1.27994e-29)
(0.00617337 0.0233608 9.13092e-30)
(0.00527072 0.0210104 -2.67365e-30)
(0.00432903 0.0192068 1.97677e-37)
(0.00354809 0.0180753 -2.58573e-30)
(0.00294372 0.0174524 0)
(0.00247453 0.0171497 -2.22441e-30)
(0.00209915 0.017033 -2.29061e-30)
(0.00179005 0.0170204 -4.36497e-30)
(0.00153159 0.0170642 4.532e-30)
(0.00131538 0.017136 4.66788e-30)
(0.00113719 0.0172174 0)
(0.000995031 0.0172959 -1.14263e-30)
(0.000888138 0.0173627 0)
(0.000816494 0.0174111 -7.77705e-31)
(0.000780319 0.0174367 -1.12483e-29)
(0.000779983 0.017436 -3.77211e-31)
(0.000815715 0.0174072 -7.74154e-33)
(0.000887269 0.0173494 -1.20004e-29)
(0.000994404 0.0172625 -1.5818e-38)
(0.0011361 0.017147 -1.59067e-38)
(0.00131118 0.0170043 1.22234e-29)
(0.00151789 0.0168361 2.94863e-32)
(0.00175446 0.0166442 2.50059e-29)
(0.0020179 0.0164307 1.19214e-29)
(0.00230621 0.0161981 -1.18718e-30)
(0.00261618 0.0159486 0)
(0.0029451 0.0156843 -1.41973e-30)
(0.00328978 0.0154075 -1.52114e-30)
(0.00364737 0.0151201 -5.28144e-30)
(0.00401481 0.014824 -5.15108e-30)
(0.00438934 0.0145208 4.95174e-30)
(0.0047682 0.0142121 4.81683e-30)
(0.00514893 0.0138991 -1.74046e-30)
(0.00552915 0.0135831 0)
(0.00590681 0.013265 -1.73935e-30)
(0.00627996 0.0129457 1.44814e-37)
(0.00664701 0.0126259 -1.69976e-30)
(0.00700637 0.0123061 -3.83766e-30)
(0.00735699 0.0119868 -2.10807e-30)
(0.00769748 0.0116683 -1.95987e-37)
(0.00802737 0.0113508 -3.47517e-30)
(0.00834533 0.0110343 -3.40757e-30)
(0.00865151 0.010719 -1.42745e-30)
(0.00894436 0.0104046 1.39823e-30)
(0.00922473 0.0100911 0)
(0.00949064 0.00977781 2.53208e-30)
(0.00974374 0.00946495 3.78371e-30)
(0.00998136 0.00915128 -5.73546e-31)
(0.010206 0.00883705 -1.10116e-30)
(0.0104143 0.00852057 -1.16159e-30)
(0.0106096 0.00820198 0)
(0.0107876 0.00787942 0)
(0.0109524 0.0075527 0)
(0.0110998 0.00722098 2.01818e-31)
(0.0112326 0.0068829 5.71136e-31)
(0.0113497 0.00653783 4.73166e-31)
(0.0114511 0.00618261 -4.60171e-31)
(0.011539 0.0058165 1.75547e-38)
(0.0116123 0.00543804 -2.06533e-32)
(-0.000768995 0.00362839 -1.88302e-32)
(-0.00113454 0.00323007 -1.16376e-31)
(-0.00117438 0.0039189 -1.31152e-31)
(-0.000940582 0.00518001 7.75775e-31)
(-0.000462966 0.00674547 7.65685e-31)
(0.000207642 0.00822381 7.0148e-31)
(0.000884441 0.00947163 1.69723e-30)
(0.00162191 0.0104682 1.43936e-32)
(0.00266262 0.0106528 6.19314e-31)
(0.00323777 0.00931995 1.86054e-32)
(0.00331778 0.00753923 -7.87455e-31)
(0.00315928 0.00544129 1.71798e-30)
(0.00262662 0.00359583 -6.17599e-31)
(0.00184288 0.00280447 2.10044e-30)
(0.00108946 0.00368187 -2.06208e-31)
(0.000614377 0.00658293 -6.08028e-30)
(0.0006721 0.0114236 -2.26308e-30)
(0.00147998 0.0173138 0)
(0.0029406 0.0225421 0)
(0.00438766 0.0253524 9.99604e-30)
(0.00506136 0.0252926 9.91919e-30)
(0.00486039 0.0234916 0)
(0.00418233 0.0213905 -2.47792e-30)
(0.00341412 0.0197584 -1.86429e-37)
(0.00273573 0.0187297 2.29649e-30)
(0.00217925 0.0181697 4.51951e-30)
(0.00172284 0.0179106 0)
(0.00133861 0.0178276 1.60359e-37)
(0.00100771 0.0178432 -8.99566e-30)
(0.000719431 0.0179111 -7.28101e-30)
(0.000468966 0.0180031 9.57721e-30)
(0.000254271 0.0181004 8.33179e-30)
(7.52848e-05 0.0181905 1.03361e-29)
(-6.74671e-05 0.0182637 9.49952e-30)
(-0.000172757 0.0183136 -9.8615e-31)
(-0.000239558 0.0183354 0)
(-0.00026661 0.0183263 0)
(-0.000253557 0.0182845 -1.202e-29)
(-0.00019982 0.0182099 -1.2333e-29)
(-0.000105999 0.0181029 -1.00502e-31)
(2.74979e-05 0.0179651 3.09604e-31)
(0.000198987 0.017798 1.1878e-29)
(0.000406968 0.0176047 -1.23472e-29)
(0.000648628 0.0173868 0)
(0.000921689 0.0171482 0)
(0.00122289 0.0168908 -1.2315e-30)
(0.00154926 0.0166181 -1.28744e-29)
(0.00189721 0.0163318 -1.12705e-29)
(0.00226356 0.0160352 -1.40682e-29)
(0.00264467 0.0157295 -1.06137e-29)
(0.00303747 0.0154175 1.19345e-29)
(0.00343847 0.0151 9.90539e-30)
(0.00384498 0.0147795 -1.82221e-30)
(0.00425381 0.0144561 0)
(0.0046628 0.0141321 -4.38208e-30)
(0.00506912 0.0138072 -6.09593e-30)
(0.00547126 0.0134831 -1.36386e-37)
(0.00586666 0.0131594 -1.80375e-30)
(0.00625453 0.0128376 0)
(0.00663251 0.0125167 -3.60872e-30)
(0.00700055 0.0121983 -3.5146e-30)
(0.00735628 0.0118809 0)
(0.00770043 0.0115661 0)
(0.00803048 0.0112522 1.68112e-30)
(0.00834786 0.0109404 5.98146e-30)
(0.00864974 0.0106291 -4.45305e-30)
(0.00893826 0.0103191 -4.35206e-30)
(0.00921016 0.0100087 3.67052e-30)
(0.00946813 0.0096985 2.54313e-30)
(0.00970856 0.00938665 2.10538e-30)
(0.00993447 0.00907337 4.95644e-31)
(0.0101421 0.00875681 -9.09882e-33)
(0.0103344 0.00843668 8.14731e-33)
(0.0105081 0.00811154 -3.92337e-30)
(0.010665 0.00778073 -2.72935e-30)
(0.0108043 0.00744323 -2.16242e-30)
(0.0109257 0.00709656 -1.98479e-30)
(0.0110314 0.00673922 -8.33236e-31)