/*--------------------------------*- C++ -*----------------------------------*\
  =========                 |
  \\      /  F ield         | OpenFOAM: The Open Source CFD Toolbox
   \\    /   O peration     | Website:  https://openfoam.org
    \\  /    A nd           | Version:  7
     \\/     M anipulation  |
\*---------------------------------------------------------------------------*/
FoamFile
{
    version     2.0;
    format      ascii;
    class       volVectorField;
    location    "10";
    object      Us;
}
// * * * * * * * * * * * * * * * * * * * * * * * * * * * * * * * * * * * * * //

dimensions      [0 1 -1 0 0 0 0];

internalField   nonuniform List<vector> 
49920
(
(-1.18454e-10 -1.35941e-10 0)
(-7.36332e-11 -5.62539e-12 0)
(-4.93714e-11 3.07243e-11 0)
(-3.32616e-11 4.29377e-11 0)
(-1.95708e-11 4.68702e-11 0)
(-1.04828e-11 4.65887e-11 0)
(-3.68351e-12 4.67651e-11 0)
(2.31277e-12 4.60333e-11 0)
(8.20007e-12 4.77737e-11 0)
(1.60232e-11 4.96474e-11 0)
(2.52457e-11 4.8451e-11 0)
(3.64844e-11 4.31924e-11 0)
(4.88235e-11 3.15972e-11 0)
(5.9647e-11 1.07987e-11 0)
(6.06765e-11 -2.73277e-11 0)
(5.47869e-11 -1.22169e-10 0)
(-3.96728e-11 -2.24898e-10 0)
(2.71302e-09 4.85265e-09 0)
(5.5573e-08 3.69273e-08 0)
(1.85797e-07 8.68633e-08 0)
(3.84011e-07 1.40238e-07 0)
(6.34872e-07 1.8818e-07 0)
(9.24108e-07 2.25311e-07 0)
(1.23899e-06 2.48334e-07 0)
(1.56846e-06 2.55741e-07 0)
(1.9033e-06 2.47532e-07 0)
(2.23601e-06 2.24799e-07 0)
(2.5606e-06 1.89314e-07 0)
(2.87224e-06 1.43209e-07 0)
(3.16703e-06 8.87797e-08 0)
(3.44189e-06 2.83898e-08 0)
(3.69457e-06 -3.55676e-08 0)
(3.92391e-06 -1.00675e-07 0)
(4.13019e-06 -1.645e-07 0)
(4.31552e-06 -2.2462e-07 0)
(4.48435e-06 -2.7867e-07 0)
(4.64388e-06 -3.24396e-07 0)
(4.80436e-06 -3.59696e-07 0)
(4.97928e-06 -3.82614e-07 0)
(5.18538e-06 -3.91276e-07 0)
(5.44235e-06 -3.83763e-07 0)
(5.77239e-06 -3.57924e-07 0)
(6.19931e-06 -3.11171e-07 0)
(6.74748e-06 -2.40282e-07 0)
(7.44041e-06 -1.41255e-07 0)
(8.29924e-06 -9.24041e-09 0)
(9.34116e-06 1.6142e-07 0)
(1.05779e-05 3.77021e-07 0)
(1.20145e-05 6.4419e-07 0)
(1.36482e-05 9.69444e-07 0)
(1.54673e-05 1.35862e-06 0)
(1.74515e-05 1.81626e-06 0)
(1.95711e-05 2.34487e-06 0)
(2.17876e-05 2.94435e-06 0)
(2.40548e-05 3.6114e-06 0)
(2.63199e-05 4.33918e-06 0)
(2.85252e-05 5.11711e-06 0)
(3.06104e-05 5.931e-06 0)
(3.25152e-05 6.76342e-06 0)
(3.41816e-05 7.59435e-06 0)
(3.5557e-05 8.40201e-06 0)
(3.65962e-05 9.16393e-06 0)
(3.72644e-05 9.85807e-06 0)
(3.75386e-05 1.04639e-05 0)
(3.7409e-05 1.09635e-05 0)
(3.68796e-05 1.13423e-05 0)
(3.5968e-05 1.15902e-05 0)
(3.47044e-05 1.17016e-05 0)
(3.31302e-05 1.16758e-05 0)
(3.12958e-05 1.15171e-05 0)
(2.92577e-05 1.12345e-05 0)
(2.70764e-05 1.08411e-05 0)
(2.48126e-05 1.03535e-05 0)
(2.25252e-05 9.79123e-06 0)
(2.0269e-05 9.17517e-06 0)
(1.80919e-05 8.52693e-06 0)
(1.60343e-05 7.8676e-06 0)
(1.4128e-05 7.21678e-06 0)
(1.23954e-05 6.59165e-06 0)
(1.08502e-05 6.00627e-06 0)
(-4.3317e-07 1.26124e-07 0)
(-1.91098e-10 4.99449e-11 0)
(-1.1561e-10 8.50274e-11 0)
(-8.01827e-11 1.04281e-10 0)
(-5.03759e-11 1.17972e-10 0)
(-2.55173e-11 1.1927e-10 0)
(-5.26147e-12 1.19428e-10 0)
(8.16885e-12 1.15348e-10 0)
(1.88121e-11 1.21187e-10 0)
(3.94753e-11 1.31469e-10 0)
(6.56846e-11 1.26867e-10 0)
(9.29981e-11 1.10413e-10 0)
(1.19244e-10 7.91532e-11 0)
(1.41136e-10 3.06051e-11 0)
(1.6008e-10 -3.27473e-11 0)
(1.85559e-10 -1.41861e-10 0)
(1.82503e-10 -2.20103e-10 0)
(1.01137e-07 5.29093e-08 0)
(4.36007e-07 2.00312e-07 0)
(1.00893e-06 4.04427e-07 0)
(1.74978e-06 6.06988e-07 0)
(2.5899e-06 7.71454e-07 0)
(3.47935e-06 8.82326e-07 0)
(4.38459e-06 9.36481e-07 0)
(5.28383e-06 9.37235e-07 0)
(6.16323e-06 8.90894e-07 0)
(7.01414e-06 8.04821e-07 0)
(7.83125e-06 6.86421e-07 0)
(8.61142e-06 5.42715e-07 0)
(9.35314e-06 3.80266e-07 0)
(1.00564e-05 2.05301e-07 0)
(1.0723e-05 2.39024e-08 0)
(1.13572e-05 -1.5778e-07 0)
(1.1966e-05 -3.33372e-07 0)
(1.25607e-05 -4.96168e-07 0)
(1.3157e-05 -6.39101e-07 0)
(1.37762e-05 -7.54738e-07 0)
(1.44456e-05 -8.35293e-07 0)
(1.5199e-05 -8.72611e-07 0)
(1.60762e-05 -8.58117e-07 0)
(1.71221e-05 -7.82751e-07 0)
(1.83849e-05 -6.36916e-07 0)
(1.99129e-05 -4.10526e-07 0)
(2.17507e-05 -9.31784e-08 0)
(2.39345e-05 3.25471e-07 0)
(2.6488e-05 8.5516e-07 0)
(2.94185e-05 1.50431e-06 0)
(3.27157e-05 2.27925e-06 0)
(3.63504e-05 3.1834e-06 0)
(4.02757e-05 4.21657e-06 0)
(4.44296e-05 5.37438e-06 0)
(4.87379e-05 6.64799e-06 0)
(5.31174e-05 8.02398e-06 0)
(5.74802e-05 9.48465e-06 0)
(6.17369e-05 1.10086e-05 0)
(6.58001e-05 1.25713e-05 0)
(6.95871e-05 1.41465e-05 0)
(7.30225e-05 1.57068e-05 0)
(7.60396e-05 1.72248e-05 0)
(7.85816e-05 1.86743e-05 0)
(8.06023e-05 2.00307e-05 0)
(8.20664e-05 2.12717e-05 0)
(8.29493e-05 2.23781e-05 0)
(8.32366e-05 2.33331e-05 0)
(8.29246e-05 2.41232e-05 0)
(8.20193e-05 2.47377e-05 0)
(8.05369e-05 2.51688e-05 0)
(7.85035e-05 2.54116e-05 0)
(7.59551e-05 2.54641e-05 0)
(7.29379e-05 2.53274e-05 0)
(6.95072e-05 2.50062e-05 0)
(6.57278e-05 2.45088e-05 0)
(6.16718e-05 2.38474e-05 0)
(5.7418e-05 2.30384e-05 0)
(5.3049e-05 2.21022e-05 0)
(4.86492e-05 2.1063e-05 0)
(4.43014e-05 1.99477e-05 0)
(4.00839e-05 1.87854e-05 0)
(3.60673e-05 1.76055e-05 0)
(3.23118e-05 1.64366e-05 0)
(-1.94521e-07 5.44419e-07 0)
(1.55638e-08 4.02346e-07 0)
(-2.1542e-10 2.69225e-10 0)
(-1.23169e-10 1.75312e-10 0)
(-7.49868e-11 1.98115e-10 0)
(-3.2345e-11 1.99625e-10 0)
(3.18441e-12 2.09134e-10 0)
(1.63793e-11 1.88677e-10 0)
(1.41712e-11 1.99327e-10 0)
(4.98158e-11 1.9741e-10 0)
(9.46552e-11 1.88339e-10 0)
(1.37089e-10 1.62428e-10 0)
(1.82275e-10 1.21816e-10 0)
(2.31784e-10 5.54394e-11 0)
(2.95896e-10 -1.79448e-11 0)
(3.00236e-10 -1.34418e-10 0)
(1.76582e-07 9.658e-08 0)
(7.42005e-07 3.96491e-07 0)
(1.72084e-06 8.44759e-07 0)
(2.97889e-06 1.29944e-06 0)
(4.37193e-06 1.66372e-06 0)
(5.80395e-06 1.90538e-06 0)
(7.22188e-06 2.02749e-06 0)
(8.59972e-06 2.04601e-06 0)
(9.92653e-06 1.97947e-06 0)
(1.11993e-05 1.84512e-06 0)
(1.24191e-05 1.65784e-06 0)
(1.35889e-05 1.43031e-06 0)
(1.47132e-05 1.1734e-06 0)
(1.57976e-05 8.96896e-07 0)
(1.68495e-05 6.10049e-07 0)
(1.78791e-05 3.22187e-07 0)
(1.88996e-05 4.31699e-08 0)
(1.99291e-05 -2.16241e-07 0)
(2.09906e-05 -4.44131e-07 0)
(2.21135e-05 -6.27291e-07 0)
(2.33337e-05 -7.5118e-07 0)
(2.46938e-05 -8.00004e-07 0)
(2.62425e-05 -7.56952e-07 0)
(2.80328e-05 -6.04618e-07 0)
(3.0119e-05 -3.25694e-07 0)
(3.25524e-05 9.60726e-08 0)
(3.53763e-05 6.74697e-07 0)
(3.86203e-05 1.42071e-06 0)
(4.22948e-05 2.34005e-06 0)
(4.63885e-05 3.43328e-06 0)
(5.08669e-05 4.69524e-06 0)
(5.56738e-05 6.1151e-06 0)
(6.07346e-05 7.67683e-06 0)
(6.59618e-05 9.35989e-06 0)
(7.12599e-05 1.11401e-05 0)
(7.65309e-05 1.29906e-05 0)
(8.16794e-05 1.48829e-05 0)
(8.66162e-05 1.67883e-05 0)
(9.12612e-05 1.86781e-05 0)
(9.55451e-05 2.05256e-05 0)
(9.94104e-05 2.23061e-05 0)
(0.000102811 2.39976e-05 0)
(0.000105711 2.55817e-05 0)
(0.000108084 2.70429e-05 0)
(0.000109914 2.83692e-05 0)
(0.000111188 2.95514e-05 0)
(0.000111902 3.05829e-05 0)
(0.000112052 3.1459e-05 0)
(0.000111641 3.21767e-05 0)
(0.000110674 3.27341e-05 0)
(0.000109159 3.31299e-05 0)
(0.000107107 3.33632e-05 0)
(0.000104533 3.34336e-05 0)
(0.000101461 3.33414e-05 0)
(9.79169e-05 3.30873e-05 0)
(9.39382e-05 3.26735e-05 0)
(8.95698e-05 3.21041e-05 0)
(8.48664e-05 3.13854e-05 0)
(7.98922e-05 3.05268e-05 0)
(7.47204e-05 2.95412e-05 0)
(6.94316e-05 2.8445e-05 0)
(6.41119e-05 2.72582e-05 0)
(5.88491e-05 2.60037e-05 0)
(5.37301e-05 2.47065e-05 0)
(1.20163e-07 1.71037e-06 0)
(1.40513e-07 8.73866e-07 0)
(1.70368e-08 1.38665e-08 0)
(-2.10694e-11 4.37272e-10 0)
(-6.62426e-10 8.80859e-09 0)
(7.7329e-09 8.87336e-08 0)
(9.78934e-09 6.21367e-08 0)
(1.09148e-08 5.80996e-08 0)
(-7.86333e-11 7.30957e-09 0)
(4.3751e-11 2.76202e-10 0)
(1.20065e-10 2.55357e-10 0)
(1.8636e-10 2.19684e-10 0)
(3.0164e-10 2.04333e-10 0)
(4.61458e-10 1.54907e-10 0)
(4.52792e-10 6.73027e-13 0)
(3.42284e-07 1.98113e-07 0)
(1.28489e-06 7.47298e-07 0)
(2.79197e-06 1.53198e-06 0)
(4.63139e-06 2.31085e-06 0)
(6.58147e-06 2.91852e-06 0)
(8.51208e-06 3.30791e-06 0)
(1.03673e-05 3.49806e-06 0)
(1.21318e-05 3.52735e-06 0)
(1.38083e-05 3.43297e-06 0)
(1.54062e-05 3.24531e-06 0)
(1.69372e-05 2.98808e-06 0)
(1.84128e-05 2.67981e-06 0)
(1.98446e-05 2.33549e-06 0)
(2.12446e-05 1.96801e-06 0)
(2.26264e-05 1.58935e-06 0)
(2.40058e-05 1.21151e-06 0)
(2.54024e-05 8.47352e-07 0)
(2.68402e-05 5.11132e-07 0)
(2.83491e-05 2.1901e-07 0)
(2.99647e-05 -1.07122e-08 0)
(3.17293e-05 -1.57536e-07 0)
(3.36905e-05 -1.98989e-07 0)
(3.59001e-05 -1.11209e-07 0)
(3.84113e-05 1.3004e-07 0)
(4.12743e-05 5.47856e-07 0)
(4.45314e-05 1.16226e-06 0)
(4.82113e-05 1.98804e-06 0)
(5.23238e-05 3.03273e-06 0)
(5.68558e-05 4.29515e-06 0)
(6.17702e-05 5.76487e-06 0)
(6.70069e-05 7.42269e-06 0)
(7.24873e-05 9.24202e-06 0)
(7.81193e-05 1.11908e-05 0)
(8.38046e-05 1.32339e-05 0)
(8.94444e-05 1.53346e-05 0)
(9.49451e-05 1.74572e-05 0)
(0.000100223 1.95677e-05 0)
(0.000105204 2.16355e-05 0)
(0.000109831 2.36335e-05 0)
(0.000114056 2.5539e-05 0)
(0.000117847 2.73337e-05 0)
(0.000121179 2.90035e-05 0)
(0.00012404 3.05386e-05 0)
(0.000126421 3.19326e-05 0)
(0.000128322 3.31823e-05 0)
(0.000129744 3.42872e-05 0)
(0.00013069 3.52487e-05 0)
(0.000131164 3.60695e-05 0)
(0.000131171 3.67534e-05 0)
(0.000130714 3.73042e-05 0)
(0.000129794 3.77258e-05 0)
(0.000128414 3.80216e-05 0)
(0.000126574 3.81944e-05 0)
(0.000124276 3.82461e-05 0)
(0.000121524 3.81776e-05 0)
(0.000118324 3.79894e-05 0)
(0.000114689 3.76812e-05 0)
(0.000110634 3.72525e-05 0)
(0.000106187 3.67034e-05 0)
(0.000101381 3.60346e-05 0)
(9.62606e-05 3.52485e-05 0)
(9.08822e-05 3.43495e-05 0)
(8.53118e-05 3.33446e-05 0)
(7.96254e-05 3.22439e-05 0)
(7.39063e-05 3.10601e-05 0)
(7.61445e-07 4.13036e-06 0)
(7.2297e-07 2.62154e-06 0)
(4.26101e-07 1.10942e-06 0)
(5.95228e-09 5.43783e-09 0)
(-4.06289e-08 2.52987e-08 0)
(3.93544e-09 1.37385e-07 0)
(3.46243e-08 7.99397e-08 0)
(5.27206e-08 7.65119e-08 0)
(3.25995e-08 8.83303e-09 0)
(3.07222e-09 4.89065e-09 0)
(7.62093e-10 1.27437e-09 0)
(4.56102e-10 7.18609e-10 0)
(7.50213e-10 1.12253e-09 0)
(6.81806e-10 2.01727e-10 0)
(7.25573e-07 4.53047e-07 0)
(2.26008e-06 1.43235e-06 0)
(4.4101e-06 2.6443e-06 0)
(6.83895e-06 3.75695e-06 0)
(9.28445e-06 4.58382e-06 0)
(1.16185e-05 5.09076e-06 0)
(1.38063e-05 5.32282e-06 0)
(1.58561e-05 5.34371e-06 0)
(1.77903e-05 5.20953e-06 0)
(1.96326e-05 4.96306e-06 0)
(2.14049e-05 4.63574e-06 0)
(2.31263e-05 4.25096e-06 0)
(2.48141e-05 3.82701e-06 0)
(2.64855e-05 3.37931e-06 0)
(2.81585e-05 2.92208e-06 0)
(2.98535e-05 2.46963e-06 0)
(3.15948e-05 2.03741e-06 0)
(3.34113e-05 1.64274e-06 0)
(3.53372e-05 1.30539e-06 0)
(3.74128e-05 1.04792e-06 0)
(3.96835e-05 8.95614e-07 0)
(4.21987e-05 8.76028e-07 0)
(4.50092e-05 1.01803e-06 0)
(4.81633e-05 1.35015e-06 0)
(5.17021e-05 1.89838e-06 0)
(5.56535e-05 2.68347e-06 0)
(6.0027e-05 3.71811e-06 0)
(6.48096e-05 5.00467e-06 0)
(6.9964e-05 6.53376e-06 0)
(7.54293e-05 8.28425e-06 0)
(8.11252e-05 1.02247e-05 0)
(8.69585e-05 1.2316e-05 0)
(9.28296e-05 1.45144e-05 0)
(9.864e-05 1.6775e-05 0)
(0.000104298 1.9054e-05 0)
(0.000109725 2.13115e-05 0)
(0.000114853 2.35125e-05 0)
(0.000119631 2.56276e-05 0)
(0.000124022 2.76333e-05 0)
(0.000128001 2.9512e-05 0)
(0.000131553 3.12511e-05 0)
(0.000134675 3.28431e-05 0)
(0.000137367 3.42845e-05 0)
(0.000139635 3.5575e-05 0)
(0.000141487 3.67173e-05 0)
(0.000142934 3.7716e-05 0)
(0.000143984 3.85773e-05 0)
(0.000144647 3.93081e-05 0)
(0.000144929 3.99161e-05 0)
(0.000144834 4.04088e-05 0)
(0.000144365 4.07934e-05 0)
(0.000143521 4.10768e-05 0)
(0.000142301 4.12648e-05 0)
(0.0001407 4.13623e-05 0)
(0.000138712 4.13732e-05 0)
(0.000136332 4.12999e-05 0)
(0.000133554 4.11437e-05 0)
(0.000130376 4.09045e-05 0)
(0.000126797 4.0581e-05 0)
(0.000122823 4.0171e-05 0)
(0.000118464 3.96715e-05 0)
(0.000113742 3.90792e-05 0)
(0.000108683 3.83909e-05 0)
(0.00010333 3.76043e-05 0)
(9.77329e-05 3.67184e-05 0)
(9.19552e-05 3.57344e-05 0)
(1.67965e-06 8.06628e-06 0)
(1.78018e-06 6.35492e-06 0)
(1.60526e-06 4.59722e-06 0)
(1.12645e-06 2.98246e-06 0)
(7.78048e-07 2.25668e-06 0)
(7.2024e-07 1.8458e-06 0)
(7.22714e-07 1.48194e-06 0)
(6.94168e-07 1.16402e-06 0)
(5.92155e-07 8.07172e-07 0)
(3.52307e-07 3.93681e-07 0)
(4.07318e-09 1.00012e-09 0)
(1.0673e-09 9.25911e-10 0)
(2.97068e-07 1.574e-07 0)
(1.7648e-06 1.20931e-06 0)
(4.04967e-06 2.8015e-06 0)
(6.80551e-06 4.43003e-06 0)
(9.67865e-06 5.77317e-06 0)
(1.2445e-05 6.70851e-06 0)
(1.50207e-05 7.25114e-06 0)
(1.74062e-05 7.47477e-06 0)
(1.96341e-05 7.46018e-06 0)
(2.17421e-05 7.27418e-06 0)
(2.37638e-05 6.9663e-06 0)
(2.57264e-05 6.57217e-06 0)
(2.76531e-05 6.11794e-06 0)
(2.95639e-05 5.62393e-06 0)
(3.14787e-05 5.10732e-06 0)
(3.34179e-05 4.5841e-06 0)
(3.54046e-05 4.07052e-06 0)
(3.74658e-05 3.58424e-06 0)
(3.9633e-05 3.14516e-06 0)
(4.19428e-05 2.77603e-06 0)
(4.44369e-05 2.50274e-06 0)
(4.71613e-05 2.35408e-06 0)
(5.01637e-05 2.36109e-06 0)
(5.34904e-05 2.55561e-06 0)
(5.71821e-05 2.96816e-06 0)
(6.12679e-05 3.62517e-06 0)
(6.57604e-05 4.54583e-06 0)
(7.0651e-05 5.73907e-06 0)
(7.59066e-05 7.20128e-06 0)
(8.14707e-05 8.91535e-06 0)
(8.72659e-05 1.08514e-05 0)
(9.32002e-05 1.29691e-05 0)
(9.91742e-05 1.52211e-05 0)
(0.000105089 1.75569e-05 0)
(0.000110854 1.99267e-05 0)
(0.00011639 2.22843e-05 0)
(0.000121631 2.45892e-05 0)
(0.000126531 2.68078e-05 0)
(0.000131055 2.89132e-05 0)
(0.000135184 3.08858e-05 0)
(0.000138909 3.27118e-05 0)
(0.00014223 3.43832e-05 0)
(0.000145152 3.58963e-05 0)
(0.000147686 3.72516e-05 0)
(0.000149844 3.84522e-05 0)
(0.000151641 3.95038e-05 0)
(0.000153089 4.04135e-05 0)
(0.000154201 4.11898e-05 0)
(0.000154988 4.18416e-05 0)
(0.000155458 4.23782e-05 0)
(0.000155618 4.28088e-05 0)
(0.00015547 4.31422e-05 0)
(0.000155016 4.33868e-05 0)
(0.000154253 4.35503e-05 0)
(0.000153176 4.36396e-05 0)
(0.000151779 4.36606e-05 0)
(0.000150054 4.36181e-05 0)
(0.000147989 4.3516e-05 0)
(0.000145576 4.33565e-05 0)
(0.000142803 4.31408e-05 0)
(0.000139663 4.28683e-05 0)
(0.00013615 4.25373e-05 0)
(0.000132261 4.21442e-05 0)
(0.000128 4.16842e-05 0)
(0.000123379 4.11514e-05 0)
(0.000118416 4.05391e-05 0)
(0.000113141 3.98403e-05 0)
(0.000107595 3.90483e-05 0)
(2.67242e-06 1.30822e-05 0)
(3.04569e-06 1.15509e-05 0)
(3.20531e-06 9.98235e-06 0)
(3.11244e-06 8.47466e-06 0)
(2.95464e-06 7.22761e-06 0)
(2.93142e-06 6.21607e-06 0)
(2.98788e-06 5.34375e-06 0)
(3.0437e-06 4.52359e-06 0)
(3.05961e-06 3.70193e-06 0)
(2.98952e-06 2.89135e-06 0)
(2.9204e-06 2.36384e-06 0)
(3.42955e-06 2.59743e-06 0)
(4.83512e-06 3.66617e-06 0)
(7.30192e-06 5.42477e-06 0)
(1.01966e-05 7.12766e-06 0)
(1.31402e-05 8.44177e-06 0)
(1.5946e-05 9.30718e-06 0)
(1.85626e-05 9.7756e-06 0)
(2.10061e-05 9.93052e-06 0)
(2.33153e-05 9.85176e-06 0)
(2.55295e-05 9.6037e-06 0)
(2.76819e-05 9.2344e-06 0)
(2.97991e-05 8.77901e-06 0)
(3.19033e-05 8.26387e-06 0)
(3.40146e-05 7.70994e-06 0)
(3.61527e-05 7.13533e-06 0)
(3.83386e-05 6.55728e-06 0)
(4.05961e-05 5.99355e-06 0)
(4.29528e-05 5.46355e-06 0)
(4.5441e-05 4.98923e-06 0)
(4.80974e-05 4.59556e-06 0)
(5.09628e-05 4.31078e-06 0)
(5.40809e-05 4.16599e-06 0)
(5.74952e-05 4.1942e-06 0)
(6.12455e-05 4.42861e-06 0)
(6.53631e-05 4.90004e-06 0)
(6.98654e-05 5.63389e-06 0)
(7.47512e-05 6.64677e-06 0)
(7.99966e-05 7.9435e-06 0)
(8.55543e-05 9.51513e-06 0)
(9.13553e-05 1.13385e-05 0)
(9.73136e-05 1.33776e-05 0)
(0.000103333 1.55866e-05 0)
(0.000109316 1.79138e-05 0)
(0.00011517 2.03058e-05 0)
(0.000120815 2.27116e-05 0)
(0.000126184 2.50853e-05 0)
(0.000131228 2.73877e-05 0)
(0.000135914 2.95874e-05 0)
(0.000140222 3.16604e-05 0)
(0.000144144 3.35895e-05 0)
(0.000147682 3.5364e-05 0)
(0.000150842 3.69781e-05 0)
(0.000153636 3.84305e-05 0)
(0.000156079 3.97231e-05 0)
(0.000158185 4.08609e-05 0)
(0.00015997 4.18504e-05 0)
(0.000161449 4.27001e-05 0)
(0.000162634 4.34188e-05 0)
(0.000163537 4.40163e-05 0)
(0.000164167 4.45021e-05 0)
(0.000164532 4.48861e-05 0)
(0.000164634 4.51773e-05 0)
(0.000164477 4.53846e-05 0)
(0.000164058 4.55163e-05 0)
(0.000163375 4.558e-05 0)
(0.000162422 4.55825e-05 0)
(0.00016119 4.55299e-05 0)
(0.00015967 4.54276e-05 0)
(0.000157851 4.52798e-05 0)
(0.000155719 4.50899e-05 0)
(0.000153262 4.48602e-05 0)
(0.000150468 4.45914e-05 0)
(0.000147326 4.4283e-05 0)
(0.000143828 4.39329e-05 0)
(0.00013997 4.35371e-05 0)
(0.000135752 4.309e-05 0)
(0.000131183 4.25842e-05 0)
(0.000126275 4.20108e-05 0)
(0.000121054 4.13601e-05 0)
(3.64809e-06 1.84531e-05 0)
(4.33651e-06 1.716e-05 0)
(4.89516e-06 1.58413e-05 0)
(5.31734e-06 1.45266e-05 0)
(5.66436e-06 1.32359e-05 0)
(6.02734e-06 1.20203e-05 0)
(6.43466e-06 1.08933e-05 0)
(6.88067e-06 9.84266e-06 0)
(7.37011e-06 8.89626e-06 0)
(7.93274e-06 8.17965e-06 0)
(8.70079e-06 7.96957e-06 0)
(9.97375e-06 8.47095e-06 0)
(1.19237e-05 9.54685e-06 0)
(1.43629e-05 1.07597e-05 0)
(1.69665e-05 1.1726e-05 0)
(1.95492e-05 1.23444e-05 0)
(2.20425e-05 1.2641e-05 0)
(2.44419e-05 1.26756e-05 0)
(2.67675e-05 1.25083e-05 0)
(2.9045e-05 1.21895e-05 0)
(3.12982e-05 1.1759e-05 0)
(3.35475e-05 1.12472e-05 0)
(3.58109e-05 1.06785e-05 0)
(3.81056e-05 1.00731e-05 0)
(4.04498e-05 9.44913e-06 0)
(4.28634e-05 8.82464e-06 0)
(4.53694e-05 8.21833e-06 0)
(4.79948e-05 7.65087e-06 0)
(5.07706e-05 7.14558e-06 0)
(5.3732e-05 6.72889e-06 0)
(5.69171e-05 6.43039e-06 0)
(6.03656e-05 6.28238e-06 0)
(6.41153e-05 6.31867e-06 0)
(6.81987e-05 6.5726e-06 0)
(7.2638e-05 7.07437e-06 0)
(7.74402e-05 7.84774e-06 0)
(8.25929e-05 8.90675e-06 0)
(8.80617e-05 1.02529e-05 0)
(9.37904e-05 1.18732e-05 0)
(9.97038e-05 1.37409e-05 0)
(0.000105714 1.58165e-05 0)
(0.000111726 1.80516e-05 0)
(0.000117648 2.0393e-05 0)
(0.000123398 2.27874e-05 0)
(0.000128906 2.51843e-05 0)
(0.000134118 2.75395e-05 0)
(0.000138998 2.98158e-05 0)
(0.000143523 3.19838e-05 0)
(0.000147684 3.40214e-05 0)
(0.000151479 3.59132e-05 0)
(0.000154914 3.76495e-05 0)
(0.000158 3.92255e-05 0)
(0.000160751 4.06404e-05 0)
(0.000163181 4.18967e-05 0)
(0.000165305 4.29992e-05 0)
(0.000167138 4.39551e-05 0)
(0.000168695 4.47724e-05 0)
(0.000169987 4.54603e-05 0)
(0.000171026 4.60283e-05 0)
(0.000171821 4.64861e-05 0)
(0.000172379 4.68433e-05 0)
(0.000172705 4.71088e-05 0)
(0.000172801 4.72915e-05 0)
(0.000172668 4.73995e-05 0)
(0.000172304 4.74403e-05 0)
(0.000171704 4.74208e-05 0)
(0.000170861 4.73474e-05 0)
(0.000169768 4.72258e-05 0)
(0.000168412 4.70612e-05 0)
(0.000166782 4.68581e-05 0)
(0.000164864 4.66203e-05 0)
(0.000162645 4.63508e-05 0)
(0.000160111 4.60517e-05 0)
(0.000157248 4.57241e-05 0)
(0.000154046 4.53673e-05 0)
(0.000150498 4.49796e-05 0)
(0.000146598 4.45568e-05 0)
(0.00014235 4.40931e-05 0)
(0.00013776 4.35804e-05 0)
(0.000132842 4.30088e-05 0)
(4.6182e-06 2.37224e-05 0)
(5.61619e-06 2.25759e-05 0)
(6.55063e-06 2.14077e-05 0)
(7.42797e-06 2.02262e-05 0)
(8.27309e-06 1.90376e-05 0)
(9.12399e-06 1.78737e-05 0)
(1.00134e-05 1.67729e-05 0)
(1.0967e-05 1.5779e-05 0)
(1.20152e-05 1.49647e-05 0)
(1.32063e-05 1.44451e-05 0)
(1.46196e-05 1.433e-05 0)
(1.63383e-05 1.45974e-05 0)
(1.83666e-05 1.50674e-05 0)
(2.05898e-05 1.55038e-05 0)
(2.28989e-05 1.57688e-05 0)
(2.52298e-05 1.58323e-05 0)
(2.7558e-05 1.57112e-05 0)
(2.98818e-05 1.5436e-05 0)
(3.22096e-05 1.50374e-05 0)
(3.45526e-05 1.45429e-05 0)
(3.69233e-05 1.39761e-05 0)
(3.93342e-05 1.33573e-05 0)
(4.1799e-05 1.27048e-05 0)
(4.43332e-05 1.20364e-05 0)
(4.6955e-05 1.13699e-05 0)
(4.96857e-05 1.07245e-05 0)
(5.25504e-05 1.01215e-05 0)
(5.55782e-05 9.5849e-06 0)
(5.88012e-05 9.14177e-06 0)
(6.2254e-05 8.82224e-06 0)
(6.59713e-05 8.65886e-06 0)
(6.99851e-05 8.68533e-06 0)
(7.43206e-05 8.93444e-06 0)
(7.89922e-05 9.43532e-06 0)
(8.39987e-05 1.02102e-05 0)
(8.932e-05 1.12711e-05 0)
(9.49153e-05 1.26174e-05 0)
(0.000100724 1.42343e-05 0)
(0.000106671 1.60932e-05 0)
(0.000112668 1.81536e-05 0)
(0.000118627 2.03672e-05 0)
(0.000124465 2.26814e-05 0)
(0.000130108 2.50441e-05 0)
(0.000135497 2.74069e-05 0)
(0.00014059 2.97275e-05 0)
(0.000145359 3.19704e-05 0)
(0.000149789 3.41078e-05 0)
(0.000153877 3.61184e-05 0)
(0.000157624 3.79871e-05 0)
(0.000161039 3.9704e-05 0)
(0.000164132 4.1264e-05 0)
(0.000166917 4.26655e-05 0)
(0.000169405 4.39103e-05 0)
(0.000171611 4.50028e-05 0)
(0.000173548 4.59493e-05 0)
(0.000175228 4.67578e-05 0)
(0.000176663 4.74371e-05 0)
(0.000177863 4.79965e-05 0)
(0.000178838 4.84456e-05 0)
(0.000179595 4.87937e-05 0)
(0.000180138 4.90498e-05 0)
(0.000180472 4.92223e-05 0)
(0.000180598 4.93192e-05 0)
(0.000180515 4.93477e-05 0)
(0.000180222 4.93145e-05 0)
(0.000179711 4.92255e-05 0)
(0.000178977 4.90863e-05 0)
(0.000178009 4.89019e-05 0)
(0.000176797 4.86769e-05 0)
(0.000175327 4.84155e-05 0)
(0.000173585 4.81215e-05 0)
(0.000171555 4.77983e-05 0)
(0.000169223 4.74488e-05 0)
(0.000166573 4.7075e-05 0)
(0.000163593 4.66783e-05 0)
(0.000160273 4.62585e-05 0)
(0.000156607 4.5814e-05 0)
(0.000152593 4.53411e-05 0)
(0.000148237 4.48339e-05 0)
(0.000143548 4.42843e-05 0)
(5.60012e-06 2.87718e-05 0)
(6.88218e-06 2.76852e-05 0)
(8.1412e-06 2.65825e-05 0)
(9.38596e-06 2.54721e-05 0)
(1.06321e-05 2.43663e-05 0)
(1.19009e-05 2.32889e-05 0)
(1.32165e-05 2.22756e-05 0)
(1.46043e-05 2.13732e-05 0)
(1.6092e-05 2.06374e-05 0)
(1.771e-05 2.01194e-05 0)
(1.94845e-05 1.98288e-05 0)
(2.14224e-05 1.97048e-05 0)
(2.35013e-05 1.96416e-05 0)
(2.5681e-05 1.9541e-05 0)
(2.79311e-05 1.93498e-05 0)
(3.02334e-05 1.90525e-05 0)
(3.25799e-05 1.86528e-05 0)
(3.49699e-05 1.81627e-05 0)
(3.74069e-05 1.75969e-05 0)
(3.98971e-05 1.69708e-05 0)
(4.2449e-05 1.63e-05 0)
(4.5073e-05 1.56001e-05 0)
(4.77823e-05 1.48872e-05 0)
(5.0593e-05 1.41787e-05 0)
(5.35243e-05 1.34934e-05 0)
(5.65991e-05 1.28526e-05 0)
(5.98437e-05 1.22802e-05 0)
(6.32868e-05 1.18034e-05 0)
(6.6959e-05 1.1452e-05 0)
(7.08899e-05 1.12581e-05 0)
(7.5106e-05 1.12547e-05 0)
(7.96264e-05 1.14737e-05 0)
(8.44592e-05 1.1943e-05 0)
(8.95975e-05 1.26837e-05 0)
(9.50168e-05 1.37068e-05 0)
(0.000100673 1.5011e-05 0)
(0.000106507 1.65812e-05 0)
(0.000112442 1.83891e-05 0)
(0.000118398 2.03953e-05 0)
(0.000124293 2.2553e-05 0)
(0.00013005 2.48119e-05 0)
(0.000135607 2.71221e-05 0)
(0.000140914 2.94377e-05 0)
(0.000145937 3.17181e-05 0)
(0.000150655 3.39295e-05 0)
(0.000155058 3.60446e-05 0)
(0.000159144 3.80419e-05 0)
(0.000162917 3.99055e-05 0)
(0.000166385 4.16239e-05 0)
(0.000169555 4.31903e-05 0)
(0.000172438 4.46015e-05 0)
(0.000175043 4.58576e-05 0)
(0.000177383 4.69616e-05 0)
(0.000179466 4.79192e-05 0)
(0.000181305 4.87375e-05 0)
(0.00018291 4.94251e-05 0)
(0.00018429 4.99914e-05 0)
(0.000185455 5.04457e-05 0)
(0.000186412 5.07977e-05 0)
(0.000187169 5.10565e-05 0)
(0.00018773 5.12305e-05 0)
(0.000188098 5.13277e-05 0)
(0.000188275 5.13552e-05 0)
(0.000188259 5.13194e-05 0)
(0.000188048 5.12259e-05 0)
(0.000187636 5.10798e-05 0)
(0.000187016 5.08856e-05 0)
(0.000186177 5.06474e-05 0)
(0.000185108 5.03689e-05 0)
(0.000183793 5.00535e-05 0)
(0.000182217 4.97045e-05 0)
(0.000180362 4.9325e-05 0)
(0.000178211 4.89179e-05 0)
(0.000175746 4.8486e-05 0)
(0.000172951 4.80314e-05 0)
(0.000169813 4.75557e-05 0)
(0.000166322 4.70592e-05 0)
(0.000162476 4.65408e-05 0)
(0.000158278 4.59971e-05 0)
(0.000153738 4.54226e-05 0)
(6.59293e-06 3.36406e-05 0)
(8.13103e-06 3.2563e-05 0)
(9.66902e-06 3.14759e-05 0)
(1.1215e-05 3.03892e-05 0)
(1.27808e-05 2.93171e-05 0)
(1.43811e-05 2.82789e-05 0)
(1.60326e-05 2.73009e-05 0)
(1.77532e-05 2.64133e-05 0)
(1.95599e-05 2.56443e-05 0)
(2.14662e-05 2.50073e-05 0)
(2.34774e-05 2.44887e-05 0)
(2.55886e-05 2.40472e-05 0)
(2.77877e-05 2.36304e-05 0)
(3.00637e-05 2.31948e-05 0)
(3.24094e-05 2.2714e-05 0)
(3.48209e-05 2.21769e-05 0)
(3.72972e-05 2.15817e-05 0)
(3.98399e-05 2.09329e-05 0)
(4.24528e-05 2.02384e-05 0)
(4.51421e-05 1.95086e-05 0)
(4.79166e-05 1.87558e-05 0)
(5.07874e-05 1.7994e-05 0)
(5.37689e-05 1.72392e-05 0)
(5.68783e-05 1.65092e-05 0)
(6.01361e-05 1.58248e-05 0)
(6.35655e-05 1.52092e-05 0)
(6.7192e-05 1.46887e-05 0)
(7.1042e-05 1.42926e-05 0)
(7.51406e-05 1.40517e-05 0)
(7.95094e-05 1.39981e-05 0)
(8.41627e-05 1.41626e-05 0)
(8.91042e-05 1.4572e-05 0)
(9.43236e-05 1.5247e-05 0)
(9.97943e-05 1.61982e-05 0)
(0.000105473 1.74249e-05 0)
(0.0001113 1.89132e-05 0)
(0.000117207 2.06368e-05 0)
(0.000123117 2.25589e-05 0)
(0.000128955 2.46355e-05 0)
(0.000134654 2.68194e-05 0)
(0.000140159 2.90639e-05 0)
(0.000145428 3.13256e-05 0)
(0.000150434 3.35658e-05 0)
(0.00015516 3.57518e-05 0)
(0.000159599 3.78559e-05 0)
(0.00016375 3.98557e-05 0)
(0.000167616 4.17331e-05 0)
(0.000171201 4.34741e-05 0)
(0.000174508 4.50687e-05 0)
(0.000177544 4.65109e-05 0)
(0.000180314 4.77983e-05 0)
(0.000182825 4.89321e-05 0)
(0.000185086 4.99165e-05 0)
(0.000187105 5.07581e-05 0)
(0.000188891 5.14652e-05 0)
(0.000190456 5.20475e-05 0)
(0.000191808 5.25149e-05 0)
(0.000192957 5.28776e-05 0)
(0.000193912 5.31453e-05 0)
(0.00019468 5.3327e-05 0)
(0.000195266 5.34312e-05 0)
(0.000195675 5.34652e-05 0)
(0.000195908 5.34355e-05 0)
(0.000195965 5.33477e-05 0)
(0.000195844 5.32067e-05 0)
(0.000195539 5.30164e-05 0)
(0.000195043 5.27804e-05 0)
(0.000194345 5.25015e-05 0)
(0.000193432 5.21822e-05 0)
(0.000192288 5.18249e-05 0)
(0.000190895 5.14317e-05 0)
(0.000189233 5.10047e-05 0)
(0.00018728 5.05462e-05 0)
(0.000185013 5.00585e-05 0)
(0.000182411 4.95439e-05 0)
(0.000179455 4.90045e-05 0)
(0.000176129 4.84421e-05 0)
(0.000172426 4.78574e-05 0)
(0.000168346 4.72498e-05 0)
(0.000163897 4.66164e-05 0)
(7.58736e-06 3.83932e-05 0)
(9.35841e-06 3.72961e-05 0)
(1.11429e-05 3.61945e-05 0)
(1.29475e-05 3.50978e-05 0)
(1.47814e-05 3.40179e-05 0)
(1.66549e-05 3.29696e-05 0)
(1.85798e-05 3.19698e-05 0)
(2.05674e-05 3.10351e-05 0)
(2.26272e-05 3.01774e-05 0)
(2.47652e-05 2.93978e-05 0)
(2.69826e-05 2.86843e-05 0)
(2.92772e-05 2.80135e-05 0)
(3.16455e-05 2.73591e-05 0)
(3.40858e-05 2.66984e-05 0)
(3.65979e-05 2.60161e-05 0)
(3.91829e-05 2.53037e-05 0)
(4.18433e-05 2.45589e-05 0)
(4.45829e-05 2.37839e-05 0)
(4.74076e-05 2.29846e-05 0)
(5.03252e-05 2.21698e-05 0)
(5.33459e-05 2.13511e-05 0)
(5.64824e-05 2.05422e-05 0)
(5.97503e-05 1.97599e-05 0)
(6.31676e-05 1.90233e-05 0)
(6.6755e-05 1.83547e-05 0)
(7.05345e-05 1.77791e-05 0)
(7.4529e-05 1.73244e-05 0)
(7.87596e-05 1.70202e-05 0)
(8.32439e-05 1.68971e-05 0)
(8.79927e-05 1.69848e-05 0)
(9.3007e-05 1.73095e-05 0)
(9.82749e-05 1.78914e-05 0)
(0.00010377 1.87421e-05 0)
(0.00010945 1.98621e-05 0)
(0.000115261 2.124e-05 0)
(0.000121137 2.28526e-05 0)
(0.00012701 2.46668e-05 0)
(0.000132812 2.66426e-05 0)
(0.000138483 2.87367e-05 0)
(0.000143975 3.0906e-05 0)
(0.000149252 3.31097e-05 0)
(0.000154293 3.53113e-05 0)
(0.000159084 3.74787e-05 0)
(0.00016362 3.95838e-05 0)
(0.000167898 4.1602e-05 0)
(0.000171918 4.3512e-05 0)
(0.000175678 4.52958e-05 0)
(0.000179176 4.6939e-05 0)
(0.00018241 4.84315e-05 0)
(0.000185383 4.97672e-05 0)
(0.000188094 5.09447e-05 0)
(0.000190549 5.19667e-05 0)
(0.000192754 5.28392e-05 0)
(0.00019472 5.35706e-05 0)
(0.000196457 5.41713e-05 0)
(0.000197977 5.46524e-05 0)
(0.000199291 5.50253e-05 0)
(0.000200412 5.5301e-05 0)
(0.00020135 5.54897e-05 0)
(0.000202115 5.56009e-05 0)
(0.000202713 5.56427e-05 0)
(0.000203151 5.56222e-05 0)
(0.000203432 5.55455e-05 0)
(0.000203557 5.54173e-05 0)
(0.000203525 5.52418e-05 0)
(0.00020333 5.50219e-05 0)
(0.000202966 5.476e-05 0)
(0.000202423 5.44577e-05 0)
(0.000201687 5.41163e-05 0)
(0.000200742 5.37365e-05 0)
(0.000199566 5.3319e-05 0)
(0.000198137 5.28645e-05 0)
(0.000196429 5.23736e-05 0)
(0.000194412 5.18472e-05 0)
(0.000192057 5.12866e-05 0)
(0.000189335 5.06934e-05 0)
(0.000186222 5.00693e-05 0)
(0.000182699 4.94157e-05 0)
(0.000178755 4.87337e-05 0)
(0.000174395 4.80229e-05 0)
(8.57288e-06 4.30774e-05 0)
(1.05599e-05 4.19435e-05 0)
(1.25692e-05 4.08077e-05 0)
(1.46061e-05 3.96775e-05 0)
(1.66774e-05 3.85621e-05 0)
(1.87909e-05 3.74719e-05 0)
(2.09545e-05 3.64174e-05 0)
(2.31758e-05 3.54075e-05 0)
(2.54607e-05 3.44473e-05 0)
(2.7813e-05 3.35357e-05 0)
(3.02345e-05 3.26649e-05 0)
(3.27256e-05 3.18221e-05 0)
(3.52872e-05 3.09928e-05 0)
(3.79209e-05 3.01641e-05 0)
(4.06293e-05 2.93265e-05 0)
(4.34159e-05 2.84747e-05 0)
(4.62855e-05 2.76074e-05 0)
(4.92439e-05 2.67271e-05 0)
(5.22988e-05 2.58395e-05 0)
(5.54598e-05 2.49536e-05 0)
(5.87385e-05 2.4081e-05 0)
(6.21489e-05 2.32366e-05 0)
(6.57071e-05 2.24378e-05 0)
(6.94311e-05 2.17053e-05 0)
(7.33403e-05 2.10624e-05 0)
(7.74542e-05 2.05353e-05 0)
(8.17908e-05 2.01522e-05 0)
(8.63648e-05 1.9942e-05 0)
(9.11844e-05 1.99334e-05 0)
(9.6249e-05 2.01519e-05 0)
(0.000101547 2.06179e-05 0)
(0.000107053 2.1344e-05 0)
(0.000112729 2.23332e-05 0)
(0.000118524 2.3577e-05 0)
(0.00012438 2.50565e-05 0)
(0.000130233 2.67431e-05 0)
(0.000136024 2.86014e-05 0)
(0.0001417 3.05928e-05 0)
(0.000147218 3.2678e-05 0)
(0.000152549 3.48197e-05 0)
(0.000157676 3.69837e-05 0)
(0.000162587 3.91386e-05 0)
(0.000167277 4.12553e-05 0)
(0.000171741 4.33066e-05 0)
(0.000175973 4.52668e-05 0)
(0.000179963 4.71124e-05 0)
(0.000183701 4.88229e-05 0)
(0.000187175 5.03822e-05 0)
(0.000190379 5.17796e-05 0)
(0.000193308 5.30102e-05 0)
(0.000195961 5.40748e-05 0)
(0.000198346 5.4979e-05 0)
(0.000200471 5.57321e-05 0)
(0.000202351 5.63459e-05 0)
(0.000204001 5.68336e-05 0)
(0.000205437 5.72087e-05 0)
(0.000206674 5.74841e-05 0)
(0.00020773 5.7672e-05 0)
(0.000208616 5.77832e-05 0)
(0.000209346 5.78273e-05 0)
(0.000209929 5.78123e-05 0)
(0.000210373 5.7745e-05 0)
(0.000210682 5.76308e-05 0)
(0.000210859 5.74739e-05 0)
(0.000210904 5.72774e-05 0)
(0.000210814 5.70435e-05 0)
(0.000210583 5.67735e-05 0)
(0.000210202 5.64679e-05 0)
(0.000209658 5.61267e-05 0)
(0.000208935 5.57491e-05 0)
(0.000208012 5.53342e-05 0)
(0.000206863 5.48807e-05 0)
(0.00020546 5.43874e-05 0)
(0.000203766 5.38531e-05 0)
(0.000201746 5.32767e-05 0)
(0.000199358 5.26579e-05 0)
(0.000196564 5.19966e-05 0)
(0.000193326 5.12933e-05 0)
(0.000189617 5.05487e-05 0)
(0.000185425 4.97634e-05 0)
(9.53955e-06 4.77241e-05 0)
(1.17305e-05 4.65418e-05 0)
(1.39502e-05 4.53582e-05 0)
(1.62029e-05 4.41792e-05 0)
(1.84937e-05 4.30116e-05 0)
(2.08284e-05 4.18624e-05 0)
(2.32127e-05 4.07383e-05 0)
(2.56521e-05 3.96444e-05 0)
(2.81511e-05 3.85835e-05 0)
(3.0713e-05 3.75545e-05 0)
(3.33405e-05 3.65529e-05 0)
(3.60359e-05 3.55714e-05 0)