/*--------------------------------*- C++ -*----------------------------------*\
  =========                 |
  \\      /  F ield         | OpenFOAM: The Open Source CFD Toolbox
   \\    /   O peration     | Website:  https://openfoam.org
    \\  /    A nd           | Version:  7
     \\/     M anipulation  |
\*---------------------------------------------------------------------------*/
FoamFile
{
    version     2.0;
    format      ascii;
    class       volScalarField;
    location    "0";
    object      epss;
}
// * * * * * * * * * * * * * * * * * * * * * * * * * * * * * * * * * * * * * //

dimensions      [0 0 0 0 0 0 0];

boundaryField
{
    innerWall
    {
        type            zeroGradient;
    }
    outerWall
    {
        type            zeroGradient;
    }
    frontAndBack
    {
        type            empty;
    }
}


internalField   nonuniform List<scalar> 
49920
(
0.597243381
0.57669326
0.671006596
0.612664555
0.622118594
0.545552205
0.589079932
0.698528421
0.648492547
0.569972171
0.593960857
0.650001936
0.604860995
0.685737887
0.580818953
0.57942746
0.611720818
0.599134826
0.641753093
0.616722636
0.597972498
0.638865209
0.595701228
0.555977385
0.52658456
0.599498774
0.59852071
0.607420332
0.644197078
0.589838437
0.565220819
0.594729188
0.599883964
0.543545405
0.689552675
0.592446281
0.612933664
0.553809239
0.631016228
0.612663099
0.562954457
0.621443146
0.581291341
0.671776043
0.569625407
0.526036108
0.561381801
0.646352172
0.658254062
0.587600393
0.568321828
0.579644397
0.591737743
0.632021444
0.535600734
0.563959554
0.580227881
0.6383589
0.6397658
0.595433199
0.625902431
0.583105794
0.586112623
0.629830572
0.604387734
0.578695586
0.584189525
0.583918672
0.562751007
0.62912438
0.624858044
0.534132892
0.590426393
0.601328557
0.614241349
0.554622993
0.68877008
0.695988661
0.642914328
0.524803557
0.598750164
0.545168803
0.592890487
0.623260036
0.620285859
0.477222593
0.676252015
0.510679398
0.615804043
0.585120071
0.557020687
0.591186672
0.643241654
0.568555945
0.547511923
0.559479696
0.589619073
0.605815548
0.574911199
0.662473359
0.538563897
0.541564487
0.656272593
0.598102348
0.690484809
0.664992891
0.646222583
0.579396805
0.585148786
0.640605358
0.541568141
0.528663009
0.609806681
0.600785963
0.703821626
0.536574445
0.627009401
0.591625606
0.558439457
0.59635847
0.605225462
0.589031511
0.592098213
0.651852501
0.643721578
0.542468831
0.671192377
0.684125181
0.56213192
0.485838885
0.683978985
0.530794516
0.496885929
0.590456735
0.612710033
0.57668352
0.59031921
0.592702125
0.644435127
0.570557078
0.594312383
0.611323789
0.594591044
0.584227907
0.583530112
0.569446936
0.689343622
0.598746962
0.591221371
0.649506658
0.620249361
0.637004452
0.595010733
0.64165999
0.547326603
0.600044205
0.530104049
0.602773915
0.685511372
0.658428831
0.567513668
0.555227186
0.622471512
0.540123457
0.612641477
0.580904952
0.64725487
0.623483539
0.528138349
0.587813098
0.580569785
0.564269884
0.53253315
0.609635738
0.535980646
0.55965204
0.619520626
0.521032723
0.561752799
0.597409162
0.590665559
0.611499232
0.516882966
0.6004985
0.654324218
0.558363936
0.660638746
0.66461674
0.622108859
0.555478676
0.722025112
0.674154095
0.600944458
0.655758288
0.542418026
0.695829941
0.565299988
0.625566503
0.602069337
0.58543176
0.547621454
0.581779955
0.51133387
0.660487666
0.575146407
0.613293751
0.575916104
0.601433161
0.563854259
0.623869608
0.542430531
0.678767184
0.619865169
0.598694083
0.605100211
0.514448259
0.673203427
0.642847757
0.52384525
0.62068862
0.588493591
0.541699516
0.581246908
0.581891328
0.534941645
0.605984896
0.657327052
0.543864414
0.65131355
0.636866526
0.515143356
0.616258497
0.685472219
0.539685102
0.569103524
0.731096262
0.613139707
0.59864916
0.550043805
0.62775617
0.633040424
0.733379847
0.707903219
0.523354037
0.52688233
0.625789313
0.628797854
0.641671765
0.582608699
0.571491505
0.625057435
0.594378482
0.576040856
0.61325236
0.654579869
0.672716622
0.597920405
0.520910747
0.557402386
0.591931722
0.555941792
0.608309417
0.61953499
0.532386603
0.693698191
0.628277647
0.58547962
0.624850184
0.629161077
0.646502398
0.559391176
0.595862679
0.593245323
0.583554284
0.565913111
0.548356848
0.607628595
0.583537976
0.564093342
0.639166009
0.564741573
0.600593457
0.614360566
0.546806312
0.582031494
0.615115637
0.550894444
0.599016652
0.639513353
0.62075916
0.597004419
0.555724721
0.613373785
0.625446025
0.616146416
0.62089925
0.574605292
0.617235349
0.539973595
0.708348802
0.622485321
0.661413048
0.55356096
0.734574041
0.502027745
0.570317572
0.613781556
0.663790203
0.596471462
0.575794108
0.619831517
0.607848547
0.682790866
0.62038044
0.666552403
0.543967758
0.606711885
0.636915441
0.617392112
0.636132196
0.553787369
0.578493376
0.650311502
0.57264538
0.624873637
0.620601464
0.644071207
0.474142688
0.6977211
0.663425757
0.481270092
0.516687161
0.630390537
0.615977581
0.547129481
0.541946309
0.600069525
0.575105179
0.693743975
0.737309494
0.620402706
0.627236332
0.511355118
0.610910382
0.629636769
0.628037098
0.604866151
0.541132925
0.554435932
0.597362959
0.526971483
0.504098739
0.636007915
0.557486708
0.612644781
0.549006029
0.591595721
0.487443026
0.514321033
0.614553086
0.574260467
0.5626275
0.615768833
0.622129084
0.6501066
0.586566758
0.594348614
0.610016252
0.599758307
0.53829854
0.562909042
0.755861757
0.537498357
0.602369233
0.527155646
0.531536588
0.637425801
0.592260608
0.581322299
0.656182478
0.634448874
0.59687709
0.520924545
0.606880275
0.606948277
0.633600716
0.617260987
0.595870108
0.640209811
0.61530892
0.630981756
0.570247998
0.520656321
0.606891711
0.564067287
0.589570545
0.651108931
0.565713643
0.543497681
0.673205187
0.622011678
0.639869599
0.622771976
0.606614435
0.672362697
0.642233267
0.573674846
0.483963025
0.606606651
0.455183474
0.517829129
0.658407788
0.587191707
0.548228838
0.674170671
0.656571349
0.677868712
0.646029607
0.498237762
0.621275936
0.458154385
0.654970089
0.587515518
0.582752337
0.601179479
0.543826276
0.627254545
0.600855305
0.506980106
0.653625943
0.664387999
0.512121989
0.523983827
0.562305335
0.687227937
0.606506539
0.60374278
0.502720837
0.608196849
0.598051228
0.640729164
0.633407678
0.710581301
0.586644072
0.519960721
0.624413742
0.658749008
0.606722606
0.679227396
0.526190574
0.563152411
0.621876498
0.479574576
0.557699206
0.687402395
0.597230558
0.619334934
0.596883864
0.691395135
0.594454089
0.598620021
0.581465922
0.627871957
0.666976803
0.569562214
0.52134309
0.563723318
0.6190146
0.558634713
0.571399833
0.650963364
0.533759396
0.527814368
0.559619452
0.633266141
0.636435579
0.621337536
0.663677156
0.588649692
0.549607815
0.568546324
0.488055947
0.617704058
0.54552604
0.597743605
0.662511152
0.60490676
0.55543473
0.651346371
0.649803613
0.508642371
0.544230563
0.5902682
0.528246081
0.666714565
0.532046028
0.690761599
0.559369441
0.524088835
0.581426273
0.574611303
0.540827683
0.638862224
0.641551163
0.605825285
0.61328729
0.624212563
0.555006541
0.67373964
0.594075531
0.610524345
0.60108574
0.515986628
0.611360149
0.548422392
0.54023185
0.631660081
0.571942309
0.663584498
0.659898616
0.550195677
0.645772936
0.631892334
0.675289907
0.557432823
0.676905386
0.511838644
0.650480476
0.630709041
0.546922533
0.664718147
0.632694302
0.586740323
0.554349036
0.550357882
0.658300159
0.574239145
0.631990417
0.571180748
0.653744889
0.634261846
0.582751766
0.588304544
0.520762064
0.592780824
0.588648483
0.543781104
0.59540731
0.597180649
0.612618307
0.556003006
0.654361055
0.589855851
0.603938942
0.573048114
0.556532216
0.698938972
0.624036989
0.665685342
0.586140483
0.612047223
0.529219692
0.578525927
0.658646104
0.603293977
0.674924738
0.669477504
0.681209265
0.57506266
0.671715061
0.695416784
0.662602131
0.652629265
0.627162489
0.637360633
0.662534719
0.642978838
0.64511986
0.671305829
0.554282461
0.671745286
0.516394357
0.664713632
0.650170457
0.578667538
0.560156327
0.565652617
0.537536655
0.621308124
0.524854233
0.582646402
0.591888293
0.554435995
0.574122055
0.504829253
0.58454856
0.619155371
0.556141469
0.62399984
0.570035933
0.586588524
0.572484529
0.687087214
0.682555728
0.630667077
0.579328863
0.623606216
0.602115845
0.563393899
0.660347272
0.630476585
0.547948278
0.551492982
0.553260405
0.547191749
0.614315375
0.523110819
0.586814902
0.648918177
0.665008243
0.537731556
0.649048708
0.603104381
0.646050617
0.556278507
0.649983312
0.577625817
0.689703253
0.623088545
0.634000223
0.576179793
0.56751536
0.591303265
0.611646444
0.636022374
0.625482639
0.601539733
0.632722293
0.555950267
0.603173142
0.654067772
0.629657397
0.589335342
0.597837088
0.574266356
0.481566426
0.677040793
0.632606992
0.608721838
0.621971061
0.629012835
0.675181695
0.650247592
0.577518989
0.681475856
0.658962744
0.583383724
0.658304096
0.670711722
0.613666254
0.580686238
0.541312932
0.644800664
0.553603629
0.57186931
0.673750969
0.576064177
0.565774802
0.626199106
0.586461186
0.606656478
0.523875231
0.60153987
0.642430801
0.632930666
0.581449828
0.662660032
0.649872061
0.612220569
0.71059575
0.565764322
0.619259952
0.56470766
0.658495662
0.602803854
0.567942344
0.535496415
0.566730783
0.64184926
0.62557417
0.560371574
0.473428773
0.581815467
0.633925079
0.517100115
0.541651146
0.630197361
0.687904879
0.654488601
0.657953075
0.618419577
0.554664821
0.652322665
0.547167347
0.566577171
0.632402778
0.659238065
0.593352533
0.727090394
0.616632706
0.626480643
0.661370201
0.647591502
0.572299226
0.608197196
0.618853412
0.586849885
0.558694051
0.601203812
0.594826393
0.545998298
0.659085224
0.59613019
0.711337837
0.659570296
0.5587027
0.569304441
0.63140684
0.561870066
0.607930583
0.584688767
0.520195274
0.614898343
0.580823303
0.612174489
0.489787661
0.565689168
0.612297047
0.612914823
0.590182319
0.622002773
0.545937354
0.634680572
0.61018943
0.528899245
0.614062342
0.625070384
0.60414359
0.67525928
0.563015654
0.656321974
0.589861771
0.631820942
0.607080128
0.619102438
0.561276539
0.614406736
0.610794037
0.610578972
0.587000293
0.529198415
0.569235062
0.625981175
0.556548913
0.631737419
0.62616309
0.585138315
0.590310036
0.541642344
0.552075007
0.579568017
0.586056643
0.557648731
0.496431063
0.602891616
0.535260331
0.585025544
0.605394585
0.63786871
0.542861936
0.630897746
0.63344567
0.633493476
0.585924267
0.6636576
0.606287672
0.60639352
0.656758964
0.565816785
0.651545044
0.579178885
0.535722591
0.595374366
0.647436675
0.612481771
0.606632682
0.508596057
0.597466532
0.620051222
0.641644912
0.601013575
0.606347677
0.554586069
0.518464783
0.647464201
0.590402176
0.613676279
0.544570573
0.61261728
0.595391725
0.635139948
0.630553709
0.519976883
0.561731925
0.63649372
0.620191533
0.656598821
0.586751079
0.585123813
0.57483625
0.654586655
0.568110352
0.595260055
0.646540884
0.585095501
0.661683779
0.661880663
0.559790666
0.528843838
0.653404501
0.492192161
0.587121491
0.582656519
0.60682462
0.649422315
0.619634612
0.601820528
0.616095734
0.622573188
0.537205081
0.50821142
0.502568111
0.544062263
0.693197742
0.604860226
0.607996912
0.624943262
0.652403109
0.561812004
0.594121524
0.624818197
0.574354286
0.662195341
0.528963501
0.680772772
0.596225453
0.536404281
0.520144226
0.588142121
0.643476334
0.609973874
0.532240687
0.675419233
0.481185291
0.571934782
0.613274392
0.586478649
0.571938524
0.57234278
0.532339746
0.661700816
0.552858947
0.648137906
0.593309642
0.641945612
0.580501424
0.67038558
0.524733873
0.578630481
0.672412643
0.601087701
0.545391628
0.576575914
0.586339287
0.617224653
0.685717934
0.573331279
0.59470414
0.658017793
0.590972198
0.586955769
0.617154684
0.636112695
0.557226155
0.527734667
0.607325207
0.518674566
0.558815057
0.558608295
0.48863217
0.644728171
0.520006389
0.686636374
0.644329126
0.513546036
0.484773614
0.578790698
0.548635844
0.650946071
0.611417795
0.623468339
0.585376057
0.695519558
0.591410828
0.522199271
0.648754107
0.577538844
0.632714567
0.581593214
0.654214714
0.452099167
0.567153961
0.552991807
0.602361514
0.650312603
0.572669243
0.621968808
0.577570828
0.662685446
0.588123432
0.581328273
0.598486698
0.564847258
0.481059447
0.63131876
0.67083733
0.629374517
0.611879238
0.665217038
0.507376288
0.624275486
0.549593175
0.631147123
0.546765285
0.599520748
0.527245862
0.588708444
0.542341311
0.574445454
0.583447739
0.566340288
0.626243632
0.572960028
0.570520491
0.504979711
0.573643712
0.554369587
0.63767918
0.539907976
0.677023262
0.523075366
0.631643032
0.67842742
0.64249742
0.575254072
0.583635274
0.632988491
0.535661764
0.63553492
0.573694531
0.576803367
0.55170889
0.662179551
0.615817932
0.617755354
0.667260962
0.543968478
0.598278853
0.576754248
0.556886063
0.542989401
0.657251484
0.577760993
0.687359914
0.542067383
0.616837669
0.555890727
0.603655232
0.602471547
0.577481151
0.655884451
0.54169492
0.536794854
0.47823318
0.530782993
0.583912874
0.57060372
0.654824423
0.561149822
0.607613532
0.66552492
0.622445517
0.63994808
0.651143148
0.521892399
0.608624534
0.679314702
0.529301431
0.62588082
0.553134701
0.594933097
0.678655094
0.565669072
0.569263174
0.644178197
0.566956301
0.696933676
0.540094557
0.554727075
0.627014583
0.604430077
0.664602515
0.559517576
0.608676864
0.66658077
0.547295709
0.560386849
0.599605335
0.56577301
0.588818234
0.557815132
0.562355227
0.546237604
0.678316568
0.55992704
0.605501386
0.573333192
0.636489548
0.620063536
0.607687435
0.571930916
0.585416626
0.640566922
0.627673605
0.587386658
0.528638642
0.571636631
0.595387818
0.522987834
0.571249849
0.575104057
0.682929224
0.541709897
0.466299515
0.639214977
0.64719677
0.66116168
0.64072152
0.580878691
0.603914702
0.694222859
0.575317878
0.61943951
0.606671481
0.630395237
0.541228611
0.604294841
0.60454853
0.684277757
0.618171705
0.682599404
0.627487144
0.58934907
0.634108965
0.530741022
0.567310261
0.652149409
0.664491943
0.584284994
0.579863031
0.695576534
0.535772052
0.615464031
0.662756732
0.613749453
0.653230166
0.652789676
0.691425574
0.572592612
0.582745768
0.564903025
0.660541013
0.580013971
0.607149535
0.58932358
0.487446236
0.593710182
0.681101429
0.578599123
0.580653841
0.594959257
0.505985531
0.594618201
0.582967797
0.556588759
0.602343919
0.613631688
0.627997716
0.563710681
0.629320597
0.611699574
0.539355261
0.59232935
0.651064685
0.60752424
0.632704097
0.579052011
0.542645594
0.696086142
0.565713685
0.55784941
0.616184484
0.621830548
0.607212571
0.583726512
0.593116141
0.547415644
0.666545699
0.604133234
0.544102302
0.557758948
0.595952024
0.643717452
0.594646338
0.569853495
0.551757148
0.470827234
0.557046069
0.620261675
0.637971101
0.616238196
0.628692194
0.553116709
0.665013168
0.591789368
0.589435142
0.531249277
0.68287512
0.528151711
0.639783945
0.560258635
0.691592357
0.605731304
0.660936267
0.618155461
0.684782589
0.519756088
0.559066732
0.603577477
0.591596932
0.58883995
0.636729309
0.65517716
0.62014945
0.5322944
0.679695738
0.575085526
0.656847224
0.550533197
0.637488903
0.637310591
0.627107785
0.611419416
0.528216719
0.671194703
0.559547007
0.548059437
0.704099257
0.626202157
0.680597832
0.500743709
0.555433451
0.499207045
0.569916859
0.594202789
0.587776592
0.630438407
0.598303215
0.608608823
0.544372014
0.573498724
0.598268635
0.571429729
0.558801677
0.608991532
0.645294793
0.648460199
0.589139436
0.598733955
0.569654233
0.59264363
0.636346193
0.648947807
0.68927031
0.55434251
0.630158531
0.582404904
0.555553037
0.606394123
0.531252959
0.616231777
0.648532719
0.601290014
0.549215687
0.578121612
0.551108877
0.572597416
0.668059131
0.521117493
0.628151299
0.614280526
0.596084708
0.566486474
0.698583175
0.554038197
0.609557744
0.599412426
0.598348574
0.693291074
0.580789996
0.555555513
0.667022918
0.598675981
0.479950723
0.608738897
0.614118966
0.641159947
0.627551272
0.646069919
0.514477828
0.600332713
0.583904643
0.592593607
0.611885958
0.777135955
0.498393202
0.593335996
0.646936873
0.500383456
0.721942738
0.555454494
0.602254145
0.659490673
0.636979863
0.616678274
0.586392342
0.624002612
0.61016172
0.490923204
0.627396103
0.61100957
0.597819578
0.513251547
0.635775061
0.527605345
0.614721727
0.578779386
0.614797221
0.550609233
0.614848294
0.668217979
0.524261833
0.637524531
0.68495034
0.629933881
0.521354123
0.6689885
0.692347349
0.648001149
0.528371193
0.639576354
0.602018409
0.611559166
0.59090488
0.615358155
0.595408496
0.637021243
0.554575755
0.536239234
0.699143778
0.545196521
0.594235615
0.553467697
0.551500959
0.634675468
0.553232925
0.566436211
0.685044725
0.626959515
0.60722631
0.605486505
0.494590755
0.55601777
0.595653814
0.647999018
0.635062196
0.644138831
0.626823618
0.637991318
0.602051344
0.575414765
0.623336985
0.586785019
0.632310744
0.614435421
0.608437944
0.563880979
0.5327384
0.624027797
0.611752446
0.624285297
0.570220551
0.565912088
0.572244744
0.55951598
0.574141481
0.568930902
0.497308609
0.596533167
0.594899094
0.571302188
0.553254789
0.511055637
0.640831971
0.559976043
0.50974954
0.62492797
0.561925024
0.534441875
0.552659707
0.558673229
0.532302981
0.571747215
0.56807665
0.587631749
0.680119588
0.586966844
0.657068661
0.660155381
0.576905769
0.568729382
0.693385385
0.558566459
0.625050957
0.597691951
0.54059859
0.616224185
0.633910618
0.562831958
0.638054001
0.624582828
0.594691714
0.599532641
0.606830887
0.543834886
0.6184316
0.513622325
0.5331755
0.617621429
0.614825161
0.648261313
0.626007556
0.570189164
0.589039162
0.59263696
0.576034503
0.548297077
0.592117183
0.619498041
0.63001477
0.560976282
0.607793923
0.652429459
0.571765378
0.613252876
0.67311728
0.657097589
0.569579489
0.647889853
0.723601862
0.725504518
0.5880164
0.574373318
0.55918875
0.522131557
0.624170713
0.660356437
0.614149441
0.648838904
0.609813542
0.602403067
0.60522874
0.640442503
0.506487784
0.623999633
0.578864326
0.618745342
0.635091752
0.564883952
0.644268461
0.58492703
0.601699045
0.690942924
0.535241024
0.610384168
0.576715856
0.521392283
0.632332079
0.596553725
0.575368625
0.643445583
0.606832427
0.513820256
0.597563673
0.511565062
0.684088039
0.550005636
0.590851399
0.622834657
0.668203638
0.564319441
0.56272421
0.515337104
0.566592405
0.606319779
0.658179661
0.654893245
0.548652033
0.660957286
0.561795223
0.558964524
0.570788387
0.633869257
0.679376349
0.584488704
0.663851699
0.587573765
0.621181055
0.695651763
0.645059764
0.573707357
0.623227726
0.580139631
0.608661106
0.570586023
0.614593146
0.626184183
0.466784142
0.574852651
0.606419154
0.637167105
0.632434814
0.591782501
0.584739827
0.655938678
0.593925014
0.614336456
0.600146864
0.595984402
0.640026838
0.634580441
0.644974306
0.674600989
0.65479945
0.604547771
0.530636557
0.655724612
0.587568751
0.52538372
0.643932761
0.625402598
0.608825033
0.554562282
0.641424685
0.643271815
0.518116247
0.65271319
0.502885936
0.614263452
0.540138448
0.657928039
0.675354531
0.546067844
0.498991761
0.562509775
0.624474509
0.600313955
0.544815685
0.574590277
0.580534203
0.738938008
0.470366775
0.623939379
0.532883586
0.597685549
0.620639537
0.649205973
0.567139576
0.546544897
0.652296191
0.586942746
0.585566857
0.555579629
0.573352747
0.635228257
0.586794799
0.602720876
0.530219676
0.543310289
0.706584166
0.609990847
0.623055911
0.642449312
0.574647074
0.548393863
0.702934912
0.598154276
0.664634591
0.590952452
0.691603782
0.573423883
0.576237467
0.639369481
0.647148022
0.573940631
0.635594739
0.550668487
0.547324753
0.664515524
0.639128658
0.660909393
0.513973003
0.606316471
0.599693704
0.629446998
0.546477343
0.673415428
0.594588132
0.616283728
0.510194476
0.717777809
0.578652469
0.577595092
0.645993807
0.622929588
0.564336204
0.608719594
0.611412395
0.510932756
0.617649866
0.647034598
0.526564833
0.664991976
0.678565789
0.648642071
0.538445087
0.546909857
0.647503452
0.561195857
0.625341695
0.683554928
0.608210161
0.758310137
0.600149862
0.666796742
0.51286807
0.630299928
0.641437078
0.616104402
0.626241412
0.544034
0.60895058
0.658952432
0.617490946
0.620128612
0.633783546
0.625255511
0.635409781
0.697163698
0.595019464
0.638308253
0.59811926
0.657255682
0.607798504
0.565514863
0.601430546
0.539589036
0.567352993
0.568203646
0.536889111
0.61401307
0.545352026
0.63568529
0.576947817
0.533908796
0.573272961
0.617912848
0.611135125
0.715294987
0.533799343
0.436356101
0.542891768
0.615520153
0.614094179
0.684200214
0.589067261
0.609052601
0.572307776
0.598461422
0.580883174
0.552602388
0.585270394
0.57683985
0.617978252
0.552497757
0.501145613
0.587484682
0.667094335
0.581641054
0.605559611
0.550790511
0.644986415
0.633771023
0.514534881
0.621776665
0.573104788
0.645577021
0.60365393
0.595353072
0.590493681
0.523905221
0.564316366
0.591384493
0.606657784
0.515873797
0.614859573
0.585471553
0.641021026
0.602677098
0.54970113
0.647843671
0.643656351
0.639807631
0.610377905
0.493901739
0.614646279
0.656556268
0.617067867
0.608807676
0.553596071
0.51641296
0.612636479
0.593111313
0.603294015
0.621471139
0.605828425
0.649894567
0.58011132
0.575411545
0.599570099
0.608441675
0.603635467
0.660740726
0.617002337
0.680238838
0.610638519
0.531992554
0.574379403
0.567255384
0.667155851
0.625017938
0.558605899
0.667146441
0.682695092
0.590944168
0.591532873
0.574310553
0.615693245
0.664970955
0.636744405
0.615482037
0.55933758
0.602948872
0.559169386
0.531946375
0.593803362
0.595157512
0.60422613
0.573511344
0.588042332
0.646238133
0.618916628
0.55294925
0.624809302
0.597680455
0.563489624
0.558686549
0.762368112
0.613722719
0.550958576
0.640136439
0.607969344
0.582105487
0.648192833
0.62588578
0.541226207
0.61369204
0.562235066
0.556765756
0.658413198
0.628518686
0.626713886
0.542413949
0.545804456
0.62655199
0.560857465
0.71704452
0.530951402
0.602596793
0.549734736
0.691841745
0.671821305
0.535758725
0.622985332
0.627306743
0.647172883
0.646394859
0.67006835
0.599570016
0.556722679
0.591889179
0.680123482
0.57454354
0.574854202
0.711504617
0.653409621
0.588541802
0.528305164
0.564594575
0.57664855
0.700389952
0.598723041
0.653266015
0.597042678
0.665993787
0.646917197
0.643982246
0.689666151
0.622466268
0.610302607
0.531154228
0.570544955
0.6394367
0.665856748
0.521778189
0.60454779
0.662543143
0.517714574
0.640164279
0.572254319
0.555005542
0.610092933
0.60361353
0.624133843
0.60663409
0.567006459
0.644101152
0.585755891
0.662479302
0.52145689
0.662974964
0.560627372
0.604690634
0.532224971
0.62376711
0.675915428
0.59467188
0.487061805
0.540141554
0.559025533
0.682392834
0.661555709
0.621049972
0.58310697
0.677354103
0.601640103
0.630518106
0.497811828
0.536679726
0.629662995
0.652432711
0.61827055
0.579996261
0.625204918
0.622044836
0.670901253
0.574990723
0.555274839
0.592979232
0.516749292
0.576385494
0.528317813
0.473178803
0.576125703
0.675563187
0.589783623
0.623791021
0.601226148
0.697275346
0.618547763
0.668672628
0.617593905
0.598555878
0.510930882
0.651335571
0.638437186
0.651189756
0.573568027
0.586177954
0.60531993
0.589598112
0.637289872
0.578704526
0.534050701
0.555016129
0.667992725
0.645599781
0.625783757
0.554270112
0.633905175
0.654958945
0.658851904
0.63020558
0.454520666
0.603178022
0.695481635
0.546762079
0.6071636
0.610807111
0.592521827
0.601943097
0.52396653
0.618504155
0.58418551
0.687354589
0.59561359
0.518358832
0.499268446
0.579809
0.604354525
0.551466406
0.619590718
0.575435426
0.569140883
0.561061294
0.524456587
0.561925244
0.551395758
0.455381251
0.542359173
0.65306827
0.590744276
0.56239059
0.606647317
0.660580516
0.496925765
0.576320828
0.629266678
0.616456982
0.591856304
0.616382031
0.683794797
0.646321253
0.507154207
0.660681966
0.660146924
0.633175947
0.538930975
0.627347521
0.611132874
0.568734923
0.553330243
0.603060885
0.599603716
0.621313544
0.698421373
0.638469976
0.656056766
0.665373908
0.586560527
0.599455992
0.647614787
0.554430969
0.692272871
0.590271943
0.510647988
0.590337434
0.626425186
0.652626474
0.676315335
0.642234014
0.635715748
0.554827345
0.607385121
0.753360397
0.591273971
0.599753946
0.586520883
0.542493241
0.613613445
0.575456199
0.63708482
0.570944226
0.644740979
0.602519991
0.531349617
0.604382682
0.656075454
0.561692638
0.631859731
0.505774966
0.626750972
0.561618873
0.662702845
0.664880464
0.540950052
0.622949639
0.592738195
0.58770743
0.579681937
0.604111547
0.646510951
0.639437136
0.498883942
0.605404917
0.548053378
0.60661388
0.655713755
0.615193379
0.621552507
0.59933773
0.542361046
0.598974159
0.663757073
0.528353925
0.692455463
0.573626805
0.570852029
0.577061428
0.561712799
0.538211794
0.69938904
0.605995737
0.64028517
0.606239225
0.526259131
0.616280815
0.734753682
0.566359798
0.6931503
0.642269135
0.550160369
0.618674907
0.556747212
0.599148559
0.609585796
0.625143488
0.617721863
0.616620886
0.535641313
0.692722471
0.451511376
0.643572059
0.570194717
0.565390657
0.65477563
0.686470286
0.585884181
0.65437393
0.545110736
0.614372175
0.514611871
0.603412918
0.655144438
0.618438569
0.660445018
0.625000369
0.57579276
0.512972298
0.68617319
0.480279861
0.581762077
0.595933623
0.562838277
0.49322803
0.627588858
0.617468721
0.576802374
0.618675873
0.640906625
0.676808544
0.673062285
0.617768769
0.579903057
0.581537588
0.654467813
0.655952876
0.571482487
0.570681553
0.671567099
0.673017109
0.63724426
0.517753919
0.649286084
0.646358084
0.545624667
0.595654244
0.588239842
0.639464487
0.580651197
0.563189527
0.588569445
0.650273836
0.602697866
0.62124568
0.564606745
0.642841187
0.63113288
0.609867782
0.571622078
0.640084389
0.524548539
0.534980322
0.583808292
0.684177261
0.571404702
0.66033212
0.605791231
0.602993387
0.557779575
0.521141984
0.573188285
0.643667005
0.542099896
0.547086235
0.555627438
0.561986922
0.597137102
0.451009163
0.603653262
0.595521799
0.59725285
0.613976345
0.561940175
0.515944115
0.479394742
0.583880026
0.626394208
0.6593945
0.680794055
0.597958142
0.546223364
0.582905977
0.576695896
0.604436152
0.557282447
0.550282952
0.586522616
0.616128542
0.551290762
0.634122651
0.643369015
0.520884328
0.659550475
0.603523104
0.598866544
0.625505011
0.507046137
0.61642984
0.627384283
0.682061443
0.592057023
0.599441904
0.586557676
0.604499464
0.605014381
0.59425495
0.674473243
0.530281841
0.642038158
0.594049931
0.613350034
0.654390381
0.572634481
0.630280685
0.603932862
0.564571394
0.654983555
0.554941913
0.619947086
0.607068593
0.525178988
0.498681103
0.563114598
0.589812466
0.650822313
0.567602748
0.587656951
0.595068852
0.607168625
0.611918145
0.624420129
0.672285157
0.53425829
0.572762469
0.540001971
0.582833664
0.538646521
0.707717895
0.599888383
0.661848311
0.637121884
0.618674389
0.531868921
0.623678723
0.592235964
0.594773647
0.560901281
0.67899324
0.636312192
0.648041669
0.536473612
0.673798087
0.497252362
0.557326053
0.54909438
0.504541268
0.561397572
0.560415147
0.659290552
0.579064228
0.540975876
0.611023736
0.575102166
0.539890734
0.574787797
0.59175212
0.714208608
0.672764514
0.606692314
0.599583186
0.571832634
0.600885308
0.601491209
0.630463342
0.678245353
0.486715822
0.56883552
0.545888272
0.67572675
0.575312363
0.540755329
0.745960194
0.554801394
0.545156606
0.696806437
0.574783228
0.612884527
0.530358678
0.553681799
0.587373878
0.657869353
0.612999541
0.666214391
0.630008537
0.511685082
0.565456665
0.587025201
0.504639388
0.564638598
0.601737375
0.588526251
0.536992439
0.594173534
0.640914319
0.556907708
0.608306216
0.638810229
0.54696213
0.622250956
0.512392833
0.558319933
0.647648395
0.616847586
0.623603848
0.738795807
0.609123805
0.665333553
0.584114718
0.67976689
0.586987079
0.606972291
0.567188668
0.599807747
0.625472606
0.60668915
0.558733162
0.636981124
0.673941689
0.54556827
0.681614177
0.548186212
0.556739033
0.6449313
0.514087536
0.664370024
0.570220172
0.635934313
0.585683413
0.64042545
0.57708701
0.615702498
0.539034007
0.661021141
0.606460659
0.653461893
0.61410449
0.721469008
0.549282528
0.6116843
0.587144653
0.594102059
0.510270313
0.601459715
0.588702495
0.637186303
0.603103646
0.56084756
0.605463962
0.514182788
0.622296228
0.508280107
0.510827188
0.564547031
0.608394593
0.59890432
0.609551798
0.53178453
0.627163154
0.512002905
0.583709115
0.645505247
0.601198404
0.493977094
0.602368915
0.622131884
0.48556971
0.643233702
0.581611494
0.565263602
0.569099514
0.647142295
0.603282734
0.606818446
0.649174715
0.582489525
0.630105536
0.644856782
0.617819315
0.64211249
0.532247953
0.67076962
0.564151837
0.543563085
0.421119502
0.56854879
0.657834919
0.63160674
0.580824961
0.637759627
0.631328548
0.551432498
0.609988378
0.58971456
0.590721763
0.627513288
0.654643401
0.566293823
0.561515583
0.637075546
0.628102198
0.581407803
0.584563658
0.589003364
0.509670764
0.559603064
0.59207943
0.583957814
0.57731422
0.626846343
0.622012315
0.513029041
0.565701119
0.511958067
0.620052895
0.6263112
0.592175444
0.603449348
0.615589539
0.529769688
0.530834111
0.59628419
0.586276174
0.53139446
0.622333028
0.616812379
0.528878224
0.648440271
0.613676166
0.635271416
0.614339389
0.62397072
0.556374582
0.606097913
0.606071315
0.538038451
0.650372544
0.583703394
0.536219155
0.595507806
0.665922566
0.621655964
0.589478089
0.634352896
0.64795565
0.61519055
0.582680708
0.579017068
0.581628648
0.590858873
0.605060787
0.594196112
0.571750844
0.545354494
0.576241991
0.625918441
0.593630111
0.579293825
0.610946995
0.610973158
0.555029713
0.582777442
0.656283824
0.631157935
0.578245897
0.710969174
0.634385149
0.577255923
0.607793957
0.543087343
0.575127246
0.697213585
0.48053087
0.560438112
0.625095405
0.639853665
0.625784216
0.554542257
0.567775034
0.569439449
0.615087109
0.565666895
0.525779437
0.601908806
0.592269835
0.66791985
0.593507133
0.593035146
0.707868582
0.561906992
0.585699132
0.650288499
0.597621353
0.551253514
0.6120873
0.597851963
0.603063829
0.583875254
0.667292925
0.566428168
0.576638201
0.524876686
0.632870054
0.577035656
0.571759455
0.600234496
0.619085878
0.547253085
0.589882475
0.614688906
0.50889227
0.66324454
0.603876028
0.582214422
0.496388852
0.643319286
0.598650536
0.629343315
0.571151512
0.61530347
0.588487849
0.690034875
0.600264874
0.557604467
0.569037061
0.618955788
0.635130064
0.565658864
0.632181868
0.537104784
0.638590518
0.614786968
0.546737612
0.598101862
0.544441044
0.594260306
0.547224432
0.526228715
0.701579104
0.577954728
0.589496818
0.478438868
0.570709938
0.585547593
0.637153512
0.584506323
0.582448188