/*--------------------------------*- C++ -*----------------------------------*\
  =========                 |
  \\      /  F ield         | OpenFOAM: The Open Source CFD Toolbox
   \\    /   O peration     | Website:  https://openfoam.org
    \\  /    A nd           | Version:  7
     \\/     M anipulation  |
\*---------------------------------------------------------------------------*/
FoamFile
{
    version     2.0;
    format      ascii;
    class       surfaceScalarField;
    location    "4000";
    object      alphaPhi;
}
// * * * * * * * * * * * * * * * * * * * * * * * * * * * * * * * * * * * * * //

dimensions      [0 3 -1 0 0 0 0];

internalField   nonuniform List<scalar> 
319200
(
2.53164e-18
4.84127e-17
-5.16898e-18
-3.52496e-19
-1.29788e-16
-8.58137e-18
-2.61834e-16
-1.12923e-17
-3.27107e-16
-6.7623e-17
-4.11779e-16
-6.41801e-17
-5.33566e-16
-8.3763e-17
-5.29541e-16
-9.77375e-18
-6.55947e-16
1.45812e-17
-7.37434e-16
-1.02693e-17
-7.77205e-16
-4.79239e-17
-8.8049e-16
-1.73154e-17
-8.90365e-16
-1.21018e-16
-5.3923e-16
-1.48283e-16
-2.83168e-16
-9.32519e-17
-7.26775e-16
-4.50006e-17
-7.43018e-16
-9.94006e-17
-8.85831e-16
2.56512e-17
-1.04076e-15
9.88098e-17
-1.16949e-15
7.34267e-17
-1.26609e-15
4.29745e-17
-1.43343e-15
6.30809e-17
-1.57828e-15
3.57028e-17
-1.76063e-15
6.1239e-17
-2.02003e-15
1.68391e-17
-1.94448e-15
-1.90212e-16
-1.74744e-15
-3.12234e-16
-1.62598e-15
-2.2666e-16
-4.14072e-16
-7.16717e-17
-3.59447e-16
-1.87263e-17
-2.00016e-15
1.04406e-16
-1.70481e-15
1.5917e-16
-2.59018e-15
4.35794e-17
-2.01213e-15
-7.9042e-17
-2.32582e-15
-9.26069e-17
-2.40036e-15
-2.64671e-17
-2.57304e-15
6.74102e-17
-2.4662e-15
-2.19812e-16
-2.11267e-15
-1.24553e-16
-1.37025e-15
-1.28472e-17
-2.38618e-15
8.85242e-17
-2.23451e-15
7.92087e-17
-2.31003e-15
-2.40254e-17
-2.29142e-15
-1.04401e-16
-2.33596e-15
-5.31998e-17
-2.41494e-15
-1.77968e-17
-2.01481e-15
3.86197e-17
-2.58309e-15
-5.36105e-17
-1.93923e-15
-6.9018e-17
-2.52469e-15
1.699e-16
-3.10301e-15
5.84505e-16
-3.51605e-15
1.01662e-16
-2.17611e-15
-2.59653e-16
-3.22588e-15
-1.88327e-16
-6.6013e-16
-8.02542e-17
-8.21006e-16
-1.24444e-16
-2.66175e-16
-1.40115e-16
-5.26469e-16
-1.41734e-16
-6.17716e-16
8.40953e-17
-8.07162e-16
2.29257e-16
-7.92694e-16
1.53483e-17
-8.59224e-16
-1.87479e-16
-7.18502e-16
-9.39206e-17
-8.14965e-16
-5.73523e-17
-2.34477e-15
1.33294e-16
-9.95521e-16
2.65124e-16
-2.45803e-15
-1.83816e-16
-5.97804e-16
-3.54364e-16
-1.01059e-15
-2.79959e-16
-1.07121e-15
2.05247e-16
-1.11928e-15
2.81151e-16
-1.15827e-15
2.25259e-16
-1.02413e-15
9.25225e-17
-6.26712e-16
-3.57352e-17
-3.84086e-16
-6.50106e-17
-9.41154e-16
-1.51973e-17
-5.42098e-16
5.64222e-17
-1.06594e-15
1.57008e-17
-5.15979e-16
-1.97686e-19
-1.24774e-15
5.33895e-17
-1.05957e-15
1.7287e-16
-1.53028e-15
-7.98073e-17
-9.12151e-16
-2.84123e-16
-5.88377e-16
-3.5822e-16
-4.57711e-16
-7.92593e-17
-7.02321e-16
8.01568e-17
-7.54528e-16
1.11794e-16
-1.00882e-15
1.02996e-16
-2.33826e-15
2.59647e-17
-9.85086e-16
1.40356e-17
-1.91872e-15
1.10232e-16
-1.09252e-15
7.94126e-17
-1.27054e-15
2.91906e-17
-1.12377e-15
-2.63434e-18
-1.10942e-15
-1.36636e-16
-7.60271e-16
-9.95755e-17
-1.24877e-15
-1.12983e-16
-4.26533e-16
-4.81018e-17
-1.06481e-15
-4.50687e-17
-2.00404e-16
-3.36081e-17
-1.04866e-15
-2.61597e-18
-2.08394e-15
1.5155e-16
-2.23228e-16
-1.70938e-16
-9.29211e-16
-1.45106e-16
-1.07791e-15
2.06081e-16
-1.07025e-15
6.13032e-17
-1.01507e-15
1.20866e-18
-1.07197e-15
1.25495e-16
-1.45485e-15
1.72441e-16
1.28462e-15
1.25608e-16
-1.94348e-15
7.87099e-17
-1.43851e-15
1.34329e-16
-2.31402e-15
-2.70871e-17
-1.37304e-15
-2.55438e-16
-8.1164e-16
-1.63581e-16
-1.19893e-15
-9.95544e-17
-1.08739e-15
-1.91164e-17
-8.87449e-16
8.36774e-17
-4.67711e-16
-1.65521e-16
-3.05839e-16
-2.17074e-16
-5.27998e-16
1.72239e-16
-8.08531e-16
3.49309e-16
-1.22129e-15
3.08932e-16
-1.37498e-15
2.33812e-16
-1.70354e-15
2.17473e-16
-1.60224e-15
-4.42629e-17
-1.36703e-15
-3.609e-16
-1.43729e-15
-2.60137e-16
-7.57972e-16
3.02609e-18
-2.70652e-15
-8.90899e-18
-2.4274e-15
-1.4583e-16
-2.36543e-15
-1.65385e-16
-4.70315e-15
1.8756e-16
-1.88143e-15
2.05155e-16
-4.34747e-15
-3.19335e-16
-1.0158e-15
-6.09153e-16
-3.39167e-15
-4.01179e-16
-5.23466e-16
4.2201e-16
-1.85836e-15
2.85526e-17
-1.92439e-15
5.93562e-17
-1.93817e-15
-7.05826e-17
-1.83761e-15
-2.02436e-16
-1.2663e-15
4.47985e-17
-4.42676e-15
3.74745e-16
-1.50564e-15
2.23301e-16
-4.59562e-15
-1.39796e-18
-1.42004e-15
-6.41724e-17
-3.04547e-15
-1.44871e-16
-1.12779e-15
-2.60138e-16
-9.97951e-16
-4.86091e-16
-7.84136e-16
2.27895e-17
-1.19624e-15
3.64949e-16
-1.87962e-16
5.57559e-17
-1.01034e-15
-6.66314e-17
-6.01342e-16
1.06587e-16
-2.21905e-15
1.45756e-16
-1.11172e-15
3.09109e-16
-1.47318e-15
1.73418e-16
-1.21307e-15
-1.16177e-16
-1.0403e-15
-2.17715e-16
-8.82276e-16
-1.81071e-16
-9.51992e-16
6.81016e-17
-1.23593e-15
2.4821e-16
-1.61975e-15
1.50812e-17
-1.73628e-15
-1.62444e-16
-1.94083e-15
-2.02809e-16
-1.00954e-15
-6.8692e-17
-7.78888e-16
3.84228e-17
-6.71501e-16
1.8104e-16
-9.73052e-16
3.48663e-16
-9.08044e-16
-6.13056e-18
-8.61192e-16
-1.0318e-16
-8.28279e-16
-1.85284e-16
-1.1833e-15
-2.3087e-16
-1.73778e-15
1.40916e-17
-1.74545e-15
-2.29312e-16
-1.61444e-15
3.07334e-16
-2.49856e-15
4.13912e-16
-1.81925e-15
1.63765e-16
-2.45144e-15
-4.46665e-16
-2.03213e-15
-1.14997e-16
-3.37428e-15
-4.23465e-16
-1.95007e-15
-5.24509e-16
-1.3805e-15
-5.271e-16
-8.83125e-16
-1.81058e-16
-1.56797e-15
6.43232e-17
-5.62515e-16
4.72287e-17
-7.72305e-16
-7.09839e-17
-2.61815e-16
-1.55786e-17
-1.82047e-16
2.94467e-16
5.02241e-16
3.68981e-16
-1.4621e-16
3.16027e-16
6.15794e-17
-5.40294e-16
-1.58352e-15
-1.00226e-15
-5.83777e-16
-7.68504e-16
-4.45822e-16
-1.97996e-17
1.61005e-15
3.5741e-16
3.23456e-18
-1.98143e-15
1.3985e-14
-6.29159e-15
-6.56037e-15
-2.64903e-15
7.36159e-15
-5.21146e-16
-3.26328e-15
-1.24472e-15
-2.39545e-15
-4.34907e-16
-2.15264e-15
-3.68385e-16
-1.31968e-15
2.43441e-16
-2.94423e-15
3.03226e-16
-4.17973e-16
-8.48571e-16
-9.62871e-16
-1.30967e-15
-1.1715e-15
-4.3599e-16
-1.47752e-15
-3.12703e-16
-1.69917e-15
-3.83423e-16
-1.78141e-15
-5.27563e-16
-2.01302e-15
-3.36855e-16
-2.40773e-15
-1.43795e-16
-2.59932e-15
-3.65287e-16
-2.78503e-15
-3.64511e-16
-3.12716e-15
2.03766e-16
-2.45196e-15
5.33232e-16
-4.34773e-15
-6.3409e-17
-4.67105e-15
-2.6824e-16
-4.56551e-15
-5.63465e-16
-4.07356e-15
-9.01624e-16
-3.70206e-15
-6.73451e-16
-3.2631e-15
-2.6561e-16
-2.98945e-15
-1.89539e-16
-2.99743e-15
-7.52348e-17
-9.22225e-16
2.30763e-17
-1.79592e-17
2.84992e-17
5.92102e-16
-4.73118e-19
-1.01972e-15
-1.21566e-16
-1.15316e-15
-2.72631e-17
-9.64714e-16
-1.66565e-16
-7.45616e-16
4.67465e-17
-8.44663e-16
4.11202e-16
-7.46474e-16
2.09328e-16
-5.74709e-16
1.43117e-16
-4.19748e-16
1.40054e-17
-1.12326e-15
9.16272e-17
-1.18585e-15
1.15385e-16
-2.0258e-15
3.37996e-17
-2.42361e-15
-1.38723e-16
-2.47394e-15
-4.48191e-16
-1.56805e-15
-2.80769e-16
-1.44636e-15
1.62675e-16
-1.11779e-15
1.45636e-16
3.21463e-16
3.13687e-16
1.64695e-15
9.6773e-16
-8.59582e-17
-1.52128e-15
1.52879e-14
-1.10771e-14
1.13246e-14
-8.00043e-16
1.24931e-14
-1.28618e-15
6.8009e-15
-1.61388e-15
3.80942e-15
-7.75811e-16
7.30846e-16
-4.46711e-16
-5.29476e-16
-1.93115e-16
-2.50926e-15
-1.5399e-16
-2.21098e-15
-2.7845e-16
-2.62543e-15
5.44086e-16
-5.28846e-15
1.02948e-15
-1.81471e-15
-6.78242e-16
-4.3867e-15
-7.41992e-16
7.02384e-16
-1.03926e-15
-2.28629e-15
-7.04509e-16
-2.46322e-15
-3.10799e-16
-3.10381e-15
1.28844e-16
-2.89778e-15
2.95937e-16
-2.78633e-15
8.3747e-17
-2.81911e-15
1.74846e-16
-2.39122e-15
4.37422e-16
-1.47268e-15
1.12168e-16
1.54989e-16
-3.14412e-16
5.64533e-16
-8.68772e-17
-4.01553e-16
6.82083e-17
-1.85765e-15
-1.16939e-16
-2.82388e-15
-1.09926e-16
-2.75231e-15
-4.54002e-17
-3.01451e-15
2.66848e-16
-3.05815e-15
8.62461e-17
-1.4253e-15
-9.5727e-17
-3.12243e-16
-2.59362e-16
-6.7235e-16
-1.16175e-16
-7.00908e-16
1.60541e-17
8.04589e-16
-5.38539e-17
-1.00512e-15
-1.00868e-16
4.85962e-16
3.42577e-17
-9.17818e-16
2.86673e-16
-2.52694e-15
4.40571e-16
-3.78769e-15
2.84628e-16
-4.07911e-15
-6.49846e-17
-3.62289e-15
-7.70987e-16
-2.89111e-15
-9.26621e-16
-2.51158e-15
-3.6263e-16
-1.72795e-15
2.96623e-16
-1.45133e-15
5.06811e-16
-1.33938e-15
4.20744e-16
-7.54668e-16
-5.22865e-17
-1.38599e-15
-4.83923e-16
-5.47829e-16
-2.3386e-16
1.57814e-15
1.51527e-17
3.05163e-15
2.08991e-16
4.89464e-15
-2.34229e-15
3.46572e-14
-3.03012e-14
4.40618e-14
-5.81764e-15
1.44991e-14
-5.30537e-16
3.82544e-14
-5.68801e-16
1.03859e-14
-9.01477e-16
1.25979e-14
-9.3521e-17
5.1767e-15
-2.34504e-16
-1.30254e-16
-2.93747e-16
-4.20175e-15
-4.09581e-17
-2.99693e-15
-3.55521e-16
-2.919e-15
-3.6407e-16
-3.56709e-15
-1.15222e-16
-2.56975e-15
-4.99424e-17
-3.59687e-15
-4.54985e-17
-2.74841e-15
-6.60787e-16
-3.21604e-15
-2.16238e-16
-3.43782e-15
-3.30966e-16
-3.65178e-15
-2.02864e-16
-3.78964e-15
-2.73895e-16
-3.83448e-15
-4.75349e-17
-3.31797e-15
1.78179e-16
-1.25896e-15
3.07775e-16
-2.95555e-15
2.25848e-16
6.80561e-15
-6.92634e-16
2.32558e-15
-1.2043e-15
9.36247e-15
-5.34155e-16
7.98744e-15
-2.14275e-16
6.03593e-15
-8.28298e-17
4.20928e-15
-1.51828e-16
2.66638e-15
-3.78323e-17
1.59901e-15
7.10933e-18
8.02435e-16
-2.68888e-16
-2.71766e-16
1.07252e-16
-1.30202e-15
7.34875e-17
-2.28133e-15
1.71836e-17
-2.83563e-15
3.16552e-16
-3.15225e-15
3.51194e-16
-2.84597e-15
-3.78703e-16
-1.90265e-15
-9.01263e-16
-1.79851e-15
-2.59989e-16
-2.94639e-15
4.16679e-17
-4.27089e-15
9.86242e-17
-5.10217e-15
2.95563e-16
-1.40235e-15
-1.12426e-16
2.08691e-15
-3.49027e-17
7.6308e-15
-3.1291e-16
-2.65678e-15
-7.65798e-16
7.9844e-15
1.89153e-16
-2.19199e-15
1.428e-17
-9.26433e-16
-1.01036e-16
-2.34e-15
-1.543e-16
-2.17886e-15
-2.98746e-16
-2.22652e-15
-8.89197e-17
-1.0699e-16
1.90475e-16
4.35854e-16
-4.19684e-17
4.46192e-16
-1.0403e-16
3.76363e-16
-2.3674e-17
-1.87997e-15
-6.49808e-17
-1.74037e-15
-8.96405e-17
-2.35993e-15
-6.63351e-17
-2.07924e-15
2.8253e-17
-2.61539e-15
5.81543e-17
-2.25113e-15
1.70851e-16
-3.03568e-15
2.42163e-16
1.81435e-16
-2.41952e-16
5.38877e-16
3.35653e-16
1.05883e-15
2.97162e-16
1.27526e-15
1.34662e-17
1.61086e-15
-1.90787e-16
6.14236e-16
2.2729e-16
-6.32634e-16
4.47793e-16
-1.60785e-15
4.803e-16
-2.20952e-15
2.00211e-17
-2.49391e-15
-3.17981e-16
-2.6671e-15
-4.73761e-16
-1.93499e-15
-7.82236e-16
-1.60742e-15
-3.72463e-16
-1.30416e-15
-1.85487e-16
-1.01585e-15
-1.07347e-16
-9.65364e-16
7.73823e-18
-8.72164e-16
-2.71655e-17
-8.40856e-16
3.97532e-16
-8.40624e-16
4.77838e-16
-5.89232e-16
2.4837e-16
-4.1306e-16
6.21362e-17
-8.53926e-16
1.79536e-17
-1.04624e-15
-2.58802e-16
-1.03494e-15
-3.32882e-16
-8.24974e-16
-4.43627e-17
-6.99449e-16
4.92579e-17
-3.18797e-16
-4.02794e-17
-1.18158e-16
4.28496e-17
1.77783e-17
7.58686e-17
6.3192e-16
5.72014e-17
4.76497e-16
-3.97317e-17
-6.78192e-16
-2.88801e-17
-2.97725e-16
9.42142e-17
-2.34169e-15
5.35411e-17
-4.23116e-17
-3.90223e-17
-6.69181e-17
-8.03247e-17
-6.89324e-17
1.80216e-17
-5.89867e-17
-1.28274e-16
-7.52691e-17
-2.63989e-16
-6.27549e-17
-3.66474e-16
-5.98501e-17
-2.9415e-16
-8.05455e-17
-3.38648e-16
-3.76056e-17
-3.50987e-16
-3.47677e-17
-4.26376e-16
-4.47707e-17
-5.2654e-16
-4.29611e-17
-5.27502e-16
-9.1461e-18
-4.42147e-16
-8.51634e-17
-2.69269e-16
-1.2857e-16
-2.66742e-16
-7.92487e-17
-4.2454e-16
-5.65276e-17
-7.73659e-16
7.83966e-17
-9.25236e-16
1.34095e-16
-8.19042e-16
-4.96236e-17
-7.07776e-16
-7.67924e-17
-7.86402e-16
-1.5103e-17
-9.97046e-16
8.36407e-17
-9.46845e-16
4.76412e-17
-1.10221e-15
-5.67409e-17
-1.02475e-15
-9.89007e-18
-1.32513e-15
7.24589e-18
-1.58287e-15
-1.79357e-16
-3.8896e-16
-1.81715e-16
-3.2181e-16
-8.68664e-17
-6.85332e-16
1.09307e-17
-2.09323e-16
-9.80645e-17
-7.34832e-16
-9.68099e-17
-7.36945e-16
-5.12628e-17
-1.43403e-15
-7.18019e-17
-1.31437e-15
1.02253e-16
-7.53062e-16
6.35315e-17
-7.50856e-16
-4.366e-17
-9.18428e-16
-1.2307e-16
-5.33203e-16
-4.26188e-17
-1.60669e-15
-1.27367e-16
-7.23412e-16
-1.54198e-16
-1.43502e-15
-3.12051e-17
-1.65466e-15
-5.30475e-17
-1.75792e-15
-8.2712e-17
-2.01903e-15
1.10917e-16
-4.95395e-16
3.93043e-17
-3.94264e-16
-1.15588e-16
-4.03913e-16
-1.39563e-16
-1.62422e-15
-9.47891e-17
-1.14776e-15
5.03391e-17
-1.09544e-15
3.31647e-16
-7.09433e-16
8.51592e-17
-1.3932e-15
2.36556e-17
-1.00692e-15
-1.05153e-16
-7.47019e-16
-2.52069e-16
-2.53935e-16
-1.63076e-16
-5.18718e-16
-3.5689e-16
-4.7212e-16
-1.88377e-16
-5.21334e-16
1.50829e-16
-4.07566e-16
1.36709e-16
-3.32802e-16
-1.738e-17
-4.60363e-16
-9.81975e-17
-5.89847e-16
1.44551e-18
-6.81956e-16
7.34383e-17
-5.34393e-17
-4.24307e-17
-7.03187e-16
7.52645e-17
-1.01073e-15
2.13753e-16
-1.53316e-15
1.60403e-16
-1.86087e-15
1.59584e-16
-1.75335e-15
7.33242e-18
-1.15889e-15
-2.87779e-16
-7.73202e-16
-2.40217e-16
-5.32756e-16
-1.02549e-16
-2.24888e-16
-5.7387e-17
-1.04602e-15
-4.64542e-17
-5.32469e-16
-1.20514e-17
-8.76875e-16
-1.62326e-16
-9.01914e-16
5.73399e-17
-1.19013e-15
2.03613e-16
-1.11418e-15
9.79543e-17
-9.08769e-16
-1.21431e-16
-8.16073e-16
-7.5077e-17
-1.23678e-15
2.34397e-17
-1.65835e-15
6.26996e-17
-1.70891e-15
-9.68053e-17
-1.02999e-15
-4.17232e-16
-7.91661e-16
-2.59837e-16
-1.53595e-15
1.19921e-16
-3.65621e-16
1.79932e-16
-2.09378e-15
1.53462e-16
-4.01352e-16
1.58337e-16
-1.12115e-15
1.78486e-16
-9.06547e-16
-3.37356e-17
-8.55044e-16
-1.83672e-16
-6.64374e-16
-1.76682e-16
-1.1597e-15
-1.38389e-16
-6.46262e-16
-1.84358e-16
-1.5946e-15
-9.11878e-17
-8.40071e-16
-1.25062e-16
-7.58112e-16
-2.58786e-17
-1.59056e-15
-7.62756e-17
-1.30557e-15
-3.38947e-17
-1.59767e-15
2.6038e-16
-1.53316e-15
-2.5302e-17
-9.98539e-16
-1.63129e-16
-1.09989e-15
2.24653e-16
-1.05525e-15
2.93609e-17
-2.56105e-15
-1.56505e-16
-2.09456e-16
-2.28734e-16
-2.07709e-15
-9.69597e-17
-9.33785e-16
-5.91044e-17
-7.54128e-16
-2.49146e-17
-7.84757e-16
1.06015e-16
-1.0453e-15
-3.45544e-17
-7.97729e-16
-4.51567e-17
-6.11342e-16
2.01335e-17
-4.1052e-16
6.94055e-17
-1.75413e-16
1.53635e-16
-6.30915e-16
2.13311e-16
-1.08593e-15
1.79639e-16
-8.15923e-16
-1.58915e-16
-2.79082e-16
-2.38079e-16
-2.37081e-16
1.11701e-16
-3.42288e-16
1.1324e-16
-4.22979e-16
1.17468e-16
-1.07318e-15
3.55893e-17
-1.29638e-15
-9.07315e-17
-1.42455e-15
-8.92573e-18
-2.13262e-15
3.55532e-18
-1.79873e-15
-1.93903e-16
-2.42581e-15
-1.10602e-16
-4.55518e-15
6.19808e-16
-2.36675e-15
3.82521e-16
-2.71484e-15
-1.26017e-16
-2.58251e-15
-1.59947e-16
-3.55104e-15
1.15936e-16
-1.50238e-15
-3.4778e-16
-1.76801e-15
-3.63917e-16
-1.71361e-15
4.33684e-17
-1.80411e-15
7.29806e-17
-1.25395e-15
-1.72427e-16
-1.19173e-15
-1.32292e-17
-7.63972e-16
2.11843e-16
-2.05211e-16
-4.59711e-17
-8.69465e-16
5.48271e-17
-1.00292e-15
1.72074e-16
-2.3756e-15
5.80239e-17
-1.35656e-15
-3.43179e-17
-1.88431e-15
-8.97655e-17
-2.60328e-15
1.53232e-16
-2.70967e-15
-3.89337e-17
-1.89957e-15
-2.80444e-16
-2.20365e-15
-2.52888e-16
-1.06129e-15
4.54057e-17
-2.73647e-15
4.64038e-16
-9.07833e-16
1.11253e-16
-8.32171e-16
1.6595e-16
-7.3419e-16
2.22498e-16
-9.62899e-16
1.87461e-16
-1.24553e-15
2.52044e-17
-1.28569e-15
-1.42542e-16
-1.07232e-15
-1.86231e-16
-7.95304e-16
-1.4582e-16
-1.01454e-15
6.04376e-18
-1.38363e-15
1.71566e-16
-1.70177e-15
9.57042e-17
-1.31038e-15
-3.05241e-16
-6.32182e-16
-3.39168e-16
1.27797e-16
-1.88733e-16
5.0545e-16
2.32739e-17
1.76923e-16
4.63698e-17
-8.45482e-16
4.33394e-16
-1.42866e-15
7.04669e-16
-2.67488e-15
3.50803e-16
-1.98938e-15
-5.0634e-16
-1.79467e-15
-6.13451e-16
-1.23984e-15
-7.65564e-17
-1.00301e-15
3.37688e-16
-3.1398e-15
1.70639e-16
-1.79683e-15
-6.78095e-18
-3.04094e-15
1.86055e-16
-2.1724e-15
-3.02496e-16
-2.85629e-15
-7.40519e-16
-2.95413e-15
-3.89895e-16
-2.5892e-15
-1.59101e-16
-1.48412e-15
-2.16984e-16
-5.90787e-16
-1.49792e-17
8.20285e-16
5.10993e-16
1.69983e-15
4.96057e-16
5.57426e-15
3.04932e-16
2.08007e-16
1.23164e-15
2.24315e-15
-1.29976e-15
1.67745e-15
-1.84586e-15
1.05544e-15
-1.15365e-15
1.03469e-15
-5.55304e-16
4.56845e-15
-2.60535e-16
3.47324e-15
-2.30515e-15
1.17818e-14
-5.40898e-15
-7.43654e-15
-3.8189e-15
5.2696e-15
-2.18981e-16
-8.32876e-16
-1.32577e-15
-2.30681e-15
-8.69632e-16
-3.37275e-15
-7.70233e-17
-3.97595e-15
1.56716e-16
-4.69204e-15
-3.31347e-16
-1.82434e-15
-1.07633e-15
-6.49946e-16
-1.24291e-15
-2.06136e-15
-5.13397e-16
-2.7222e-15
-3.3507e-16
-2.78126e-15
-6.09013e-16
-2.85452e-15
-7.5001e-16
-3.67926e-15
-1.66177e-16
-3.85521e-15
-5.14165e-17
-3.61574e-15
-5.50346e-16
-3.52376e-15
-3.39688e-16
-3.54089e-15
-1.29158e-16
-2.62061e-15
-8.10861e-17
-3.55527e-15
-1.82723e-16
-3.4316e-15
-4.68117e-16
-3.42298e-15
-6.32029e-16
-3.83116e-15
-4.62722e-16
-4.67658e-15
-2.31169e-16
-5.32516e-15
-9.07021e-17
-5.5698e-15
6.22486e-17
-5.69102e-15
-1.53603e-16
-5.1193e-15
-4.06526e-16
-2.09024e-15
-4.89701e-16
-1.09942e-15
-3.80275e-16
-7.84709e-16
1.3471e-16
-9.29797e-16
2.50734e-16
-9.13862e-16
1.85126e-16
-1.50742e-15
1.92434e-16
-1.72188e-15
-1.90977e-17
-1.02396e-15
-5.7104e-16
-9.60701e-16
-7.20339e-17
-1.36559e-15
4.32956e-16
-1.72449e-15
2.49477e-16
-1.89042e-15
-3.58935e-17
-1.95677e-15
-2.78846e-16
-2.37352e-15
-1.76242e-16
-3.08349e-15
6.76812e-17
-3.45827e-15
-3.82382e-18
-2.96073e-15
-2.3762e-16
-1.96524e-15
3.81199e-17
-1.03795e-16
5.82938e-16
1.92814e-15
7.98355e-16
-3.09009e-15
4.54206e-16
2.3859e-14
-1.49683e-14
-2.99032e-16
-1.00295e-14
1.69285e-14
-7.05748e-16
1.00384e-15
-1.68657e-15
1.46138e-15
-8.47604e-16
-5.22526e-16
-8.32128e-16
-1.07933e-15
-9.02033e-16
-3.22665e-15
-4.64625e-16
-2.8176e-15
-7.45599e-17
-3.0096e-15
-7.30237e-17
-4.56268e-15
3.95854e-16
-4.67424e-16
-6.68546e-16
-2.144e-15
-1.44241e-15
-2.6821e-15
-5.62368e-16
-3.66312e-15
-5.56882e-16
-4.20595e-15
-4.1058e-16
-4.50642e-15
-2.21762e-16
-3.74792e-15
-2.87219e-16
-2.95944e-15
-2.93903e-16
-3.15668e-15
4.36012e-16
-3.11241e-15
9.18273e-16
-1.80267e-15
7.10713e-17
3.60847e-16
-2.26448e-16
1.46839e-16
-2.40588e-16
-2.95803e-16
-3.45639e-16
-1.38145e-15
-3.61327e-16
-2.63486e-15
-2.8436e-16
-3.33655e-15
1.44945e-16
-3.54337e-15
1.65886e-16
-3.35134e-15
1.60822e-16
-1.21296e-15
1.59182e-16
-2.2497e-16
-1.97063e-16
7.69009e-17
-6.72478e-17
-1.50769e-16
-5.49499e-17
7.94233e-16
1.1763e-16
-1.27656e-15
1.00155e-16
-1.25327e-16
-9.42046e-17
-9.68905e-16
-3.4755e-16
-1.69831e-15
-6.81824e-17
-2.4502e-15
2.5147e-16
-3.05753e-15
2.81602e-16
-3.74722e-15
2.23069e-16
-4.38911e-15
-5.4267e-16
-4.35901e-15
-1.09695e-15
-3.95768e-15
-6.74186e-16
-3.4245e-15
-3.4014e-16
-3.14547e-15
-2.51895e-16
-2.85292e-15
4.58432e-16
-1.14401e-15
4.54801e-16
1.03671e-15
-1.46682e-16
4.53918e-15
-1.1631e-16
6.94333e-15
-2.15835e-16
8.2971e-15
-1.73075e-15
2.8193e-14
-2.28166e-14
2.31686e-14
-1.68245e-14
-5.40887e-15
-8.41143e-16
8.6362e-15
-2.90246e-16
3.97323e-15
-3.20602e-16
-6.01333e-16
-1.99472e-16
-1.92365e-15
-2.24556e-16
-2.82402e-15
-3.89836e-16
-3.15427e-15
-3.5617e-16
-3.37992e-15
-5.24111e-17
-3.27667e-15
-2.47621e-16
-2.55356e-15
-5.9142e-17
-1.73529e-15
9.82521e-17
-9.4289e-16
-4.62436e-17
-1.18718e-15
-4.08896e-16
-1.89699e-15
-5.3465e-16
-2.49048e-15
-1.05544e-16
-3.69602e-15
6.44538e-17
-4.72069e-15
-6.73932e-17
-4.55633e-15
-2.95545e-16
-3.61918e-15
3.94894e-17
-2.39072e-15
8.40897e-16
-4.52279e-15
-6.00288e-16
6.5952e-15
-2.86244e-15
2.37227e-15
-5.1318e-16
1.01659e-14
-1.8669e-16
2.09519e-15
-1.23838e-16
8.65564e-16
-3.81464e-16
-4.36628e-16
-4.26943e-16
-1.66608e-15
-3.93373e-16
-1.38124e-15
-4.37054e-16
-1.29697e-15
-7.44181e-17
-1.49985e-15
-1.62402e-17
-1.55891e-15
2.7982e-16
-1.64879e-15
-1.315e-17
-2.27995e-15
3.41683e-17
-2.52931e-15
4.36076e-16
-1.88177e-15
1.74231e-16
-2.07641e-15
-9.98148e-17
-2.71712e-15
-3.10316e-16
-2.68408e-15
-1.78581e-16
-2.62533e-15
-6.90205e-16
-2.95999e-15
-5.97041e-16
-1.26642e-15
1.81945e-16
1.91916e-15
-5.35934e-17
4.28713e-15
2.32626e-17
-3.17039e-15
-7.84443e-17
3.75384e-15
6.82721e-16
1.08897e-15
-2.01273e-16
-8.75987e-16
-1.90318e-16
-2.39872e-15
-1.04755e-16
-3.01685e-15
-1.03308e-16
-3.81257e-15
-7.55193e-17
-2.81088e-15
5.46196e-17
-2.28548e-15
-2.69953e-16
-1.89715e-15
-3.69354e-16
-1.5628e-15
-1.83358e-16
-1.47833e-15
1.34497e-16
-2.08942e-15
2.65532e-16
-2.28874e-15
1.48698e-16
-2.25828e-15
-4.88798e-17
-1.90022e-15
-1.13263e-16
-1.53768e-15
1.92224e-16
-2.33434e-15
4.66784e-16
-1.41884e-15
6.5937e-18
6.27842e-16
-3.89164e-16
3.57989e-16
-2.85243e-18
-6.36513e-16
-1.62294e-16
-1.69872e-15
-4.31602e-16
-1.97512e-15
-4.71604e-16
-2.01243e-15
8.63612e-17
-1.96828e-15
2.29898e-16
-1.81472e-15
2.20976e-16
-1.944e-15
1.65251e-16
-2.20535e-15
9.47585e-17
-2.484e-15
1.0372e-16
-2.93086e-15
-2.2813e-17
-2.65537e-15
-4.83283e-16
-2.14291e-15
-6.04549e-16
-2.06457e-15
7.22543e-18
-2.08232e-15
1.02526e-16
-1.83288e-15
9.81576e-18
-2.25755e-15
-3.39154e-17
-1.81263e-15
1.89154e-16
-1.5543e-15
3.79386e-16
-2.32814e-15
3.04196e-17
-1.75093e-15
-2.37208e-16
-1.86305e-15
-1.65467e-17
-2.68375e-15
2.23539e-16
-1.9733e-15
1.27313e-16
-1.38894e-15
5.18746e-17
-1.44004e-15
1.3768e-17
-1.01149e-15
7.80704e-17
-7.05103e-16
-1.71476e-17
1.20021e-16
2.20433e-16
3.63376e-16
1.08406e-16
-3.50252e-17
-8.79124e-17
-3.95044e-16
-3.67878e-17
-4.72588e-16
1.03604e-16
5.7429e-17
-3.84768e-17
-1.32657e-16
-5.42055e-17
-9.47795e-18
-7.77024e-17
1.91195e-17
-1.08992e-17
1.77476e-18
-6.66662e-17
3.72498e-17
-1.28994e-16
-6.18503e-18
-9.49024e-17
-7.01869e-18
-1.54339e-16
1.47954e-17
-2.02214e-16
1.08964e-19
-2.93527e-16
3.08932e-17
-2.74877e-16
6.63804e-18
-1.94641e-16
-2.81592e-17
-9.051e-17
-7.67806e-17
-7.02892e-17
-4.58323e-17
-1.75412e-16
4.39157e-17
-1.63774e-16
-1.48382e-17
-2.66002e-16
-3.92563e-17
-2.85818e-16
-5.01792e-17
-2.84727e-16
-8.58445e-17
-3.19891e-16
-8.15082e-17
-2.64205e-16
-1.07206e-16
-2.67279e-16
-6.43266e-17
-3.62126e-16
-4.20228e-17
-3.29659e-16
-9.18463e-17
-3.93354e-16
4.65683e-17
-3.06905e-16
8.13042e-17
-3.23604e-16
-1.76167e-17
-2.05158e-16
-2.11137e-18
-5.81714e-16
-7.31498e-17
-1.55021e-16
-1.47386e-16
-8.78913e-17
-1.00948e-16
-1.12784e-16
-1.10283e-16
-1.11888e-15
-1.11175e-16
-4.71161e-16
-2.53756e-16
-4.75235e-16
-4.48971e-17
-1.5891e-16
3.7678e-17
-3.0365e-16
-8.76578e-17
-4.04376e-16
-1.57757e-16
-3.53476e-16
-1.62293e-16
-3.04439e-16
-1.43947e-16
-4.5201e-16
4.58439e-17
-4.37124e-16
5.79428e-17
-4.14184e-16
2.35043e-17
-1.08342e-15
4.77747e-17
-8.14913e-16
-5.47904e-17
-6.49903e-16
-1.89966e-16
-7.75069e-16
-8.61976e-17
-9.9616e-16
-1.56186e-17
-1.28113e-15
7.73836e-17
-9.38558e-16
-1.57019e-16
-6.19593e-16
-1.97335e-16
-5.44106e-16
4.62027e-17
-5.74921e-16
5.09992e-17
-6.30742e-16
4.89594e-18
-9.81325e-16
9.29805e-17
-1.55145e-15
1.47668e-16
-8.45125e-16
6.45596e-17
-2.1881e-15
-2.1441e-17
-6.04168e-16
-2.79589e-16
-6.25895e-16
-2.36053e-16
-5.65043e-16
-7.16384e-17
-7.99137e-16
5.5748e-17
-9.89601e-16
4.09809e-17
-7.93929e-16
-7.40472e-17
-9.2805e-16
-7.24435e-17
-9.22402e-16
-1.31193e-16
-8.37812e-16
-2.05004e-16
-8.43959e-16
-3.97958e-17
-7.31862e-16
8.46342e-17
-9.30781e-16
1.56157e-16
-1.35618e-15
1.47945e-16
-1.46637e-15
-1.15504e-16
-1.22173e-15
-3.3416e-16
-9.59329e-16
-3.08415e-16
-3.4242e-16
1.17129e-16
-2.24178e-15
2.26553e-16
-9.95532e-16
1.14836e-16
-3.34168e-15
7.76441e-17
-4.12973e-16
-9.6221e-17
-1.71272e-15
-2.32649e-16
-1.01993e-15
-8.67842e-17
-2.04128e-15
8.06696e-17
-1.22325e-15
-5.40825e-17
-1.17762e-15
-2.48238e-16
-1.08353e-15
-1.14451e-16
-1.53427e-15
-1.2573e-16
-1.62257e-15
-1.22878e-16
-1.68884e-15
-1.47627e-16
-1.19443e-15
-1.06293e-16
-3.36223e-16
1.8763e-16
-1.77672e-15
4.51233e-17
-1.10616e-15
6.64244e-18
-1.68038e-15
-1.0745e-17
-1.07374e-15
-1.71446e-16
-1.21467e-15
-2.24003e-16
-1.17359e-15
-4.94234e-17
-1.37415e-15
1.67127e-16
-1.17987e-15
-1.27526e-16
-1.00741e-15
-2.6925e-16
-9.38996e-16
-2.49432e-18
-1.17056e-15
2.41135e-16
-1.18852e-15
8.95572e-17
-9.01442e-16
1.02323e-16
-9.03042e-16
1.36665e-16
-8.31839e-16
-6.12047e-17
-5.44842e-16
-6.76593e-17
-6.23785e-16
6.98873e-17
-9.08599e-16
1.07922e-16
-1.20434e-15
7.51158e-17
-1.19891e-15
-9.38502e-17
-9.73977e-16
-2.76103e-16
-9.48569e-16
-9.24288e-17
-9.37193e-16
5.43865e-17
-1.12766e-15
1.18246e-16
-1.0302e-15
5.57821e-17
-7.46755e-16
-7.18926e-17
-6.62917e-16
-2.65601e-18
-3.40303e-16
7.27977e-17
-4.72622e-16
1.19498e-16
-5.86048e-16
4.48407e-17
-9.01642e-16
-3.87e-17
-6.66455e-16
-2.0919e-17
-1.41354e-15
-3.89295e-17
-7.23724e-16
-1.2706e-16
-8.05742e-16
1.09737e-16
-9.9232e-16
1.59422e-16
-1.37052e-15
2.52044e-16
-1.59742e-15
1.80062e-16
-1.60063e-15
-3.22727e-17
-1.51278e-15
8.13412e-17
-1.89958e-15
2.29386e-16
-1.72162e-15
1.11651e-16
-1.36737e-15
2.1461e-16
-1.54334e-15
-2.06874e-17
-1.66821e-15
1.18722e-16
-1.39546e-15
8.07633e-17
-1.43388e-15
-1.1261e-16
-1.53784e-15
-5.9415e-17
-1.38675e-15
7.86342e-17
-1.71385e-15
3.92228e-16
-2.37462e-15
4.77155e-16
-2.53558e-15
-1.33563e-16
-2.02041e-15
-5.4626e-16
-2.59791e-15
-3.53967e-16
-1.0819e-15
-3.31221e-16
-8.48491e-16
1.26162e-16
-8.89106e-16
3.6894e-16
-1.74465e-15
2.14158e-17
-1.2855e-15
-2.36951e-16
-1.56376e-15
1.17518e-16
-1.28147e-15
2.35429e-16
-2.37227e-15
1.96617e-16
-2.50112e-15
5.16135e-16
-2.95067e-15
7.37137e-17
-1.68996e-15
-4.69147e-16
-1.12682e-15
-3.28884e-16
-8.27857e-16
-5.09535e-18
-1.53764e-15
2.18447e-16
-1.04094e-15
-6.19082e-17
-1.19358e-15
1.46188e-18
-1.53581e-15
1.66511e-16
-1.803e-15
8.17808e-17
-1.19758e-15
2.84664e-17
-2.87002e-15
9.82706e-17
-1.17461e-15
3.27052e-18
-1.51048e-15
-1.55245e-16
-1.46172e-15
-2.29338e-16
-1.35941e-15
-8.10069e-17
-1.28289e-15
1.31265e-16
-9.0777e-16
7.93433e-17
-6.08291e-16
3.16909e-17
-8.36737e-16
-2.1489e-16
-6.75911e-16
-2.78434e-16
-1.28639e-15
1.52927e-16
-2.31473e-15
3.7131e-16
-3.18646e-15
2.43999e-16
-3.13017e-15
-1.57482e-16
-2.49279e-15
-3.15797e-16
-1.26133e-15
-2.47201e-16
-1.0842e-15
-8.45969e-17
-1.34074e-15
2.1526e-16
-2.13891e-15
1.74049e-16
-2.56993e-15
-1.77765e-16
-2.55245e-15
-2.61373e-16
-1.47084e-15
-3.31849e-17
7.17604e-17
3.63824e-16
9.79922e-16
7.84352e-16
-2.74207e-15
3.62645e-16
2.10083e-15
3.82317e-16
-2.15569e-15
-5.50467e-16
3.46233e-15
-1.17073e-15
3.13664e-15
-1.63134e-15
2.31744e-15
-9.85502e-16
1.88597e-15
-1.09868e-15
2.06975e-15
-1.22348e-15
3.41702e-15
-1.35948e-15
4.373e-15
-2.12299e-15
8.52378e-16
-1.8713e-15
-1.55425e-15
-1.3365e-15
-2.15923e-15
-1.11256e-15
-3.15422e-15
-5.4413e-16
-3.38266e-15
-5.58286e-16
-2.67304e-15
-3.22101e-16
-1.8968e-15
-3.99019e-16
-1.78904e-15
-8.83748e-16
-2.74663e-15
-6.81966e-16
-3.49607e-15
-7.88501e-16
-3.59861e-15
-4.66174e-16
-3.35228e-15
-7.58129e-16
-3.2949e-15
-8.51151e-16
-3.94657e-15
-3.28335e-16
-4.13502e-15
2.62571e-16
-4.28109e-15
-1.57506e-16
-3.97455e-15
-4.09357e-16
-3.81642e-15
-2.16377e-16
-3.27573e-15
-2.2912e-16
-2.94574e-15
-3.27293e-16
-3.50705e-15
-3.70058e-16
-3.78701e-15
-3.04119e-16
-4.57218e-15
-1.42029e-16
-4.60832e-15
-2.21089e-16
-4.1354e-15
-1.90739e-16
-3.73109e-15
8.24558e-17
-3.46968e-15
1.00094e-16
-3.09423e-15
-1.15611e-16
-3.1216e-15
-3.15329e-16
-3.09528e-15
-1.63429e-16
-2.90878e-15
-2.46944e-16
-1.98409e-15
-4.36362e-16
-1.18421e-15
-2.16324e-16
-1.11054e-15
3.45738e-16
-1.67396e-15
3.47548e-16
-2.08886e-15
1.44891e-16
-3.23706e-15
1.56358e-16
-3.08944e-15
3.71684e-17
-2.08895e-15
-2.8445e-16
-1.9251e-15
5.22646e-17
-2.42761e-15
4.72092e-16
-3.27066e-15
5.69855e-16
-5.06927e-15
5.27689e-16
-4.86831e-15
2.06142e-16
-4.82411e-15
-1.90681e-16
-3.83113e-15
-3.18652e-16
-1.35784e-15
-4.0439e-18
1.0749e-15
4.94508e-16
-3.01868e-15
3.39154e-16
6.28259e-15
-8.84724e-16
-1.11663e-15
-2.50794e-14
1.38661e-14
-1.10361e-15
-5.98756e-15
-1.2029e-15
6.79044e-16
-9.00312e-16
-1.3278e-15
-7.25274e-16
-1.82829e-15
-8.56473e-16
-2.73693e-15
-5.15587e-16
-3.17876e-15
-1.95848e-16
-2.76764e-15
-3.4691e-16
-2.10908e-15
-4.2022e-17
-7.8669e-16
1.12026e-16
-1.37424e-15
-5.62823e-16
-2.81723e-15
-4.55352e-16
-3.35838e-15
-4.06685e-16
-3.78196e-15
-4.10104e-16
-4.22014e-15
-1.87478e-16
-4.11005e-15
3.18768e-17
-4.1435e-15
-1.74564e-16
-3.72487e-15
-5.38951e-16
-2.13808e-15
-2.00325e-16
-6.95984e-16
2.74747e-16
3.03656e-16
-9.80334e-17
-5.11542e-16
1.03937e-16
-1.343e-15
4.71345e-16
-2.84297e-15
4.26382e-16
-2.26279e-15
-2.85553e-16
-3.27638e-15
-2.20267e-16
-3.01106e-15
7.56865e-17
-2.64361e-15
4.40897e-16
-2.739e-15
2.33631e-16
-2.40141e-15
-7.99104e-17
8.77102e-16
-3.17209e-17
6.31821e-16
-1.75006e-16
4.38569e-16
-3.54799e-16
-2.04382e-16
-4.29233e-16
-7.6971e-16
-5.10346e-16
-1.84278e-15
-1.00275e-16
-3.36474e-15
2.47908e-16
-3.80232e-15
1.80898e-16
-3.76666e-15
2.3849e-17
-3.45532e-15
7.00191e-17
-3.91342e-15
6.42698e-16
-5.67115e-15
6.20922e-16
-7.71052e-15
-9.90598e-16
-5.89736e-15
-1.2193e-15
-4.47622e-15
8.83029e-19
-1.85431e-15
3.96994e-16
-5.61742e-15
6.47041e-16
1.19022e-14
1.14182e-16
2.23431e-14
-3.98773e-15
2.84521e-14
-2.47333e-15
3.1486e-14
-3.86494e-15
3.49369e-14
-5.74873e-15
2.87855e-14
-3.45616e-15
-5.41866e-15
-1.20048e-15
2.05045e-15
8.79849e-16
-1.95326e-15
6.63028e-16
-3.14983e-15
-2.84212e-16
-3.92942e-15
-5.47736e-16
-3.34447e-15
-5.24439e-16
-3.17286e-15
-5.44593e-16
-3.43074e-15
-2.80193e-16
-3.13797e-15
-2.65256e-16
-2.49708e-15
-3.79726e-16
-1.84395e-15
-8.21431e-17
-7.40533e-16
2.25319e-17
-1.82533e-16
-1.67164e-16
-1.48673e-15
-9.13955e-17
-3.33814e-15
9.07818e-17
-4.1517e-15
1.03137e-17
-4.76847e-15
-4.3375e-16
-3.77345e-15
-1.43557e-16
-3.66662e-15
5.0828e-16
-2.14481e-15
6.39172e-16
1.28123e-15
-3.17996e-17
1.32253e-14
-2.94022e-15
-7.64116e-16
-5.07743e-16
8.02525e-15
4.07031e-16
9.31586e-16
-2.59537e-16
-5.20389e-16
-1.90737e-16
-1.55869e-15
-8.48972e-17
-2.76134e-15
4.57565e-17
-3.52067e-15
-2.06239e-16
-3.01669e-15
-8.03566e-16
-2.52982e-15
-6.2991e-16
-2.01613e-15
-1.47362e-16
-2.18951e-15
2.91824e-16
-2.6659e-15
3.0831e-16
-3.22931e-15
2.78791e-16
-3.3807e-15
7.81518e-16
-2.93424e-15
5.34456e-16
-2.67406e-15
2.71504e-16
-2.33084e-15
-2.60533e-16
-2.11967e-15
-1.95835e-16
-2.67443e-15
5.84802e-17
-2.02168e-15
-5.28493e-16
2.22163e-16
-3.35615e-16
1.03109e-15
3.29687e-16
1.80849e-15
5.14369e-16
2.73111e-15
-9.18005e-17
1.39221e-15
-3.21751e-16
-6.33078e-16
4.07204e-17
-2.40537e-15
3.36093e-16
-3.27154e-15
4.23276e-16
-3.21799e-15
2.20557e-16
-3.28371e-15
-2.50777e-16
-2.68127e-15
-4.79143e-16
-2.78806e-15
-9.94375e-17
-3.32829e-15
-1.55591e-16
-3.08961e-15
-3.8607e-16
-2.24534e-15
-7.337e-16
-1.88295e-15
-1.24046e-16
-2.21368e-15
5.24074e-16