/*--------------------------------*- C++ -*----------------------------------*\
  =========                 |
  \\      /  F ield         | OpenFOAM: The Open Source CFD Toolbox
   \\    /   O peration     | Website:  https://openfoam.org
    \\  /    A nd           | Version:  7
     \\/     M anipulation  |
\*---------------------------------------------------------------------------*/
FoamFile
{
    version     2.0;
    format      ascii;
    class       volScalarField;
    location    "4000";
    object      k1Write;
}
// * * * * * * * * * * * * * * * * * * * * * * * * * * * * * * * * * * * * * //

dimensions      [0 2 0 0 0 0 0];

internalField   nonuniform List<scalar> 
160000
(
9.78063e-19
1.37977e-18
9.57033e-19
1.41669e-18
1.8122e-18
8.78698e-19
1.99761e-18
1.047e-18
1.25895e-18
2.50007e-18
1.78447e-18
1.1615e-18
2.18215e-18
2.02289e-18
6.93524e-19
1.11723e-18
8.39864e-19
8.90071e-19
1.91667e-18
1.77602e-18
1.51916e-18
1.0936e-18
1.36763e-18
2.08821e-18
1.802e-18
2.14149e-18
2.19241e-18
1.36507e-18
1.71715e-18
1.05226e-18
9.74291e-19
1.57158e-18
3.63122e-18
1.78364e-18
1.49966e-18
1.74544e-18
1.95626e-18
2.88151e-18
8.71143e-19
1.49613e-18
1.50422e-18
1.48562e-18
1.74494e-18
9.60163e-19
1.79777e-18
1.74559e-18
1.75005e-18
1.00638e-18
1.89077e-18
1.11415e-18
1.42424e-18
3.09135e-18
1.99404e-18
1.46704e-18
2.7501e-18
1.0155e-18
2.97691e-18
8.77932e-19
6.81451e-19
1.04216e-18
4.4995e-18
1.31197e-18
1.24646e-18
9.7607e-19
7.20966e-19
2.72754e-18
1.80057e-18
2.23505e-18
5.82759e-19
2.61445e-19
2.39789e-18
7.7865e-19
2.06233e-18
1.02403e-18
1.85843e-18
1.51667e-18
2.09111e-18
1.35569e-18
2.65873e-18
1.56578e-18
2.92194e-18
3.86376e-18
1.92791e-18
1.394e-18
1.29755e-18
1.17378e-18
1.18015e-18
7.5572e-19
1.16009e-18
1.88507e-18
7.28957e-19
2.45098e-18
3.18223e-18
2.7027e-18
1.80072e-18
8.14618e-19
1.51153e-18
1.13283e-18
1.20338e-18
7.67123e-19
1.39994e-18
5.49499e-19
2.07113e-18
1.14084e-18
6.78332e-19
1.60761e-18
6.25753e-19
1.561e-18
1.99241e-18
2.13692e-18
2.93153e-18
9.2601e-19
2.72259e-18
1.29981e-18
1.00878e-18
1.42353e-18
8.33238e-19
1.18115e-18
2.52362e-18
1.99648e-18
1.61925e-18
1.05079e-18
1.84251e-18
2.23514e-18
2.64066e-18
4.28179e-18
3.24086e-18
1.21651e-18
1.54685e-18
1.65821e-18
1.13391e-18
7.88586e-19
1.42235e-18
3.54891e-18
2.15438e-18
1.65865e-18
9.75814e-19
1.41429e-18
8.71804e-19
5.21324e-19
1.5008e-18
2.22967e-18
4.48758e-19
1.68421e-18
3.6304e-18
1.79667e-18
1.93777e-18
1.79289e-18
1.51075e-18
8.96921e-19
6.63098e-19
1.16072e-18
6.96968e-19
1.74271e-18
6.03255e-19
1.50052e-18
1.6026e-18
3.12091e-18
1.93605e-18
2.15678e-18
1.06952e-18
1.341e-18
1.01426e-18
2.41893e-18
6.49237e-19
1.72654e-18
1.73385e-18
9.17761e-19
1.29774e-18
8.99844e-19
2.78374e-18
4.56133e-18
1.52225e-18
4.05506e-18
2.20991e-18
9.7505e-19
1.40743e-18
1.53113e-18
3.36338e-18
3.11184e-18
6.82717e-19
2.47483e-18
1.00547e-18
6.84615e-19
7.75527e-19
8.90602e-19
1.10051e-18
9.90631e-19
6.30784e-19
1.18133e-18
1.58302e-18
1.19504e-18
1.68364e-18
3.10984e-18
5.70161e-18
6.69486e-19
5.72923e-19
3.93749e-18
1.66516e-17
3.70533e-17
1.92125e-17
8.0991e-18
3.28761e-18
1.17384e-18
8.02024e-19
2.24385e-18
5.29745e-18
6.26939e-18
4.60122e-18
3.27263e-18
3.10965e-18
3.13861e-18
2.20749e-18
1.64516e-18
1.99243e-18
1.83632e-18
1.04358e-18
1.31095e-18
3.41847e-18
5.03691e-18
4.63589e-18
2.47478e-18
5.84621e-19
4.0441e-19
5.26693e-19
8.77542e-19
1.99399e-18
7.82975e-19
1.92989e-18
1.58368e-18
4.46463e-19
1.16041e-18
8.94786e-19
1.92022e-18
1.79419e-18
2.0229e-18
8.66082e-19
1.55521e-18
7.73065e-19
1.37091e-18
1.0363e-18
7.43227e-19
1.19047e-18
9.91906e-19
1.53861e-18
1.24468e-18
1.31212e-18
8.80563e-19
4.4309e-18
1.1348e-17
1.54626e-17
1.46665e-17
4.56266e-18
1.76418e-18
9.7479e-19
1.41898e-18
1.31682e-18
4.26436e-19
5.52926e-19
5.03322e-18
1.99648e-17
6.90384e-18
1.50473e-18
4.5409e-19
5.5702e-19
1.97825e-18
2.29496e-18
5.73825e-19
8.9592e-19
5.62849e-18
2.71996e-18
1.41515e-18
2.23651e-18
1.96352e-18
8.57716e-19
4.07466e-19
8.11811e-19
4.22168e-18
4.04409e-18
2.74486e-18
1.2757e-18
1.01269e-18
1.28144e-18
2.11701e-18
2.76001e-18
2.21956e-18
2.81004e-18
1.13862e-18
9.93242e-19
1.23399e-18
1.29842e-18
3.14313e-19
8.23051e-19
1.53955e-18
1.98693e-18
2.46217e-18
3.33403e-18
7.45988e-19
1.5955e-18
5.2722e-19
1.31324e-18
1.10771e-17
8.29288e-17
7.25396e-17
3.13389e-17
1.53209e-17
8.3675e-18
3.82027e-18
1.67188e-18
1.09698e-18
1.0474e-18
9.06866e-19
6.49251e-19
1.38018e-18
3.56159e-18
7.02119e-18
8.3093e-18
2.36181e-18
6.22223e-19
5.90245e-19
4.55406e-19
4.74878e-19
4.71552e-19
2.25648e-18
1.02209e-17
1.83983e-17
1.19636e-17
6.72511e-18
5.04909e-18
4.28606e-18
2.36404e-18
1.94735e-18
1.99467e-18
1.6269e-18
1.56347e-18
1.55319e-18
1.16416e-18
1.17364e-18
3.28619e-18
3.31563e-18
7.468e-19
6.22809e-19
9.43968e-19
8.52207e-19
2.54749e-18
2.09286e-18
2.66937e-18
5.81743e-18
6.70414e-18
4.78654e-18
3.23286e-18
1.4866e-18
1.26215e-18
1.23386e-18
1.98872e-18
2.31359e-18
2.26157e-18
2.20632e-18
2.22245e-18
1.40478e-18
9.9647e-19
9.12866e-19
1.3831e-18
1.1572e-18
2.58884e-18
3.87439e-18
2.41334e-18
6.07848e-18
6.90766e-18
2.90066e-18
1.68796e-18
1.98757e-18
1.8096e-18
4.30637e-18
1.52744e-18
2.85378e-18
1.32628e-18
1.27903e-18
9.72679e-19
1.18844e-18
1.58026e-18
1.42268e-18
1.26971e-18
2.24108e-18
2.63292e-18
2.65029e-18
3.12781e-18
2.83364e-18
1.90551e-18
1.49291e-18
1.95856e-18
1.3625e-18
2.00381e-18
1.34783e-18
5.20696e-19
1.59447e-18
9.43694e-19
2.16505e-19
1.55858e-18
1.07269e-18
3.23856e-18
7.32712e-19
1.52611e-18
8.77395e-19
7.34778e-19
9.81997e-19
1.65509e-18
1.31429e-18
1.38523e-18
1.62656e-18
1.90637e-18
1.15717e-18
1.33084e-18
1.54638e-18
2.55135e-18
1.0235e-18
1.0798e-18
3.29421e-18
2.92396e-18
1.87927e-18
1.12237e-18
1.2685e-18
2.19488e-18
2.10717e-18
8.15337e-19
1.22762e-18
3.46289e-18
3.15081e-18
1.57704e-18
2.45432e-18
1.83056e-18
1.12902e-18
1.45732e-18
1.18556e-18
8.52506e-19
2.02363e-18
2.99802e-18
3.15064e-19
1.72872e-18
3.27292e-18
1.60249e-18
1.04314e-18
1.81197e-18
7.42846e-19
1.76766e-18
2.94941e-18
1.62404e-18
7.63206e-19
1.57796e-18
2.87192e-18
1.21246e-18
1.51517e-18
1.22795e-18
4.11457e-18
7.04288e-19
1.55008e-18
2.12663e-18
9.74592e-19
1.19163e-18
1.27384e-18
1.36954e-18
1.73558e-18
9.88238e-19
8.64713e-19
1.51597e-18
1.29738e-18
7.38369e-19
2.23652e-18
2.15323e-18
3.4146e-18
2.98256e-18
1.84718e-18
7.1508e-19
1.18203e-18
1.14202e-18
1.95268e-18
1.25431e-18
1.26529e-18
1.14542e-18
2.37181e-18
2.00438e-18
1.48546e-18
1.52127e-18
1.52815e-18
3.58957e-18
3.4585e-18
9.94179e-19
1.17545e-18
1.39003e-18
1.9846e-18
2.57202e-18
1.95166e-18
3.61844e-18
2.44165e-18
9.95781e-19
1.70723e-18
1.44181e-18
1.76716e-18
1.58596e-18
8.97151e-19
1.84494e-18
1.45769e-18
7.64833e-19
3.16233e-18
1.75893e-18
9.6985e-19
2.13582e-18
2.96994e-18
1.99916e-18
2.18422e-18
1.78424e-18
8.17707e-19
1.0376e-18
9.50542e-19
1.20467e-18
1.33495e-18
1.29906e-18
1.69692e-18
2.03491e-18
3.72752e-18
3.45591e-18
1.71426e-18
1.624e-18
1.63649e-18
1.43636e-18
1.61299e-18
1.49128e-18
1.04645e-18
1.56859e-18
1.15508e-18
9.74674e-19
4.80088e-19
2.90716e-18
4.28962e-18
2.39839e-18
8.36899e-19
3.51272e-18
1.24998e-18
6.78953e-19
9.57332e-19
1.55566e-18
2.15187e-18
1.84403e-18
2.38701e-18
2.5067e-18
1.06789e-18
1.75417e-18
1.32593e-18
1.0992e-18
6.75815e-19
2.74071e-18
7.58649e-19
7.91846e-19
1.27788e-18
1.42407e-18
2.2206e-18
1.33636e-18
2.16305e-18
9.7713e-19
1.70611e-18
1.51186e-18
2.00895e-18
1.64826e-18
1.34194e-18
1.05844e-18
1.6805e-18
2.55602e-18
1.20859e-18
1.53299e-18
1.50814e-18
1.78207e-18
1.67735e-18
7.42765e-19
3.03782e-18
1.52023e-18
1.65983e-18
1.9271e-18
1.41468e-18
1.79911e-18
1.31522e-18
1.12904e-18
1.57539e-18
9.15198e-19
4.83166e-19
1.5921e-18
1.3566e-18
1.44644e-18
5.45595e-19
5.77239e-19
1.63143e-18
3.26762e-18
7.71619e-18
6.76015e-18
5.82422e-18
2.06557e-18
1.27627e-18
7.16217e-18
1.98538e-17
2.47972e-17
1.30526e-17
5.80828e-18
2.8971e-18
1.41152e-18
1.04734e-18
1.97564e-18
4.49427e-18
5.69833e-18
3.5085e-18
1.89862e-18
1.46472e-18
1.4698e-18
1.17873e-18
8.65179e-19
9.83763e-19
1.20071e-18
9.4445e-19
8.93967e-19
1.38684e-18
1.95229e-18
1.22131e-18
6.34895e-19
3.11456e-19
3.20449e-19
5.01899e-19
9.80432e-19
1.57688e-18
2.39452e-18
1.25635e-18
2.07311e-18
1.69285e-18
1.73953e-18
1.72541e-18
4.44727e-18
4.797e-18
1.22238e-18
9.11538e-19
1.288e-18
1.50153e-18
8.10931e-19
1.0378e-18
7.76865e-19
7.01293e-19
1.87125e-18
1.99369e-18
5.93996e-19
1.29194e-18
1.60465e-18
6.45743e-18
7.87804e-17
6.26181e-17
1.76886e-17
5.47144e-18
2.11457e-18
1.42968e-18
1.2206e-18
1.32858e-18
7.45862e-19
6.64206e-19
2.52635e-18
9.60242e-18
5.16545e-18
1.09102e-18
4.4029e-19
5.75735e-19
1.47522e-18
2.46396e-18
7.66688e-19
5.90029e-19
3.28015e-18
7.14295e-18
2.53892e-18
1.64334e-18
2.29847e-18
1.22386e-18
6.40651e-19
6.7605e-19
1.90426e-18
4.24335e-18
3.35509e-18
1.72134e-18
1.33762e-18
1.64019e-18
2.56797e-18
4.19383e-18
3.67095e-18
1.89182e-18
9.61107e-19
5.76846e-19
5.3485e-19
6.07307e-19
3.50859e-19
6.08445e-19
1.27912e-18
1.68181e-18
6.48902e-19
2.19131e-18
4.18279e-18
2.19128e-18
7.25724e-19
3.83556e-18
2.51484e-17
1.2957e-16
4.10881e-17
1.15561e-17
4.14582e-18
1.26115e-18
6.31368e-19
5.25847e-19
6.68053e-19
7.96269e-19
8.80194e-19
8.32963e-19
1.1303e-18
2.54761e-18
3.95934e-18
3.1568e-18
1.2058e-18
3.7567e-19
3.57022e-19
5.4656e-19
5.19474e-19
5.24869e-19
1.89698e-18
1.83498e-17
4.16606e-17
1.92096e-17
6.28233e-18
3.18009e-18
2.74462e-18
1.92058e-18
1.229e-18
1.31206e-18
1.38998e-18
1.26204e-18
1.47755e-18
1.41373e-18
1.1344e-18
1.50973e-18
1.88261e-18
9.87178e-19
7.06918e-19
1.44858e-18
1.81981e-18
1.80131e-18
2.34225e-18
3.23988e-18
3.72503e-18
3.52029e-18
2.59142e-18
1.91379e-18
1.09851e-18
7.92283e-19
8.2815e-19
1.47701e-18
1.88728e-18
1.3415e-18
1.10774e-18
1.16764e-18
1.23636e-18
1.20548e-18
1.15647e-18
1.38478e-18
1.48571e-18
1.77752e-18
3.98903e-18
3.95615e-18
3.34425e-18
3.90646e-18
1.96162e-18
9.08667e-19
9.46251e-19
8.42722e-19
1.12809e-18
9.29702e-19
1.3079e-18
9.30965e-19
1.14474e-18
1.83996e-18
1.08715e-18
1.45882e-18
3.07977e-18
7.35968e-19
3.3738e-18
2.07537e-18
8.51307e-19
2.26179e-18
1.62377e-18
1.12573e-18
1.621e-18
2.93418e-18
1.34989e-18
1.99914e-18
2.92236e-18
1.44027e-18
8.17779e-19
2.20655e-18
3.27787e-19
5.84654e-19
2.90659e-19
9.27758e-19
5.80451e-19
5.00906e-19
2.10099e-18
7.79887e-19
2.73909e-18
6.27438e-19
1.35943e-18
2.3709e-18
8.84747e-19
2.21011e-18
3.78103e-18
2.07242e-18
1.20315e-18
2.39109e-18
4.18618e-18
1.95862e-18
3.98891e-18
2.60882e-18
1.12194e-18
2.12097e-18
1.33093e-18
1.67608e-18
1.09623e-18
7.96234e-19
8.79959e-19
1.2857e-18
1.55109e-18
1.66324e-18
3.93636e-18
1.66294e-18
1.22054e-18
1.7664e-18
1.78788e-18
2.00257e-18
7.75815e-19
1.13761e-18
1.53568e-18
1.08206e-18
1.05266e-18
1.20646e-18
1.5164e-18
1.46865e-18
1.46731e-18
1.23863e-18
3.75817e-18
1.09833e-18
7.69805e-19
8.20983e-19
1.70063e-18
3.48315e-18
1.52408e-18
8.75751e-19
9.16393e-19
1.25639e-18
1.60152e-18
1.80698e-18
3.48937e-18
2.7356e-18
3.98548e-18
1.21667e-18
1.04337e-18
1.24135e-18
2.09266e-18
8.06685e-19
8.97596e-19
2.117e-18
8.75685e-19
7.65112e-19
4.87436e-19
1.2273e-18
5.64704e-19
1.79311e-18
1.50575e-18
5.65903e-19
7.87588e-19
1.36353e-18
1.40341e-18
1.91001e-18
3.28283e-18
1.65883e-18
2.13218e-18
2.43631e-18
2.35093e-18
1.01637e-18
1.7242e-18
1.11616e-18
2.01035e-18
2.22115e-18
1.07152e-18
7.98476e-19
1.80965e-18
1.11093e-18
6.53366e-19
1.17084e-18
5.87278e-19
4.5728e-19
8.99138e-19
1.11565e-18
1.33773e-18
1.00334e-18
9.13991e-19
1.91493e-18
1.17441e-18
1.50365e-18
2.23541e-18
1.65628e-18
1.64475e-18
9.61674e-19
1.39018e-18
2.15869e-18
1.2809e-18
1.43443e-18
1.14761e-18
7.54698e-19
1.42543e-18
1.19827e-18
1.26791e-18
1.62978e-18
1.63848e-18
1.38039e-18
8.75963e-19
8.59015e-19
1.12039e-18
1.08278e-18
9.57605e-19
9.9457e-19
7.99279e-19
1.14007e-18
1.26643e-18
8.43633e-19
1.04686e-18
2.41717e-18
2.86885e-18
1.6659e-18
1.5219e-18
1.24932e-18
1.44944e-18
1.61986e-18
1.12715e-18
1.09028e-18
2.02337e-18
4.29722e-18
1.9099e-18
1.61218e-18
2.3091e-18
1.46059e-18
1.37879e-18
1.49955e-18
1.31758e-18
9.83827e-19
1.62914e-18
1.06087e-18
1.27448e-18
3.08966e-18
3.11821e-18
9.78138e-19
1.52829e-18
1.45784e-18
1.16467e-18
1.08014e-18
7.20614e-19
1.48641e-18
1.51832e-18
1.62909e-18
1.49979e-18
1.48088e-18
1.35562e-18
1.03889e-18
1.66537e-18
2.60615e-18
2.22682e-18
2.50006e-18
1.93462e-18
1.16113e-18
5.246e-19
1.1381e-18
2.25367e-18
2.07966e-18
1.14142e-18
1.22102e-18
9.71443e-19
6.33661e-19
8.24144e-19
1.3488e-18
1.06246e-18
9.78139e-19
6.91276e-19
8.96891e-19
2.57576e-18
1.27748e-17
3.90173e-17
1.45151e-17
5.74382e-18
3.11892e-18
2.09914e-18
2.71747e-18
4.21815e-18
4.12819e-18
4.05494e-18
3.12254e-18
1.95685e-18
1.27215e-18
1.08083e-18
1.40259e-18
2.16466e-18
2.6504e-18
2.01835e-18
1.22657e-18
9.67491e-19
1.02478e-18
9.39014e-19
6.8335e-19
6.92612e-19
8.99655e-19
9.01094e-19
7.94912e-19
9.44776e-19
1.20862e-18
9.54205e-19
5.33777e-19
4.11401e-19
5.65023e-19
8.74994e-19
1.42699e-18
1.88725e-18
2.00174e-18
1.39429e-18
1.26534e-18
2.26165e-18
1.67357e-18
1.08563e-18
1.72077e-18
2.40485e-18
9.49067e-19
8.73804e-19
1.38396e-18
9.48496e-19
6.54516e-19
7.90378e-19
1.61468e-18
2.45731e-18
1.72501e-18
1.88157e-18
9.14369e-19
1.07502e-18
1.10364e-18
7.27434e-18
5.01718e-17
9.63612e-17
1.96688e-17
4.55291e-18
1.57149e-18
1.13785e-18
1.10686e-18
1.03899e-18
8.92286e-19
7.33266e-19
9.49859e-19
2.07557e-18
2.59142e-18
1.13292e-18
5.4393e-19
6.19453e-19
1.09395e-18
1.61098e-18
1.2661e-18
8.5059e-19
1.37592e-18
3.08589e-18
2.21091e-18
1.16728e-18
1.4866e-18
2.23789e-18
1.94198e-18
1.5075e-18
1.23162e-18
2.13999e-18
3.61596e-18
2.888e-18
2.16859e-18
2.38269e-18
3.09697e-18
2.89467e-18
1.84563e-18
8.9028e-19
6.50066e-19
7.00735e-19
7.43584e-19
8.23215e-19
8.72191e-19
9.77733e-19
7.62145e-19
5.03964e-19
4.33363e-19
1.47471e-18
1.01418e-17
1.40854e-17
3.21098e-18
5.84232e-18
2.02214e-17
4.98554e-17
2.0502e-17
5.81994e-18
1.83477e-18
7.93963e-19
6.94921e-19
9.37569e-19
1.07428e-18
9.37285e-19
8.75051e-19
1.06572e-18
1.31558e-18
1.50964e-18
1.73263e-18
1.58838e-18
8.79601e-19
4.56346e-19
5.61497e-19
1.05929e-18
1.01744e-18
8.57643e-19
2.14666e-18
1.14717e-17
2.96868e-17
1.28061e-17
4.25045e-18
1.77681e-18
1.18681e-18
1.10152e-18
9.58204e-19
9.59158e-19
1.34705e-18
1.44908e-18
1.14065e-18
1.0073e-18
9.23117e-19
1.01159e-18
1.47739e-18
1.75031e-18
1.62314e-18
1.82484e-18
1.84569e-18
1.8501e-18
2.63432e-18
3.07286e-18
2.61935e-18
2.41817e-18
2.39393e-18
1.62022e-18
7.81729e-19
7.09407e-19
1.06567e-18
1.76392e-18
2.52683e-18
1.65742e-18
1.06912e-18
1.19449e-18
1.64944e-18
1.42072e-18
8.42557e-19
7.96595e-19
1.31057e-18
2.26766e-18
2.85419e-18
3.1827e-18
1.59582e-18
1.16492e-18
1.59067e-18
1.2188e-18
1.10507e-18
1.74358e-18
2.74408e-18
2.79522e-18
2.48767e-18
2.0415e-18
1.49997e-18
1.32375e-18
8.94957e-19
7.6886e-19
1.49459e-18
1.05033e-18
1.26548e-18
1.89674e-18
2.50341e-18
1.62868e-18
1.03409e-18
1.90336e-18
2.2831e-18
2.49847e-18
1.80893e-18
9.84808e-19
2.38448e-18
2.45602e-18
1.71375e-18
2.0923e-18
1.25994e-18
3.39263e-19
6.36693e-19
6.03889e-19
4.62124e-19
2.78296e-18
2.67527e-18
3.08024e-18
3.37049e-18
3.59933e-18
3.32998e-18
2.16512e-18
3.38787e-18
1.96635e-18
2.69341e-18
1.1964e-18
1.34132e-18
1.45781e-18
1.11017e-18
3.37093e-18
1.91799e-18
2.55878e-18
2.14561e-18
1.68912e-18
1.87116e-18
9.42582e-19
3.29134e-18
9.08881e-19
1.61378e-18
3.69489e-18
9.29916e-19
1.19061e-18
2.02629e-18
1.13225e-18
3.4092e-19
7.06393e-19
9.6494e-19
1.51169e-18
1.95627e-18
2.29609e-18
1.9927e-18
2.28194e-18
5.83812e-19
1.21524e-18
3.21055e-18
3.2662e-18
2.02064e-18
1.52764e-18
1.60371e-18
2.15592e-18
1.50399e-18
1.55867e-18
1.10508e-18
1.37498e-18
1.03372e-18
2.68983e-18
1.9167e-18
5.81112e-19
1.70898e-18
1.36748e-18
9.88726e-19
8.59704e-19
1.27498e-18
1.10804e-18
1.87835e-18
1.37319e-18
2.57011e-18
1.23691e-18
9.20375e-19
1.12376e-18
1.41662e-18
1.38416e-18
1.16277e-18
1.73392e-18
2.13762e-18
6.61468e-19
6.79514e-19
9.60149e-19
1.85469e-18
3.05841e-18
2.22464e-18
9.63775e-19
2.02971e-18
1.30191e-18
4.98008e-19
2.21596e-18
1.76475e-18
1.30614e-18
1.07907e-18
2.53207e-18
2.75769e-18
2.61245e-18
2.91389e-18
1.4616e-18
2.8683e-18
1.02457e-18
1.91683e-18
1.39286e-18
1.22054e-18
8.89813e-19
1.85684e-18
7.65372e-19
7.39276e-19
1.2443e-18
2.55735e-18
1.31902e-18
1.41887e-18
2.13107e-18
1.71895e-18
2.4368e-18
2.93721e-18
2.11112e-18
1.55487e-18
1.6592e-18
1.7507e-18
1.04158e-18
1.92919e-18
1.48301e-18
9.50302e-19
1.08465e-18
1.54243e-18
1.65786e-18
2.30081e-18
2.25707e-18
1.21962e-18
1.0349e-18
1.0247e-18
1.36735e-18
6.39e-19
1.39916e-18
1.93898e-18
2.04471e-18
1.24199e-18
9.92344e-19
1.28223e-18
1.13457e-18
1.78071e-18
1.43713e-18
1.59356e-18
1.69063e-18
1.07572e-18
1.59888e-18
1.5039e-18
1.12281e-18
1.25615e-18
2.09974e-18
7.66779e-19
1.13055e-18
1.86744e-18
1.92406e-18
2.40095e-18
1.62716e-18
1.13535e-18
8.45892e-19
2.03605e-18
1.25117e-18
1.27472e-18
9.14271e-19
8.97001e-19
1.21237e-18
1.25875e-18
2.26375e-18
2.14876e-18
1.10157e-18
1.47419e-18
1.71966e-18
2.01558e-18
2.19829e-18
1.86423e-18
1.07795e-18
1.1052e-18
1.51417e-18
2.33676e-18
4.26405e-18
5.56161e-18
3.34209e-18
1.49176e-18
1.50159e-18
2.17012e-18
1.70516e-18
1.7314e-18
1.72615e-18
1.00569e-18
8.02125e-19
1.22813e-18
1.31083e-18
5.68525e-19
5.18647e-19
1.15949e-18
1.19215e-18
8.98016e-19
7.83503e-19
3.83791e-18
1.74265e-17
5.28194e-17
1.72632e-17
5.61023e-18
2.61766e-18
2.54057e-18
3.07221e-18
2.74983e-18
1.92985e-18
1.61014e-18
1.74965e-18
1.82072e-18
1.49669e-18
9.7066e-19
9.38263e-19
1.19612e-18
1.78743e-18
2.05763e-18
1.65963e-18
1.18955e-18
1.13541e-18
1.08038e-18
8.44748e-19
7.85528e-19
1.07494e-18
1.41343e-18
1.344e-18
1.15011e-18
9.80843e-19
8.27752e-19
7.01164e-19
6.83489e-19
9.298e-19
1.36086e-18
1.70859e-18
2.03123e-18
1.95582e-18
1.56138e-18
1.0844e-18
9.33082e-19
9.47307e-19
8.64557e-19
1.0132e-18
1.09124e-18
5.80165e-19
4.93329e-19
6.94834e-19
9.24431e-19
1.13377e-18
1.46539e-18
1.09348e-18
9.38033e-19
9.52198e-19
7.92931e-19
1.07849e-18
9.05053e-19
1.04741e-18
5.86652e-18
2.78765e-17
5.14356e-17
2.05468e-17
4.49924e-18
1.31261e-18
7.93085e-19
9.42225e-19
9.34786e-19
8.56857e-19
9.84299e-19
1.25915e-18
1.87968e-18
2.4302e-18
1.62984e-18
9.0033e-19
7.00683e-19
9.55752e-19
1.53872e-18
1.76478e-18
1.24259e-18
7.74507e-19
1.00641e-18
2.09718e-18
2.74464e-18
3.86029e-18
5.08858e-18
3.09013e-18
1.08569e-18
5.78819e-19
8.95415e-19
2.3116e-18
3.49131e-18
3.44602e-18
2.80559e-18
2.24882e-18
1.57051e-18
1.08489e-18
9.00946e-19
9.58202e-19
9.05841e-19
6.91637e-19
6.54269e-19
9.71466e-19
1.39017e-18
8.19132e-19
4.52817e-19
4.53322e-19
1.51843e-18
9.96869e-18
2.80661e-17
2.58038e-17
1.46194e-17
1.15578e-17
9.2236e-18
5.68106e-18
2.46692e-18
1.33803e-18
9.5889e-19
1.15721e-18
1.56294e-18
1.69184e-18
1.6284e-18
1.41119e-18
1.31294e-18
1.40857e-18
1.36142e-18
1.31978e-18
1.47389e-18
1.34967e-18
9.3192e-19
7.65848e-19
7.4872e-19
7.48295e-19
1.01432e-18
2.17436e-18
5.26873e-18
8.07598e-18
4.87718e-18
2.28011e-18
1.04804e-18
8.16235e-19
8.32433e-19
1.03751e-18
1.19163e-18
1.20076e-18
1.16515e-18
1.25895e-18
1.37387e-18
1.80232e-18
2.71347e-18
3.06376e-18
3.55364e-18
3.92857e-18
2.89757e-18
1.88982e-18
1.53457e-18
1.48525e-18
1.73364e-18
2.5109e-18
3.03e-18
2.08376e-18
1.06316e-18
7.35009e-19
6.35625e-19
6.93224e-19
8.1328e-19
9.10589e-19
1.18222e-18
1.23707e-18
1.32141e-18
1.33147e-18
1.36943e-18
1.53356e-18
2.00809e-18
1.96581e-18
1.80142e-18
1.7449e-18
1.37794e-18
1.73447e-18
1.14017e-18
8.86696e-19
1.23681e-18
1.39019e-18
1.81958e-18
2.27482e-18
1.79522e-18
1.88404e-18
1.74162e-18
1.53e-18
1.56187e-18
9.69943e-19
5.53962e-19
9.23724e-19
1.68105e-18
1.91612e-18
6.80831e-19
2.29445e-18
3.67462e-18
2.26556e-18
1.27557e-18
1.39595e-18
2.19098e-18
1.03005e-18
1.99967e-18
1.44209e-18
9.07784e-19
7.16449e-19
1.48436e-18
1.19768e-18
9.38788e-19
6.63982e-19
6.67574e-19
7.47762e-19
9.22395e-19
2.24206e-18
2.74809e-18
3.36094e-18
1.7276e-18
1.48018e-18
1.39691e-18
8.27125e-19
1.88676e-18
1.56896e-18
8.46311e-19
9.78733e-19
3.21153e-19
2.53796e-18
4.05209e-18
1.21138e-18
7.19497e-19
2.18475e-18
2.06407e-18
3.0495e-18
3.86379e-18
1.30295e-18
1.00856e-18
6.31828e-19
1.03481e-18
1.06684e-18
5.43342e-19
1.70049e-18
2.58237e-18
1.30348e-18
1.9745e-18
1.69906e-18
8.33131e-19
1.42106e-18
2.44287e-18
1.48053e-18
6.2766e-19
1.01622e-18
1.51666e-18
3.24682e-18
2.40293e-18
1.27094e-18
2.47784e-18
1.30849e-18
9.08072e-19
1.00059e-18
1.51092e-18
1.09883e-18
2.05675e-18
3.82901e-18
1.60812e-18
1.69379e-18
1.68892e-18
1.32352e-18
9.29803e-19
1.3754e-18
1.62081e-18
9.19239e-19
1.55965e-18
1.55749e-18
8.32087e-19
1.05231e-18
1.03586e-18
1.21036e-18
8.15945e-19
9.75761e-19
2.07823e-18
1.77414e-18
1.73479e-18
1.12257e-18
1.46895e-18
8.73193e-19
9.24712e-19
1.95934e-18
1.58971e-18
2.21624e-18
2.52586e-18
1.25263e-18
1.44584e-18
1.55084e-18
3.16501e-18
9.12268e-19
1.04904e-18
1.44535e-18
1.33453e-18
1.78004e-18
2.37545e-18
1.49801e-18
1.37974e-18
1.34039e-18
1.38089e-18
1.15362e-18
9.39549e-19
1.22438e-18
1.20198e-18
9.30508e-19
1.46521e-18
1.50239e-18
1.0416e-18
9.00708e-19
1.86885e-18
2.4469e-18
1.42848e-18
7.00397e-19
1.85342e-18
2.11291e-18
3.17071e-18
2.77942e-18
1.57791e-18
1.50718e-18
1.51834e-18
1.12413e-18
1.17018e-18
2.22572e-18
3.4066e-18
2.38842e-18
8.11644e-19
9.41558e-19
2.44674e-18
1.68933e-18
1.15245e-18
1.54402e-18
1.23975e-18
1.24522e-18
1.32584e-18
2.43177e-18
1.76402e-18
9.28468e-19
8.30156e-19
1.04128e-18
1.23733e-18
9.41048e-19
1.77021e-18
1.87867e-18
1.65645e-18
1.02801e-18
1.34766e-18
1.10258e-18
1.21146e-18
2.15368e-18
2.36633e-18
2.2512e-18
1.76623e-18
2.38529e-18
1.34761e-18
1.51243e-18
1.84481e-18
1.1117e-18
9.32647e-19
1.414e-18
1.2727e-18
1.0928e-18
1.21428e-18
1.60756e-18
2.13534e-18
2.17775e-18
2.33902e-18
2.02929e-18
9.71046e-19
6.33538e-19
1.21439e-18
1.88092e-18
2.10384e-18
1.98833e-18
1.19778e-18
7.76246e-19
1.03001e-18
2.49708e-18
2.65749e-18
1.93774e-18
2.64047e-18
1.56435e-18
1.55815e-18
1.47544e-18
1.09963e-18
1.60521e-18
1.55412e-18
1.32184e-18
1.23042e-18
1.12079e-18
1.15767e-18
1.4788e-18
1.55369e-18
1.02246e-18
6.23722e-19
3.01046e-19
1.01013e-18
7.40114e-18
9.90121e-17
6.41265e-17
1.65016e-17
4.64965e-18
1.82821e-18
1.28049e-18
1.49204e-18
1.5599e-18
1.16988e-18
9.16228e-19
1.11688e-18
1.62178e-18
1.95955e-18
1.84304e-18
1.22571e-18
1.13253e-18
1.46883e-18
2.01903e-18
2.00172e-18
1.58167e-18
1.21271e-18
1.13452e-18
1.24324e-18
1.48589e-18
2.02806e-18
2.39274e-18
2.14028e-18
1.46905e-18
1.02855e-18
9.06711e-19
1.0318e-18
1.23451e-18
1.58043e-18
1.7653e-18
1.58655e-18
1.29387e-18
1.21002e-18
1.08688e-18
8.74598e-19
8.45906e-19
9.45379e-19
1.06798e-18
9.53827e-19
9.95893e-19
8.86447e-19
5.79059e-19
7.19807e-19
1.2078e-18
1.55621e-18
1.22281e-18
9.16819e-19
8.05246e-19
1.51124e-18
2.77429e-18
2.84354e-18
1.92689e-18
1.411e-18
6.30379e-18
1.93574e-17
2.91369e-17
1.53765e-17
4.27755e-18
1.25924e-18
5.99378e-19
6.08658e-19
8.17532e-19
9.18408e-19
1.04341e-18
1.32693e-18
1.69159e-18
1.90311e-18
1.7894e-18
1.30327e-18
8.70645e-19
7.07595e-19
7.41129e-19
9.43535e-19
1.02469e-18
8.00981e-19
9.8787e-19
2.48835e-18
5.62268e-18
6.8705e-18
3.96346e-18
2.21592e-18
1.06647e-18
6.94427e-19
1.10847e-18
2.43313e-18
5.01919e-18
5.00749e-18
2.9992e-18
1.76905e-18
1.0552e-18
8.32482e-19
8.83518e-19
9.13045e-19
7.71561e-19
7.90837e-19
1.21027e-18
1.5461e-18
1.37684e-18
8.59937e-19
6.08229e-19
5.51122e-19
1.09921e-18
6.97835e-18
3.10619e-17
2.6559e-17
1.50043e-17
6.7792e-18
4.34432e-18
2.46471e-18
1.76149e-18
1.21078e-18
1.39985e-18
1.80766e-18
2.10376e-18
1.94822e-18
1.55013e-18
1.14535e-18
9.60565e-19
1.13588e-18
1.54479e-18
1.99691e-18
2.8967e-18
4.07937e-18
3.59882e-18
2.53006e-18
2.00058e-18
1.88061e-18
2.04074e-18
2.78639e-18
4.67727e-18
5.53908e-18
4.07404e-18
2.55902e-18
1.32988e-18
8.15967e-19
8.10176e-19
1.05234e-18
1.41694e-18
1.62798e-18
1.3739e-18
9.25486e-19
8.1878e-19
1.35756e-18
1.74067e-18
1.75691e-18
1.84946e-18
2.49532e-18
2.69914e-18
1.92959e-18
1.46877e-18
1.85226e-18
2.66124e-18
3.03851e-18
2.3585e-18
1.29017e-18
8.07927e-19
7.49171e-19
7.70197e-19
7.57466e-19
9.05752e-19
1.38839e-18
1.6336e-18
1.56833e-18
1.27693e-18
1.1804e-18
1.38965e-18
1.65266e-18
1.54497e-18
1.56684e-18
1.61257e-18
1.50191e-18
1.39429e-18
1.2269e-18
1.27244e-18
1.3391e-18
1.7491e-18
1.51179e-18
1.92949e-18
1.74262e-18
1.56043e-18
1.75311e-18
1.93481e-18
1.43998e-18
6.71109e-19
5.98631e-19
1.54404e-18
1.29058e-18
1.34664e-18
1.98949e-18
2.29805e-18
1.98831e-18
2.78514e-18
2.72385e-18
1.0587e-18
9.83132e-19
1.66545e-18
3.45222e-18
2.54051e-18
1.50322e-18
1.70193e-18
1.54925e-18
2.12237e-18
9.73468e-19
5.25629e-19
1.34083e-18
1.24364e-18
1.17675e-18
1.39113e-19
7.31341e-19
7.62876e-19
8.35468e-19
2.91804e-18
1.91378e-18
1.13014e-18
1.80079e-18
7.73491e-19
9.27988e-19
4.71473e-19
1.08325e-18
2.00688e-18
9.92109e-19
2.74366e-18
2.46936e-18
2.79937e-18
3.85387e-18
1.18689e-18
1.21627e-18
1.57095e-18
2.5785e-18
2.2639e-18
2.69899e-18
1.3288e-18
6.17251e-19
1.02198e-18
1.13896e-18
4.63746e-19
1.11262e-18
7.06669e-19
3.03408e-18
1.36891e-18
1.39248e-18
1.64398e-18
1.66474e-18
2.09874e-18
1.01372e-18
1.04228e-18
1.52968e-18
2.56584e-18
2.71187e-18
1.66847e-18
1.81166e-18
1.01862e-18
1.0164e-18
1.47343e-18
1.58673e-18
1.35255e-18
1.40533e-18
1.73207e-18
3.49371e-18
2.08559e-18
9.87593e-19
1.56073e-18
1.74705e-18
1.10456e-18
1.55481e-18
1.88372e-18
1.4329e-18
1.01184e-18
1.35284e-18
1.13628e-18
7.56721e-19
1.58825e-18
1.11713e-18
1.67976e-18
3.49567e-18
2.27899e-18
1.32425e-18
1.81346e-18
2.73389e-18
2.06699e-18
2.90121e-18
2.91522e-18
1.45259e-18
1.40463e-18
2.93077e-18
1.88923e-18
1.31879e-18
1.01583e-18
9.77218e-19
1.54257e-18
1.69696e-18
1.29142e-18
1.2451e-18
1.89497e-18
2.3148e-18
2.13163e-18
3.36345e-18
2.73146e-18
1.72894e-18
9.51069e-19
1.45267e-18
2.31684e-18
1.3496e-18
9.82328e-19
1.1734e-18
5.24917e-19
5.65261e-19
9.98778e-19
6.95377e-19
9.53105e-19
1.03609e-18
1.76895e-18
2.62655e-18
1.84462e-18
1.43105e-18
9.58738e-19
1.43673e-18
2.2752e-18
2.34384e-18
1.41755e-18
8.77828e-19
8.31028e-19
1.37316e-18
1.19441e-18
8.96889e-19
8.60309e-19
8.93513e-19
2.06906e-18
2.14403e-18
1.66978e-18
2.95055e-18
1.81505e-18
2.65247e-18
2.44662e-18
1.72782e-18
1.80845e-18
1.52452e-18
1.2857e-18
1.25277e-18
1.55263e-18
2.19708e-18
1.35336e-18
8.74505e-19
9.73466e-19
1.8692e-18
1.70919e-18
1.80503e-18
1.65421e-18
1.75385e-18
1.51302e-18
1.28776e-18
1.80518e-18
2.286e-18
1.43425e-18
1.12628e-18
1.70096e-18
2.05318e-18
1.74325e-18
1.04823e-18
1.06456e-18
1.1604e-18
1.70796e-18
1.39636e-18
1.6486e-18
1.22439e-18
9.55204e-19
1.26519e-18
1.40197e-18
2.1735e-18
2.62413e-18
2.34418e-18
1.42775e-18
1.41047e-18
1.52688e-18
1.37594e-18
1.5035e-18
1.05569e-18
8.64374e-19
1.13421e-18
1.05058e-18
8.76657e-19
1.59403e-18
2.27326e-18
1.91552e-18
1.26111e-18
1.53478e-18
1.42731e-18
1.47275e-18
2.25999e-18
1.84931e-18
9.6346e-19
5.39179e-19
2.31308e-19
4.05069e-19
2.23313e-17
1.60595e-16
5.92226e-17
1.49632e-17
4.11124e-18
1.57384e-18
1.19594e-18
1.37311e-18
1.58932e-18
1.50411e-18
1.25108e-18
1.0789e-18
1.30358e-18
1.80993e-18
2.08375e-18
1.97497e-18
1.50614e-18
1.31159e-18
1.56991e-18
1.83115e-18
1.59495e-18
1.33194e-18
1.27724e-18
1.42435e-18
1.59093e-18
1.72753e-18
1.90865e-18
1.95258e-18
1.64494e-18
1.33338e-18
1.17662e-18
1.19169e-18
1.34432e-18
1.43825e-18
1.23927e-18
9.11777e-19
6.82489e-19
6.66972e-19
8.3489e-19
9.59931e-19
9.52117e-19
9.20664e-19
9.69337e-19
1.13248e-18
1.245e-18
8.99249e-19
4.84466e-19
5.21975e-19
1.15026e-18
1.6038e-18
1.35447e-18
1.06482e-18
9.90765e-19
1.44094e-18
2.94049e-18
3.30382e-18
2.09752e-18
1.95834e-18
6.60954e-18
2.34748e-17
1.5906e-17
7.30864e-18
3.18983e-18
1.54191e-18
8.50471e-19
6.46997e-19
7.34795e-19
9.5547e-19
1.27338e-18
1.5269e-18
1.58202e-18
1.51214e-18
1.3776e-18
1.16726e-18
8.64336e-19
8.35791e-19
1.21758e-18
1.71636e-18
1.70544e-18
1.31191e-18
1.24096e-18
2.96574e-18
6.86632e-18
7.98498e-18
3.76728e-18
1.67771e-18
1.12657e-18
9.43236e-19
1.07218e-18
1.82885e-18
4.00189e-18
5.06741e-18
3.16245e-18
1.62823e-18
1.08471e-18
1.18827e-18
1.53597e-18
1.8948e-18
1.79749e-18
1.68049e-18
1.60697e-18
1.35227e-18
1.15794e-18
1.25856e-18
1.36139e-18
1.22287e-18
1.08909e-18
3.77244e-18
1.91439e-17
2.15249e-17
1.08381e-17
3.77606e-18
1.79379e-18
1.30761e-18
8.96163e-19
7.7933e-19
8.98326e-19
1.30665e-18
1.93599e-18
2.02289e-18
1.6362e-18
1.31828e-18
1.13321e-18
1.15081e-18
1.65562e-18
2.54599e-18
3.40107e-18
4.0688e-18
3.82049e-18
2.93682e-18
1.50262e-18
9.19214e-19
9.9592e-19
1.49509e-18
2.28208e-18
2.43927e-18
1.83035e-18
1.27877e-18
9.25496e-19
8.01624e-19
9.24111e-19
1.39866e-18
1.57912e-18
1.31142e-18
1.16171e-18
1.05021e-18
7.98344e-19
6.52799e-19
9.57972e-19
1.42793e-18
1.68398e-18
1.99132e-18
2.23249e-18
1.90262e-18
1.41191e-18
1.5059e-18
2.06247e-18
1.98381e-18
1.68117e-18
1.83744e-18
1.93365e-18
1.43287e-18
1.04562e-18
1.14484e-18
1.68492e-18
1.98073e-18
1.85566e-18
2.19567e-18
2.40017e-18
1.90046e-18
1.5117e-18
1.38276e-18
1.53089e-18
1.59911e-18
1.37729e-18
1.09023e-18
1.26714e-18
1.32346e-18
1.16764e-18
1.36896e-18
1.191e-18
9.57797e-19
7.05073e-19
1.01e-18
2.12582e-18
3.40479e-18
2.27854e-18
2.04019e-18
2.25522e-18
2.02273e-18
1.85468e-18
2.80382e-18
1.65027e-18
1.10186e-18
1.29323e-18
1.58553e-18
1.54082e-18
6.2081e-19
8.53747e-19
8.59379e-19
4.40835e-19
9.05013e-19
1.83319e-18
1.55336e-18
2.15196e-18
2.57064e-18
1.32054e-18
1.85845e-18
8.62066e-19
1.04548e-18
3.61477e-18
3.59356e-18
1.58007e-18
5.24305e-19
5.74991e-19
1.21378e-18
1.15609e-18
1.47876e-18
2.02598e-18
2.34659e-18
5.57476e-18
2.52519e-18
2.01219e-18
1.26025e-18
1.54311e-18
9.95638e-19
2.01358e-18
2.74526e-18
2.13539e-18
1.33345e-18
1.49712e-18
9.09606e-19
1.48679e-18
1.05569e-18
3.08179e-18
5.1108e-18
1.606e-18
1.00103e-18
1.09074e-18
2.37497e-18
2.60387e-18
1.09425e-18
1.99695e-18
1.08412e-18
2.3112e-18
1.91887e-18
1.96267e-18
8.25074e-19
1.40859e-18
1.04665e-18
2.56895e-18
2.37462e-18
2.79024e-18
1.33017e-18
1.53579e-18
2.84543e-18
2.66729e-18
1.26569e-18
1.13665e-18
1.77315e-18
1.14057e-18
8.18281e-19
1.27189e-18
1.14248e-18
1.9754e-18
2.56518e-18
1.15108e-18
1.64075e-18
2.14123e-18
1.33078e-18
1.25691e-18
1.87185e-18
1.21274e-18
1.11298e-18
9.41221e-19
6.99711e-19
1.06876e-18
2.3516e-18
2.4341e-18