/*--------------------------------*- C++ -*----------------------------------*\
  =========                 |
  \\      /  F ield         | OpenFOAM: The Open Source CFD Toolbox
   \\    /   O peration     | Website:  https://openfoam.org
    \\  /    A nd           | Version:  7
     \\/     M anipulation  |
\*---------------------------------------------------------------------------*/
FoamFile
{
    version     2.0;
    format      ascii;
    class       volScalarField;
    location    "4000";
    object      k2Write;
}
// * * * * * * * * * * * * * * * * * * * * * * * * * * * * * * * * * * * * * //

dimensions      [0 2 0 0 0 0 0];

internalField   nonuniform List<scalar> 
160000
(
1.49793e-18
2.1181e-18
1.86444e-18
2.77533e-18
3.98947e-18
1.90454e-18
3.11362e-18
1.28668e-18
2.04323e-18
4.27886e-18
3.30257e-18
2.29066e-18
4.25461e-18
3.94776e-18
1.35598e-18
1.92771e-18
1.31656e-18
1.39768e-18
2.91478e-18
2.70557e-18
2.31807e-18
2.24818e-18
2.8159e-18
3.93536e-18
2.90557e-18
4.55081e-18
4.66588e-18
2.90929e-18
3.41595e-18
1.76871e-18
1.81061e-18
2.92428e-18
6.01621e-18
2.95883e-18
2.49039e-18
3.6151e-18
4.05621e-18
5.98109e-18
1.56646e-18
2.45877e-18
2.47422e-18
2.44594e-18
3.75961e-18
2.07051e-18
3.87995e-18
3.77046e-18
2.66071e-18
1.50068e-18
2.82153e-18
1.66362e-18
2.85543e-18
6.34989e-18
4.09852e-18
3.01673e-18
5.65891e-18
1.8433e-18
4.7108e-18
1.38984e-18
1.26513e-18
1.94668e-18
8.40796e-18
2.37054e-18
2.21242e-18
1.73294e-18
1.31316e-18
4.96967e-18
3.28097e-18
4.07391e-18
1.06237e-18
5.65036e-19
5.18296e-18
1.6832e-18
4.45848e-18
2.1454e-18
3.2609e-18
2.53622e-18
3.4968e-18
2.26678e-18
4.4453e-18
2.6175e-18
4.88417e-18
6.45721e-18
3.22148e-18
2.48073e-18
2.48519e-18
2.24756e-18
2.2592e-18
1.44628e-18
2.17989e-18
3.54139e-18
1.41317e-18
4.75012e-18
5.57762e-18
4.67697e-18
3.11471e-18
1.48176e-18
2.58885e-18
1.93939e-18
2.05901e-18
1.31202e-18
2.3929e-18
9.5575e-19
3.60079e-18
1.98207e-18
1.30912e-18
3.10063e-18
1.20615e-18
3.00693e-18
3.71209e-18
3.38708e-18
4.6421e-18
1.46565e-18
4.30579e-18
2.05424e-18
1.70458e-18
2.40345e-18
1.46989e-18
2.24161e-18
4.18732e-18
2.98542e-18
2.41922e-18
1.70713e-18
2.99074e-18
3.6248e-18
4.27847e-18
6.92663e-18
5.23753e-18
1.97573e-18
2.61672e-18
2.80207e-18
1.90402e-18
1.34916e-18
2.53341e-18
6.31569e-18
3.8289e-18
2.94542e-18
1.73062e-18
2.49974e-18
1.53902e-18
9.65561e-19
2.77668e-18
3.87579e-18
7.83437e-19
2.93683e-18
6.32432e-18
3.12541e-18
3.06315e-18
2.82645e-18
2.37921e-18
1.41084e-18
1.18673e-18
2.07483e-18
1.24451e-18
3.10771e-18
1.10242e-18
2.73861e-18
2.66756e-18
4.84728e-18
3.00315e-18
3.34257e-18
1.98051e-18
2.54323e-18
1.92105e-18
4.15536e-18
1.11389e-18
2.97888e-18
2.98757e-18
1.74851e-18
2.46923e-18
1.7663e-18
5.45677e-18
6.45e-18
2.14973e-18
5.73294e-18
3.12017e-18
1.66779e-18
2.40426e-18
2.61191e-18
5.72979e-18
4.82479e-18
1.05717e-18
3.63939e-18
1.46073e-18
1.05498e-18
1.20137e-18
1.37762e-18
1.69995e-18
1.52786e-18
1.19635e-18
2.58298e-18
3.45549e-18
2.8936e-18
4.07103e-18
6.24861e-18
8.69076e-18
1.01908e-18
2.2031e-18
1.51131e-17
5.25956e-17
3.45364e-17
1.79027e-17
7.53e-18
3.05514e-18
1.61692e-18
1.85765e-18
5.18929e-18
1.22341e-17
1.09715e-17
6.51876e-18
4.62998e-18
4.39339e-18
4.42797e-18
3.10989e-18
2.31443e-18
2.79902e-18
2.57629e-18
1.55803e-18
2.30938e-18
6.01284e-18
7.65673e-18
6.45221e-18
3.43971e-18
8.11532e-19
6.08287e-19
8.20165e-19
1.36464e-18
2.84908e-18
1.0903e-18
2.65921e-18
1.93614e-18
5.84544e-19
1.58015e-18
1.27015e-18
2.72206e-18
2.53994e-18
2.85979e-18
1.40943e-18
2.52749e-18
1.25477e-18
2.14953e-18
1.43827e-18
1.03027e-18
1.60164e-18
1.21122e-18
1.87629e-18
1.87831e-18
3.49924e-18
4.55915e-18
2.2912e-17
5.85538e-17
6.45216e-17
1.56884e-17
4.87688e-18
2.51357e-18
1.98161e-18
2.88061e-18
2.37019e-18
7.66677e-19
1.18749e-18
1.07979e-17
4.27602e-17
1.16003e-17
2.52458e-18
7.64114e-19
9.36309e-19
2.68466e-18
2.91746e-18
7.28612e-19
1.46916e-18
9.21707e-18
4.44807e-18
2.31157e-18
3.15966e-18
2.29274e-18
1.05891e-18
6.66693e-19
1.32683e-18
6.8917e-18
4.2524e-18
2.81598e-18
1.40825e-18
1.77626e-18
2.51177e-18
4.1443e-18
4.71981e-18
3.54416e-18
4.4826e-18
1.81461e-18
1.66197e-18
1.93473e-18
1.69402e-18
4.09689e-19
9.57258e-19
1.48231e-18
1.81257e-18
2.2436e-18
2.68082e-18
7.78966e-19
2.65514e-18
2.44117e-18
9.60661e-18
8.09442e-17
1.50368e-16
8.05323e-17
3.48143e-17
1.69823e-17
9.28338e-18
7.52013e-18
5.36223e-18
3.61489e-18
3.19697e-18
1.7221e-18
1.25892e-18
2.67425e-18
6.8944e-18
1.33264e-17
1.26924e-17
3.6045e-18
9.48858e-19
8.99422e-19
6.309e-19
6.72229e-19
8.50185e-19
4.06544e-18
1.8409e-17
3.30956e-17
2.15114e-17
9.9872e-18
7.58819e-18
6.43775e-18
3.96625e-18
3.71727e-18
3.80465e-18
3.03895e-18
2.93229e-18
2.91084e-18
2.25881e-18
2.65107e-18
7.41826e-18
7.47982e-18
1.57434e-18
1.28401e-18
1.94517e-18
1.59832e-18
3.95133e-18
3.2434e-18
3.89303e-18
6.75863e-18
7.78921e-18
5.55414e-18
3.75221e-18
1.93609e-18
1.89496e-18
1.85165e-18
2.84814e-18
2.88372e-18
2.95637e-18
2.88291e-18
2.61617e-18
1.53093e-18
1.12872e-18
1.09425e-18
1.65724e-18
1.38611e-18
3.09963e-18
4.52227e-18
2.81028e-18
7.07541e-18
8.03431e-18
3.37265e-18
2.1254e-18
2.65415e-18
2.70628e-18
6.43817e-18
2.28945e-18
4.27628e-18
1.85436e-18
1.7879e-18
1.28169e-18
1.44825e-18
1.7872e-18
1.60868e-18
1.47695e-18
2.60654e-18
3.06189e-18
3.12961e-18
3.76702e-18
3.41241e-18
2.29929e-18
2.00642e-18
2.63193e-18
2.07666e-18
3.31786e-18
2.71502e-18
1.95628e-18
7.12501e-18
4.54091e-18
1.47675e-18
1.06284e-17
6.20088e-18
5.85802e-18
1.32848e-18
2.01812e-18
1.71785e-18
1.52054e-18
2.05036e-18
3.38703e-18
2.30306e-18
2.44454e-18
2.78492e-18
3.17125e-18
1.93424e-18
2.41253e-18
3.01757e-18
4.18242e-18
1.62002e-18
1.71207e-18
6.29424e-18
5.59686e-18
3.60342e-18
1.99853e-18
2.5402e-18
3.52849e-18
3.39265e-18
1.31466e-18
2.60873e-18
7.36951e-18
5.43531e-18
2.6999e-18
4.0296e-18
3.00936e-18
2.14248e-18
2.76889e-18
1.9666e-18
1.41577e-18
3.831e-18
5.31471e-18
6.53951e-19
3.50803e-18
5.37837e-18
2.63609e-18
1.7174e-18
3.46432e-18
1.60188e-18
3.81496e-18
5.73711e-18
2.469e-18
1.50642e-18
2.93158e-18
4.28861e-18
2.18779e-18
3.11219e-18
2.19239e-18
6.37348e-18
1.0915e-18
2.83637e-18
3.36512e-18
1.70424e-18
2.22505e-18
2.37949e-18
2.55922e-18
3.08114e-18
1.75493e-18
1.66214e-18
2.78483e-18
2.36372e-18
1.50954e-18
4.57322e-18
4.40375e-18
6.19031e-18
5.40763e-18
3.34935e-18
1.48382e-18
2.47336e-18
2.32367e-18
3.26547e-18
2.09741e-18
2.11814e-18
2.09154e-18
4.33052e-18
3.65916e-18
2.71143e-18
2.81444e-18
2.82665e-18
6.6382e-18
6.39132e-18
1.83672e-18
2.28102e-18
2.69692e-18
3.84877e-18
4.98689e-18
3.46156e-18
6.26431e-18
4.22516e-18
1.85615e-18
3.14556e-18
2.46954e-18
3.02514e-18
2.71378e-18
1.60598e-18
3.21891e-18
2.31732e-18
1.38403e-18
5.71919e-18
3.17913e-18
1.87055e-18
4.11677e-18
5.16939e-18
3.17093e-18
3.46147e-18
2.82602e-18
1.36183e-18
1.8066e-18
1.65409e-18
2.08536e-18
2.32216e-18
2.46754e-18
3.22051e-18
3.76971e-18
5.57395e-18
5.16326e-18
2.55894e-18
2.46138e-18
2.47811e-18
2.31764e-18
2.663e-18
2.41012e-18
1.76212e-18
2.63879e-18
1.94136e-18
1.63653e-18
8.55928e-19
5.17895e-18
6.60068e-18
3.52914e-18
1.37599e-18
5.72289e-18
2.03397e-18
1.25083e-18
1.77311e-18
2.85106e-18
3.67118e-18
3.10802e-18
3.8157e-18
3.99367e-18
1.69937e-18
2.76879e-18
2.09061e-18
1.73105e-18
1.23225e-18
4.89465e-18
1.35325e-18
1.45056e-18
2.33832e-18
2.60228e-18
4.05328e-18
2.1093e-18
3.35957e-18
1.79377e-18
3.24425e-18
2.87115e-18
3.81016e-18
2.6316e-18
2.11564e-18
1.86476e-18
2.95691e-18
4.46381e-18
2.2576e-18
3.11076e-18
2.96034e-18
2.93811e-18
2.28653e-18
1.28088e-18
5.2315e-18
2.44823e-18
2.63012e-18
2.87933e-18
2.11084e-18
2.64049e-18
1.91872e-18
1.6447e-18
2.29194e-18
1.32949e-18
7.44578e-19
2.42182e-18
1.9441e-18
2.06967e-18
1.41262e-18
3.41396e-18
1.05018e-17
2.09894e-17
1.05526e-17
3.75931e-18
3.76836e-18
3.14809e-18
4.91472e-18
2.75322e-17
7.62087e-17
3.59001e-17
1.21816e-17
5.41145e-18
2.98871e-18
2.21367e-18
2.34237e-18
4.57539e-18
1.03942e-17
9.66758e-18
4.97832e-18
2.69006e-18
2.25524e-18
2.25525e-18
1.80383e-18
1.38604e-18
1.53729e-18
1.66919e-18
1.46169e-18
1.57684e-18
2.4427e-18
2.75591e-18
1.70207e-18
8.83617e-19
4.68478e-19
5.00323e-19
7.82604e-19
1.52671e-18
2.4522e-18
2.96551e-18
1.59986e-18
2.61042e-18
1.96787e-18
2.01939e-18
2.14485e-18
5.52092e-18
5.94678e-18
1.51334e-18
1.61961e-18
2.28546e-18
2.47261e-18
1.22357e-18
1.53872e-18
1.07816e-18
9.63907e-19
2.07937e-18
2.21243e-18
1.15381e-18
4.81543e-18
8.42068e-18
3.34677e-17
6.21168e-17
4.93448e-17
1.39043e-17
4.29996e-18
3.53048e-18
3.04682e-18
2.47188e-18
2.22682e-18
1.34247e-18
1.42805e-18
5.42645e-18
1.53568e-17
6.86926e-18
1.44906e-18
7.52594e-19
9.83001e-19
2.13892e-18
3.13601e-18
9.74611e-19
9.6885e-19
5.37916e-18
1.14083e-17
3.42963e-18
2.47525e-18
3.08949e-18
1.42882e-18
9.13221e-19
1.10616e-18
3.11232e-18
6.68678e-18
3.4459e-18
1.76584e-18
2.20134e-18
3.21838e-18
5.03276e-18
7.27865e-18
5.8671e-18
3.02052e-18
1.53304e-18
9.60652e-19
9.0504e-19
1.0266e-18
5.15896e-19
7.72519e-19
1.24345e-18
1.21084e-18
4.64291e-19
1.27274e-18
2.4263e-18
2.37305e-18
4.01275e-18
2.8081e-17
1.83936e-16
1.45983e-16
4.56752e-17
1.28449e-17
4.7573e-18
3.21023e-18
2.08781e-18
1.7374e-18
1.4897e-18
1.40768e-18
1.35578e-18
1.34862e-18
2.10018e-18
4.00733e-18
6.05949e-18
4.8267e-18
1.84195e-18
6.31558e-19
5.9975e-19
6.78622e-19
6.90764e-19
9.11531e-19
3.4192e-18
3.30623e-17
5.65162e-17
1.62512e-17
5.30772e-18
4.72202e-18
4.79798e-18
3.16581e-18
2.25298e-18
2.41899e-18
2.16184e-18
2.0753e-18
2.44864e-18
2.19042e-18
1.84476e-18
2.44283e-18
2.76276e-18
1.57868e-18
1.33336e-18
2.29873e-18
2.17794e-18
2.5398e-18
3.62454e-18
4.08616e-18
4.33114e-18
4.09301e-18
3.01067e-18
2.37625e-18
1.56048e-18
1.20863e-18
1.26282e-18
1.9828e-18
2.16367e-18
1.53726e-18
1.29679e-18
1.45664e-18
1.3777e-18
1.31374e-18
1.25983e-18
1.52649e-18
1.73345e-18
2.12902e-18
4.77627e-18
4.7313e-18
3.75121e-18
4.29463e-18
2.1407e-18
1.17206e-18
1.27084e-18
1.13147e-18
1.43929e-18
1.31223e-18
1.86767e-18
1.38953e-18
1.70816e-18
2.32438e-18
1.36669e-18
1.82183e-18
3.48305e-18
8.61711e-19
3.62718e-18
2.16985e-18
9.89974e-19
2.61904e-18
1.83179e-18
1.3707e-18
1.97349e-18
3.35497e-18
1.54323e-18
2.48491e-18
3.60652e-18
2.0271e-18
1.91449e-18
5.70146e-18
1.58523e-18
3.88368e-18
1.98231e-18
5.3619e-18
1.0499e-18
8.37914e-19
2.77829e-18
1.05021e-18
3.69681e-18
1.10344e-18
2.3146e-18
3.7622e-18
1.57281e-18
3.93691e-18
6.16556e-18
3.38612e-18
2.17208e-18
4.22049e-18
6.86203e-18
3.22471e-18
6.3249e-18
4.14408e-18
2.14758e-18
4.06686e-18
2.55626e-18
2.73324e-18
1.76427e-18
1.36862e-18
1.51472e-18
2.05276e-18
2.47997e-18
2.75475e-18
6.45435e-18
2.73034e-18
2.38328e-18
3.32929e-18
3.13055e-18
3.32201e-18
1.34967e-18
2.09691e-18
2.71049e-18
1.79271e-18
1.79682e-18
2.26298e-18
2.90078e-18
2.81207e-18
2.81201e-18
2.54633e-18
6.50054e-18
1.90131e-18
1.51835e-18
1.62044e-18
3.35899e-18
6.32069e-18
2.75023e-18
1.68687e-18
1.82335e-18
2.50124e-18
3.18999e-18
3.37671e-18
5.52163e-18
4.33038e-18
6.31209e-18
1.92761e-18
2.06192e-18
2.47147e-18
4.16768e-18
1.5506e-18
1.86779e-18
3.91236e-18
1.61867e-18
1.41457e-18
9.97059e-19
2.25976e-18
1.08532e-18
3.44652e-18
2.89433e-18
1.08779e-18
1.66482e-18
2.88197e-18
2.96654e-18
4.0366e-18
5.60834e-18
2.81214e-18
3.6146e-18
4.12924e-18
3.98405e-18
1.72204e-18
2.96707e-18
2.14873e-18
3.86915e-18
4.02902e-18
1.94311e-18
1.54864e-18
3.50825e-18
1.97871e-18
1.21881e-18
2.18335e-18
1.09466e-18
9.73859e-19
1.91404e-18
2.37394e-18
2.31008e-18
1.79607e-18
1.75801e-18
3.04425e-18
1.86888e-18
2.71935e-18
4.04032e-18
2.96941e-18
2.59269e-18
1.69312e-18
2.48833e-18
3.86122e-18
2.28954e-18
2.39077e-18
1.91132e-18
1.3133e-18
2.40021e-18
2.01612e-18
2.44351e-18
3.08973e-18
2.80442e-18
2.25838e-18
1.64511e-18
1.7328e-18
2.25791e-18
1.84028e-18
1.5902e-18
1.66426e-18
1.46235e-18
2.08387e-18
2.31259e-18
1.48557e-18
1.91991e-18
3.79239e-18
4.14299e-18
2.40322e-18
2.23943e-18
1.98882e-18
2.49657e-18
2.78718e-18
1.93736e-18
2.01934e-18
3.65305e-18
6.52762e-18
2.89798e-18
2.8984e-18
4.14682e-18
2.47458e-18
2.33701e-18
2.37216e-18
2.07514e-18
1.80869e-18
2.99163e-18
1.94566e-18
2.33482e-18
5.57742e-18
5.06866e-18
1.58796e-18
2.77414e-18
2.43699e-18
1.88592e-18
1.75309e-18
1.36852e-18
2.81916e-18
2.75144e-18
2.4542e-18
2.25681e-18
2.22538e-18
2.18977e-18
2.11108e-18
3.37948e-18
5.28118e-18
4.49778e-18
3.33458e-18
2.5772e-18
1.54487e-18
8.25852e-19
1.82968e-18
3.61817e-18
3.33415e-18
1.70297e-18
1.8005e-18
1.42234e-18
9.54734e-19
1.20032e-18
1.96169e-18
1.63368e-18
2.37734e-18
3.1859e-18
5.79162e-18
1.66141e-17
8.22153e-17
3.82058e-17
5.40253e-18
2.26104e-18
3.39447e-18
5.40443e-18
1.04603e-17
1.62125e-17
1.41189e-17
7.69069e-18
3.88412e-18
2.75212e-18
2.24001e-18
2.28337e-18
3.05843e-18
3.8838e-18
3.47113e-18
2.5036e-18
1.78609e-18
1.67023e-18
1.76667e-18
1.4498e-18
1.10132e-18
1.11468e-18
1.27672e-18
1.22202e-18
1.22888e-18
1.54575e-18
1.70183e-18
1.24124e-18
7.43868e-19
6.3546e-19
8.79407e-19
1.36016e-18
1.86716e-18
2.15081e-18
2.27809e-18
1.61019e-18
1.68602e-18
2.61204e-18
1.93015e-18
1.39962e-18
2.15671e-18
2.98537e-18
1.32702e-18
1.54854e-18
2.44945e-18
1.40788e-18
1.05168e-18
1.26834e-18
2.29289e-18
2.58675e-18
1.81352e-18
2.0482e-18
1.66403e-18
3.47161e-18
5.80128e-18
3.81973e-17
1.78682e-16
7.60355e-17
1.54769e-17
3.58122e-18
2.35146e-18
2.46411e-18
2.394e-18
1.80245e-18
1.49558e-18
1.39644e-18
2.04234e-18
3.78728e-18
3.4503e-18
1.5065e-18
9.21477e-19
1.05895e-18
1.52435e-18
2.05268e-18
1.6114e-18
1.29858e-18
2.25954e-18
3.89166e-18
2.78447e-18
1.57674e-18
2.23926e-18
2.99081e-18
2.06017e-18
1.77167e-18
1.92764e-18
3.49751e-18
5.90267e-18
3.41446e-18
2.99671e-18
3.90032e-18
4.96474e-18
4.63559e-18
2.95255e-18
1.42278e-18
1.06996e-18
1.15217e-18
1.07482e-18
1.14031e-18
1.18355e-18
1.14296e-18
8.71306e-19
5.85353e-19
8.32536e-19
3.49396e-18
1.7058e-17
1.20631e-17
6.78876e-18
4.28058e-17
1.48009e-16
9.08486e-17
2.28256e-17
6.4766e-18
2.81269e-18
1.97251e-18
1.72489e-18
1.59622e-18
1.50797e-18
1.31954e-18
1.27182e-18
1.47553e-18
1.81377e-18
2.22944e-18
2.71548e-18
2.44446e-18
1.38402e-18
7.82131e-19
8.86965e-19
1.23351e-18
1.18389e-18
1.33656e-18
3.72726e-18
1.91825e-17
2.5139e-17
1.08426e-17
3.59352e-18
2.22159e-18
2.22969e-18
2.06783e-18
1.65402e-18
1.64729e-18
2.07004e-18
1.83315e-18
1.44196e-18
1.27626e-18
1.09124e-18
1.14607e-18
1.5501e-18
1.65544e-18
1.47178e-18
1.58352e-18
1.60067e-18
1.82809e-18
2.65171e-18
3.09096e-18
3.07864e-18
3.61882e-18
3.58017e-18
2.01665e-18
1.10153e-18
1.13664e-18
1.57483e-18
2.40413e-18
2.89824e-18
1.90014e-18
1.23583e-18
1.4941e-18
2.06226e-18
1.73898e-18
9.18226e-19
9.29176e-19
1.56299e-18
2.70333e-18
3.38556e-18
3.48984e-18
1.74915e-18
1.47651e-18
1.84931e-18
1.30354e-18
1.19082e-18
1.80393e-18
2.40678e-18
2.38021e-18
2.30961e-18
2.46116e-18
2.1732e-18
1.87701e-18
1.21437e-18
1.10082e-18
1.87528e-18
1.25297e-18
1.48175e-18
2.09535e-18
2.6174e-18
1.70255e-18
1.18232e-18
2.14729e-18
2.41011e-18
2.63729e-18
1.96694e-18
1.36183e-18
2.94781e-18
3.03104e-18
2.28357e-18
3.37041e-18
2.87739e-18
1.74244e-18
4.22971e-18
3.98584e-18
2.56287e-18
4.90688e-18
4.30715e-18
4.61997e-18
5.10356e-18
5.4436e-18
5.0475e-18
3.52302e-18
5.37606e-18
3.49574e-18
4.73534e-18
2.10767e-18
2.34974e-18
2.55875e-18
2.06894e-18
6.29433e-18
3.58807e-18
4.87442e-18
4.0176e-18
3.23325e-18
3.32934e-18
1.81347e-18
6.34262e-18
1.75422e-18
3.08129e-18
5.78752e-18
1.45866e-18
2.07565e-18
3.31787e-18
1.85656e-18
7.34611e-19
1.52405e-18
2.08443e-18
3.19418e-18
3.98864e-18
4.58611e-18
3.10155e-18
3.55558e-18
9.43062e-19
2.31999e-18
6.13538e-18
6.24803e-18
3.52274e-18
3.04419e-18
3.29694e-18
4.02214e-18
2.73884e-18
2.84058e-18
2.01541e-18
2.53014e-18
2.05244e-18
5.34415e-18
3.81055e-18
1.15626e-18
3.4023e-18
2.71734e-18
1.90856e-18
1.73896e-18
2.58008e-18
2.4126e-18
4.09159e-18
2.99243e-18
5.06315e-18
2.39795e-18
1.91471e-18
2.33839e-18
2.83884e-18
2.69755e-18
2.50886e-18
3.54976e-18
3.3514e-18
1.03713e-18
1.35146e-18
2.00336e-18
3.87009e-18
6.38217e-18
4.04963e-18
1.7542e-18
3.46043e-18
2.21917e-18
1.02395e-18
4.55539e-18
3.62751e-18
2.65697e-18
2.19458e-18
5.14799e-18
5.30902e-18
4.7145e-18
5.25739e-18
2.66133e-18
5.22146e-18
1.89648e-18
3.5342e-18
2.56712e-18
2.24861e-18
1.81334e-18
3.78235e-18
1.55833e-18
1.63163e-18
2.7449e-18
5.4011e-18
2.61535e-18
3.40732e-18
3.78789e-18
2.96259e-18
4.15919e-18
4.34904e-18
3.02879e-18
2.42319e-18
2.6775e-18
2.82323e-18
1.91614e-18
3.4329e-18
2.46997e-18
1.74522e-18
2.09362e-18
2.97494e-18
3.19507e-18
4.34004e-18
3.86012e-18
2.08397e-18
2.04013e-18
2.06685e-18
2.75573e-18
1.30221e-18
2.84877e-18
3.61305e-18
3.55864e-18
2.1595e-18
1.78258e-18
2.25785e-18
2.08077e-18
3.09399e-18
2.40166e-18
2.66905e-18
2.87887e-18
1.68042e-18
2.46276e-18
2.31398e-18
2.00059e-18
2.23585e-18
2.88474e-18
1.16469e-18
2.03487e-18
3.35806e-18
3.45508e-18
4.30731e-18
2.78657e-18
1.79616e-18
1.50589e-18
3.57067e-18
2.10842e-18
2.14553e-18
1.53701e-18
1.65582e-18
2.23516e-18
2.3178e-18
4.16308e-18
3.51142e-18
1.78374e-18
2.60902e-18
2.79485e-18
3.04485e-18
3.31598e-18
2.80875e-18
1.62718e-18
2.18183e-18
3.28319e-18
5.06068e-18
5.76643e-18
5.9489e-18
3.57002e-18
1.76649e-18
2.26556e-18
3.27056e-18
2.56593e-18
2.60243e-18
2.59089e-18
1.50953e-18
1.35871e-18
2.07739e-18
2.14003e-18
8.62038e-19
8.73372e-19
1.9925e-18
2.75958e-18
3.71587e-18
5.06658e-18
2.4798e-17
1.12302e-16
4.35624e-17
6.4076e-18
2.08733e-18
3.0239e-18
4.26838e-18
4.75259e-18
4.35049e-18
4.07828e-18
3.75839e-18
3.49598e-18
3.18903e-18
2.60265e-18
2.19115e-18
1.88074e-18
2.3239e-18
2.73977e-18
2.55009e-18
2.0585e-18
1.87276e-18
1.80783e-18
1.64847e-18
1.28715e-18
1.26602e-18
1.73009e-18
2.00201e-18
1.75797e-18
1.50218e-18
1.27943e-18
1.07819e-18
9.12085e-19
9.85992e-19
1.41886e-18
1.98338e-18
2.27158e-18
2.35388e-18
2.22881e-18
1.83747e-18
1.42922e-18
1.27129e-18
1.28264e-18
1.25164e-18
1.53898e-18
1.56799e-18
8.92689e-19
8.51432e-19
1.20446e-18
1.23811e-18
1.39904e-18
1.54633e-18
1.17589e-18
1.1556e-18
1.11154e-18
9.57842e-19
1.78156e-18
2.8727e-18
5.51329e-18
3.08517e-17
1.4623e-16
1.13675e-16
1.61882e-17
3.54351e-18
1.809e-18
1.78524e-18
1.92988e-18
1.68919e-18
1.51992e-18
1.65035e-18
2.15166e-18
3.01274e-18
3.23958e-18
2.16994e-18
1.19978e-18
1.14434e-18
1.57685e-18
2.21636e-18
2.24867e-18
1.70085e-18
1.38201e-18
2.15571e-18
3.43951e-18
3.53737e-18
4.10787e-18
5.41011e-18
3.28037e-18
1.15173e-18
7.90637e-19
1.4651e-18
3.77796e-18
5.5365e-18
3.5992e-18
2.96518e-18
2.73258e-18
2.29762e-18
1.80364e-18
1.55523e-18
1.65224e-18
1.44726e-18
1.10386e-18
1.05527e-18
1.481e-18
1.58811e-18
9.34898e-19
6.20009e-19
9.8398e-19
3.60236e-18
2.36305e-17
6.64073e-17
2.18943e-17
7.04199e-18
1.05933e-17
1.35202e-17
9.21427e-18
4.35676e-18
1.85253e-18
1.47066e-18
1.7066e-18
1.84342e-18
1.82734e-18
1.69983e-18
1.58853e-18
1.67828e-18
1.81619e-18
1.78706e-18
1.79444e-18
1.93088e-18
1.79825e-18
1.46657e-18
1.31256e-18
1.1441e-18
1.08175e-18
1.66063e-18
3.77628e-18
9.14547e-18
8.98037e-18
4.13279e-18
2.13328e-18
1.64607e-18
1.41117e-18
1.40013e-18
1.50391e-18
1.72601e-18
1.7613e-18
1.75604e-18
1.72845e-18
1.7406e-18
2.25038e-18
2.50958e-18
2.63384e-18
2.89577e-18
3.19934e-18
2.3583e-18
1.53721e-18
1.38785e-18
1.50721e-18
2.10046e-18
3.07546e-18
3.70937e-18
2.56036e-18
1.68245e-18
1.26757e-18
1.09557e-18
1.1281e-18
1.1988e-18
1.26845e-18
1.58097e-18
1.58506e-18
1.64503e-18
1.66201e-18
1.71218e-18
1.91658e-18
2.38624e-18
2.17901e-18
1.99597e-18
2.04254e-18
1.91951e-18
2.50253e-18
1.73728e-18
1.33e-18
1.51246e-18
1.23226e-18
1.4972e-18
1.87115e-18
1.47935e-18
1.60442e-18
1.63193e-18
1.80195e-18
2.03667e-18
1.27704e-18
7.85174e-19
1.32251e-18
2.38408e-18
2.17132e-18
7.97154e-19
2.68593e-18
3.97619e-18
2.36832e-18
1.33323e-18
1.54019e-18
2.40962e-18
1.48168e-18
2.87624e-18
2.03903e-18
1.28034e-18
1.01047e-18
2.08561e-18
1.68257e-18
1.63439e-18
1.71334e-18
2.7827e-18
4.14531e-18
5.11492e-18
3.61527e-18
3.88977e-18
5.06064e-18
2.80409e-18
2.49143e-18
2.34814e-18
1.51195e-18
3.45634e-18
2.88029e-18
1.55686e-18
1.74598e-18
5.91431e-19
4.68281e-18
7.49183e-18
2.0125e-18
1.36985e-18
4.1672e-18
3.94387e-18
5.83727e-18
6.72293e-18
2.27097e-18
1.85865e-18
1.21949e-18
2.00027e-18
2.06526e-18
1.13062e-18
3.54344e-18
5.3888e-18
2.72385e-18
3.63944e-18
3.06094e-18
1.50282e-18
2.56632e-18
4.41708e-18
3.0611e-18
1.29912e-18
2.10573e-18
3.14558e-18
5.22893e-18
3.46389e-18
2.32244e-18
4.17599e-18
2.20723e-18
1.70135e-18
1.9562e-18
2.95627e-18
2.15159e-18
4.03022e-18
7.20924e-18
3.02983e-18
3.27775e-18
3.26016e-18
2.55629e-18
1.85112e-18
2.73969e-18
3.23019e-18
1.83289e-18
2.87264e-18
2.86984e-18
1.67744e-18
2.36256e-18
2.32646e-18
2.28951e-18
1.4046e-18
1.68028e-18
3.5796e-18
3.05654e-18
3.74308e-18
2.42263e-18
3.17017e-18
1.88299e-18
1.7712e-18
3.31219e-18
2.95589e-18
4.42037e-18
4.63544e-18
2.55766e-18
2.95196e-18
2.90701e-18
5.93217e-18
1.70967e-18
2.15627e-18
2.67946e-18
2.23975e-18
2.9868e-18
3.98484e-18
2.51227e-18
2.6086e-18
2.62984e-18
2.70842e-18
2.26188e-18
2.00746e-18
2.71052e-18
2.65986e-18
2.17614e-18
3.42491e-18
3.05899e-18
2.11979e-18
1.83217e-18
3.94673e-18
4.99922e-18
3.43037e-18
1.68099e-18
4.44567e-18
3.81926e-18
3.84606e-18
3.36924e-18
2.16524e-18
2.54958e-18
2.61628e-18
2.06797e-18
2.26045e-18
4.29609e-18
5.81067e-18
4.07072e-18
1.38224e-18
1.81462e-18
4.71165e-18
3.03069e-18
2.21546e-18
2.96567e-18
2.34919e-18
2.53368e-18
2.70197e-18
4.40252e-18
3.19066e-18
1.69637e-18
1.81215e-18
2.3059e-18
2.63354e-18
2.14217e-18
3.31987e-18
3.51996e-18
3.08086e-18
2.37131e-18
2.39649e-18
1.56678e-18
2.01588e-18
3.5803e-18
3.40606e-18
3.09271e-18
2.61545e-18
3.52843e-18
2.17444e-18
2.64341e-18
3.09694e-18
1.86412e-18
1.66227e-18
2.51725e-18
2.22574e-18
1.9141e-18
2.27473e-18
3.00793e-18
3.76531e-18
3.41985e-18
3.66834e-18
3.17875e-18
1.53064e-18
1.38668e-18
2.70908e-18
4.19005e-18
4.68119e-18
4.41771e-18
2.47976e-18
1.36517e-18
2.20898e-18
5.34788e-18
5.75503e-18
4.15827e-18
2.82433e-18
1.67108e-18
1.85448e-18
1.93592e-18
1.68651e-18
2.45864e-18
2.37719e-18
2.01916e-18
1.92086e-18
1.85855e-18
1.9585e-18
2.49809e-18
2.62103e-18
1.72178e-18
1.37699e-18
1.68724e-18
6.53761e-18
4.788e-17
4.87846e-17
2.38633e-17
6.12607e-18
1.72571e-18
1.9546e-18
2.64373e-18
2.90907e-18
2.28769e-18
1.71326e-18
1.70724e-18
2.18066e-18
3.11302e-18
3.75198e-18
3.20524e-18
2.93556e-18
2.7085e-18
2.76163e-18
2.66903e-18
2.48082e-18
1.95748e-18
1.64482e-18
1.67703e-18
1.89704e-18
2.39822e-18
3.26878e-18
3.70268e-18
2.80345e-18
1.9214e-18
1.42345e-18
1.38738e-18
1.52715e-18
1.72794e-18
2.0347e-18
2.26958e-18
2.03694e-18
1.92035e-18
1.84846e-18
1.52853e-18
1.24412e-18
1.28415e-18
1.48776e-18
1.71795e-18
1.70831e-18
1.93435e-18
1.71931e-18
1.07775e-18
1.24229e-18
2.18486e-18
1.79043e-18
1.20179e-18
9.08035e-19
9.84646e-19
1.86181e-18
3.1608e-18
3.23483e-18
3.96369e-18
7.43587e-18
3.31917e-17
1.01678e-16
6.02104e-17
1.21462e-17
3.37511e-18
1.7086e-18
1.36862e-18
1.38806e-18
1.39266e-18
1.47852e-18
1.69904e-18
2.06033e-18
2.42209e-18
2.64271e-18
2.3853e-18
1.73514e-18
1.27351e-18
1.16924e-18
1.40667e-18
1.84529e-18
2.00136e-18
1.71056e-18
2.02008e-18
5.75032e-18
1.26721e-17
7.31808e-18
4.21869e-18
2.35487e-18
1.13255e-18
1.02007e-18
1.81562e-18
3.98111e-18
6.02364e-18
4.72898e-18
2.82913e-18
1.90034e-18
1.5326e-18
1.41446e-18
1.4995e-18
1.38629e-18
1.19624e-18
1.28007e-18
1.9569e-18
2.49725e-18
1.66968e-18
9.46236e-19
7.01449e-19
9.38561e-19
2.61054e-18
1.65631e-17
7.35794e-17
5.60933e-17
6.56921e-18
2.96511e-18
3.00221e-18
3.78737e-18
3.01186e-18
2.78021e-18
2.43863e-18
2.33968e-18
2.20138e-18
2.03734e-18
1.61919e-18
1.19561e-18
1.06683e-18
1.29094e-18
1.80635e-18
2.55732e-18
3.41181e-18
3.6958e-18
3.25764e-18
2.28828e-18
1.84509e-18
2.05666e-18
2.89327e-18
4.84085e-18
8.12111e-18
8.94538e-18
5.37726e-18
2.99576e-18
1.91732e-18
1.40053e-18
1.40076e-18
1.77541e-18
2.51614e-18
2.88892e-18
2.33492e-18
1.80737e-18
1.98749e-18
2.44352e-18
2.68861e-18
2.01725e-18
1.7423e-18
2.09242e-18
2.19813e-18
1.57049e-18
1.39062e-18
1.92481e-18
2.76407e-18
3.15426e-18
2.58695e-18
1.60506e-18
1.2405e-18
1.18571e-18
1.20124e-18
1.00935e-18
1.1809e-18
1.72782e-18
2.0235e-18
1.94207e-18
1.58037e-18
1.4953e-18
1.7606e-18
2.03896e-18
1.90537e-18
1.91957e-18
1.88031e-18
1.88754e-18
2.30641e-18
2.9044e-18
3.54863e-18
4.24637e-18
3.69028e-18
2.52462e-18
2.063e-18
1.43381e-18
1.34336e-18
1.52884e-18
1.68679e-18
1.23307e-18
6.02366e-19
7.09474e-19
1.66593e-18
1.32948e-18
1.52296e-18
2.34436e-18
2.60421e-18
2.17725e-18
2.97051e-18
2.90461e-18
1.23952e-18
1.2192e-18
1.95775e-18
3.60798e-18
2.65474e-18
1.94874e-18
2.52295e-18
2.29644e-18
2.92085e-18
1.33975e-18
8.25213e-19
2.14172e-18
2.35261e-18
3.09473e-18
8.13377e-19
4.27549e-18
1.38787e-18
1.23136e-18
4.89577e-18
3.31176e-18
2.02319e-18
3.11426e-18
1.40467e-18
1.64862e-18
8.65536e-19
1.9926e-18
3.62067e-18
1.82706e-18
5.06258e-18
4.28979e-18
4.65062e-18
6.41441e-18
1.97899e-18
2.30022e-18
2.98191e-18
4.64102e-18
4.08158e-18
4.8037e-18
2.36872e-18
1.19314e-18
1.97447e-18
2.0113e-18
9.33832e-19
2.18845e-18
1.60345e-18
6.89372e-18
2.54893e-18
2.51176e-18
2.96909e-18
3.01004e-18
4.33925e-18
2.09835e-18
2.15957e-18
3.17319e-18
4.27318e-18
3.90931e-18
2.43494e-18
2.77199e-18
1.78221e-18
1.98542e-18
2.8806e-18
2.83415e-18
2.41768e-18
2.62557e-18
3.43747e-18
6.69238e-18
3.99806e-18
1.9639e-18
3.10548e-18
3.47813e-18
2.20022e-18
3.08566e-18
3.3638e-18
2.55988e-18
1.95847e-18
2.61946e-18
2.20097e-18
1.748e-18
3.64502e-18
1.92313e-18
2.89232e-18
6.02099e-18
3.92625e-18
2.73448e-18
3.91342e-18
5.90122e-18
3.2325e-18
4.09531e-18
4.11505e-18
2.22483e-18
2.80151e-18
5.37817e-18
3.46674e-18
2.41983e-18
1.94917e-18
2.02906e-18
3.20231e-18
3.48835e-18
2.39387e-18
2.49763e-18
3.80037e-18
4.17591e-18
3.70032e-18
5.83694e-18
4.7387e-18
2.99849e-18
1.86723e-18
3.19015e-18
5.08608e-18
2.66914e-18
2.1046e-18
2.51292e-18
1.30145e-18
1.54067e-18
2.7209e-18
1.41213e-18
1.72384e-18
2.48811e-18
4.24554e-18
4.68337e-18
2.21085e-18
1.73674e-18
1.50616e-18
2.51859e-18
3.98577e-18
4.03878e-18
2.44092e-18
1.5105e-18
1.67685e-18
2.7686e-18
2.26732e-18
1.52741e-18
1.46399e-18
1.72065e-18
3.98104e-18
4.12168e-18
3.20733e-18
4.60875e-18
2.89408e-18
4.61491e-18
4.25273e-18
3.13765e-18
3.56583e-18
3.30925e-18
3.06362e-18
2.98231e-18
3.5441e-18
4.0959e-18
2.52026e-18
1.6267e-18
2.24555e-18
4.30709e-18
2.12209e-18
2.04684e-18
1.97875e-18
2.20642e-18
2.05987e-18
2.13588e-18
3.23329e-18
3.75811e-18
2.35508e-18
2.05824e-18
3.10466e-18
3.57575e-18
2.90805e-18
1.74656e-18
1.88963e-18
2.17387e-18
3.19573e-18
2.60946e-18
2.7797e-18
1.92031e-18
1.74431e-18
2.63572e-18
3.13135e-18
4.84822e-18
5.84636e-18
5.21515e-18
3.17253e-18
3.29418e-18
2.92629e-18
2.65929e-18
2.4887e-18
2.28612e-18
1.45549e-18
1.31456e-18
1.22133e-18
1.19641e-18
2.27867e-18
3.24523e-18
2.52504e-18
1.70471e-18
2.25695e-18
2.20834e-18
2.44233e-18
3.5928e-18
2.93606e-18
1.72305e-18
1.98283e-18
3.14907e-18
1.13001e-17
8.61743e-17
5.98473e-17
2.20664e-17
5.56143e-18
1.52767e-18
1.87448e-18
2.39321e-18
2.83492e-18
2.67102e-18
2.20574e-18
1.83215e-18
1.96206e-18
2.54068e-18
3.4992e-18
4.27497e-18
4.04575e-18
3.6073e-18
3.13677e-18
2.67718e-18
2.27269e-18
1.97675e-18
1.64847e-18
1.68354e-18
2.05188e-18
2.46117e-18
2.78835e-18
3.04125e-18
2.79196e-18
2.24444e-18
1.83755e-18
1.77747e-18
1.92159e-18
2.1649e-18
2.31274e-18
1.99021e-18
1.33587e-18
9.98717e-19
1.03886e-18
1.29864e-18
1.42974e-18
1.36309e-18
1.33966e-18
1.61743e-18
1.97094e-18
2.16381e-18
1.56079e-18
9.25969e-19
1.15665e-18
2.31944e-18
2.90152e-18
1.66635e-18
1.04651e-18
1.21396e-18
1.97965e-18
3.26063e-18
3.2688e-18
3.39581e-18
7.02381e-18
2.3676e-17
3.12529e-17
2.0796e-17
9.5364e-18
4.54812e-18
2.76366e-18
1.89556e-18
1.45474e-18
1.34528e-18
1.60003e-18
2.00366e-18
2.27818e-18
2.27957e-18
2.0173e-18
1.76591e-18
1.49442e-18
1.34439e-18
1.5131e-18
2.20151e-18
3.10027e-18
3.07634e-18
2.51784e-18
3.18598e-18
6.84606e-18
1.58659e-17
1.14431e-17
4.01466e-18
1.7853e-18
1.19774e-18
1.25179e-18
1.75795e-18
2.99552e-18
4.41258e-18
4.79097e-18
2.98644e-18
1.76688e-18
1.56235e-18
1.76835e-18
2.28337e-18
2.3839e-18
2.24544e-18
2.09699e-18
2.02291e-18
1.81551e-18
1.5338e-18
1.38684e-18
1.49804e-18
1.6041e-18
2.58847e-18
8.96316e-18
4.53996e-17
5.0955e-17
9.12831e-18
3.17617e-18
2.81216e-18
2.7314e-18
2.53257e-18
2.10094e-18
2.09788e-18
2.4497e-18
2.48499e-18
2.11745e-18
1.71052e-18
1.37739e-18
1.19892e-18
1.3889e-18
2.05648e-18
3.33953e-18
4.78971e-18
5.72505e-18
5.37134e-18
2.81935e-18
1.6247e-18
1.22732e-18
1.35443e-18
2.04498e-18
3.07054e-18
3.47289e-18
2.78055e-18
2.03839e-18
1.60787e-18
1.39414e-18
1.60596e-18
2.01149e-18
2.26911e-18
2.23215e-18
2.25321e-18
2.03532e-18
1.57361e-18
1.58454e-18
2.02428e-18
2.40302e-18
2.26174e-18
1.97886e-18
1.8193e-18
1.54947e-18
1.28875e-18
1.48754e-18
1.74112e-18
1.67348e-18
1.7159e-18
2.14524e-18
2.25636e-18
1.84106e-18
1.51373e-18
1.58365e-18
1.98855e-18
2.1851e-18
2.1656e-18
2.7266e-18
2.97862e-18
2.35226e-18
1.90734e-18
1.8783e-18
2.07862e-18
2.06836e-18
1.8081e-18
1.63298e-18
2.22401e-18
2.90066e-18
3.37203e-18
4.04765e-18
3.77652e-18
2.47944e-18
1.38e-18
1.26441e-18
1.9101e-18
2.52815e-18
1.69137e-18
1.66188e-18
1.69697e-18
1.52162e-18
1.42981e-18
2.29714e-18
1.63344e-18
1.45693e-18
1.98271e-18
2.43031e-18
2.14651e-18
8.85371e-19
1.21741e-18
1.17361e-18
5.46679e-19
1.06557e-18
1.92151e-18
1.69506e-18
2.27631e-18
2.71883e-18
1.54747e-18
2.25796e-18
1.18742e-18
1.64131e-18
5.61284e-18
5.5793e-18
3.29282e-18
2.20206e-18
2.89847e-18
1.88396e-18
2.00719e-18
2.63501e-18
3.6185e-18
4.20074e-18
8.8565e-18
4.02068e-18
3.31527e-18
2.15702e-18
2.47971e-18
1.78182e-18
3.62254e-18
4.64487e-18
3.62015e-18
2.37817e-18
2.54165e-18
1.70582e-18
2.6133e-18
2.00381e-18
5.42985e-18
8.54805e-18
2.69051e-18
1.92254e-18
2.10833e-18
4.19577e-18
4.59823e-18
2.09972e-18
3.7894e-18
2.44808e-18
4.91127e-18
3.45696e-18
3.54049e-18
1.49006e-18
2.54694e-18
2.16395e-18
5.31704e-18
4.92069e-18
4.21629e-18
2.01214e-18
2.5659e-18
4.2227e-18
3.96202e-18
1.98093e-18
2.0683e-18
2.96707e-18
1.9101e-18
1.6125e-18
2.50824e-18
2.26735e-18
3.9232e-18
5.09779e-18
2.28906e-18
3.26462e-18
4.26293e-18
2.59119e-18
2.38477e-18
3.34259e-18
2.16657e-18
2.02947e-18
1.81668e-18
1.61577e-18
2.46886e-18
4.0796e-18
4.19018e-18