/*--------------------------------*- C++ -*----------------------------------*\
  =========                 |
  \\      /  F ield         | OpenFOAM: The Open Source CFD Toolbox
   \\    /   O peration     | Website:  https://openfoam.org
    \\  /    A nd           | Version:  7
     \\/     M anipulation  |
\*---------------------------------------------------------------------------*/
FoamFile
{
    version     2.0;
    format      ascii;
    class       volScalarField;
    location    "4000";
    object      mu1;
}
// * * * * * * * * * * * * * * * * * * * * * * * * * * * * * * * * * * * * * //

dimensions      [1 -1 -1 0 0 0 0];

internalField   nonuniform List<scalar> 
160000
(
0.000570008
0.000568787
0.000567598
0.00056642
0.00056523
0.000564076
0.000562951
0.000561868
0.000560831
0.000559767
0.000558705
0.000557699
0.000556706
0.000555698
0.000554741
0.000553829
0.000552942
0.000552074
0.000551195
0.000550327
0.000549505
0.000548715
0.00054794
0.000547175
0.000546447
0.000545734
0.000545004
0.000544297
0.000543619
0.000542974
0.000542363
0.000541761
0.00054115
0.000540561
0.000540016
0.000539477
0.000538937
0.000538411
0.000537922
0.000537454
0.000536991
0.00053655
0.000536117
0.000535701
0.000535298
0.000534896
0.000534521
0.00053418
0.000533849
0.000533526
0.000533219
0.000532914
0.000532622
0.000532352
0.000532093
0.000531854
0.000531627
0.000531414
0.000531224
0.000531044
0.000530866
0.000530699
0.000530554
0.000530423
0.000530306
0.000530197
0.000530097
0.00053001
0.000529938
0.000529881
0.000529832
0.000529794
0.000529769
0.000529755
0.000529753
0.000529762
0.000529783
0.000529814
0.000529857
0.000529911
0.000529977
0.000530056
0.000530145
0.000530242
0.000530351
0.000530472
0.000530602
0.000530738
0.000530883
0.000531044
0.000531211
0.000531389
0.000531585
0.00053179
0.000531998
0.000532207
0.000532427
0.00053266
0.000532902
0.000533149
0.000533407
0.000533671
0.000533946
0.00053424
0.000534533
0.000534837
0.000535147
0.000535464
0.000535801
0.000536144
0.000536497
0.000536843
0.000537196
0.000537564
0.000537929
0.000538309
0.000538697
0.000539093
0.000539515
0.000539946
0.000540375
0.000540799
0.000541228
0.000541674
0.000542129
0.000542601
0.000543085
0.000543554
0.000544022
0.000544507
0.000544992
0.000545468
0.000545961
0.000546498
0.000547044
0.00054757
0.000548092
0.000548621
0.000549149
0.000549664
0.000550203
0.000550782
0.000551339
0.000551892
0.000552497
0.0005531
0.000553686
0.000554277
0.000554869
0.000555454
0.000556042
0.000556646
0.000557249
0.00055787
0.000558498
0.000559126
0.000559771
0.000560427
0.000561085
0.000561741
0.000562399
0.000563063
0.00056373
0.000564407
0.000565067
0.000565724
0.000566417
0.000567099
0.000567781
0.000568464
0.000569164
0.000569888
0.000570571
0.000571261
0.000571974
0.00057266
0.000573353
0.000574062
0.000574796
0.000575554
0.000576268
0.00057699
0.000577734
0.000578455
0.000579195
0.000579959
0.000580742
0.000581535
0.000582334
0.000583174
0.000584045
0.000584861
0.000585612
0.000586351
0.000587113
0.000587835
0.000588561
0.000589416
0.0005904
0.000591289
0.000592066
0.000592815
0.000593536
0.000594242
0.00059496
0.000595727
0.000596555
0.000597385
0.000598166
0.000598919
0.00059967
0.000600429
0.000601183
0.000601925
0.000602672
0.000603425
0.000604165
0.000604905
0.000605682
0.000606484
0.000607273
0.00060804
0.000608767
0.000609475
0.000610201
0.000610953
0.000611737
0.000612504
0.000613266
0.000614047
0.000614786
0.000615524
0.000616286
0.000617062
0.000617841
0.000618608
0.00061936
0.000620112
0.000620854
0.000621589
0.000622327
0.000623043
0.000623769
0.000624507
0.000625255
0.000626038
0.00062688
0.000627781
0.000628728
0.000629714
0.000630681
0.000631475
0.000632165
0.000632847
0.00063353
0.000634229
0.000634934
0.000635606
0.000636269
0.000637007
0.000637858
0.000638668
0.000639372
0.000640029
0.000640689
0.000641388
0.00064211
0.000642792
0.000643469
0.000644227
0.000645003
0.000645709
0.0006464
0.000647081
0.000647727
0.000648352
0.000648993
0.000649701
0.000650425
0.000651096
0.000651738
0.000652379
0.000653041
0.000653722
0.000654406
0.000655065
0.00065571
0.000656332
0.000656932
0.00065754
0.000658148
0.000658729
0.000659307
0.000659914
0.000660531
0.000661157
0.000661785
0.000662375
0.000662966
0.00066361
0.000664318
0.000665145
0.000665944
0.000666584
0.000667156
0.000667701
0.000668227
0.00066875
0.000669281
0.000669803
0.00067032
0.000670823
0.000671309
0.000671807
0.000672335
0.000672888
0.000673434
0.000673936
0.000674393
0.000674838
0.000675283
0.000675728
0.000676181
0.000676667
0.000677207
0.000677761
0.000678278
0.00067875
0.000679202
0.000679647
0.00068008
0.000680504
0.000680926
0.000681341
0.000681746
0.000682147
0.000682535
0.000682915
0.000683309
0.000683714
0.000684085
0.00068443
0.000684778
0.000685125
0.000685477
0.000685832
0.000686179
0.000686524
0.000686866
0.000687196
0.00068751
0.000687811
0.000688104
0.000688395
0.000688687
0.000688974
0.000689253
0.000689528
0.000689797
0.000690054
0.0006903
0.000690539
0.000690779
0.000691015
0.000691251
0.00069149
0.000691716
0.000691934
0.00069215
0.00069235
0.000692533
0.00069271
0.000692882
0.000693054
0.000693219
0.000693376
0.000693526
0.000693667
0.000693801
0.000693929
0.000694052
0.000694169
0.000694279
0.000694385
0.000694485
0.000694578
0.000694665
0.000694746
0.000694819
0.000694885
0.000694945
0.000694998
0.000695045
0.000695086
0.000695119
0.000695148
0.000695172
0.000695188
0.000695199
0.000695206
0.000569982
0.000568761
0.000567585
0.000566404
0.000565238
0.000564097
0.000562968
0.000561866
0.00056081
0.000559757
0.000558703
0.000557692
0.000556713
0.000555731
0.000554754
0.00055383
0.000552958
0.000552073
0.000551175
0.00055031
0.000549493
0.000548706
0.000547926
0.000547163
0.000546443
0.000545744
0.000545019
0.0005443
0.000543626
0.000542979
0.000542355
0.00054175
0.000541148
0.000540563
0.000540016
0.000539477
0.000538925
0.00053842
0.000537943
0.000537454
0.000536985
0.000536546
0.000536116
0.000535701
0.0005353
0.000534896
0.000534524
0.000534184
0.000533853
0.000533522
0.000533208
0.000532909
0.000532625
0.000532351
0.000532096
0.00053186
0.000531629
0.000531418
0.000531223
0.000531039
0.000530865
0.000530702
0.000530554
0.000530424
0.000530304
0.000530194
0.000530098
0.000530013
0.000529939
0.000529879
0.00052983
0.000529793
0.000529768
0.000529755
0.000529753
0.000529762
0.000529783
0.000529815
0.000529857
0.000529912
0.000529978
0.000530056
0.000530143
0.00053024
0.000530349
0.000530472
0.000530602
0.000530738
0.000530885
0.000531043
0.000531214
0.000531394
0.000531585
0.000531789
0.000531994
0.000532204
0.000532425
0.000532658
0.000532901
0.000533148
0.000533405
0.000533675
0.000533946
0.000534235
0.000534538
0.000534839
0.000535147
0.000535472
0.000535804
0.000536145
0.000536496
0.000536843
0.000537196
0.000537558
0.000537926
0.000538306
0.000538695
0.000539097
0.000539515
0.000539943
0.000540376
0.000540805
0.000541237
0.000541681
0.000542135
0.000542601
0.000543076
0.000543546
0.000544021
0.000544506
0.000544989
0.000545465
0.000545966
0.000546509
0.000547047
0.00054756
0.000548085
0.000548624
0.000549143
0.000549663
0.000550206
0.000550774
0.00055134
0.000551909
0.000552506
0.000553097
0.000553682
0.000554274
0.000554861
0.000555439
0.000556042
0.000556654
0.000557248
0.000557865
0.000558499
0.00055914
0.000559782
0.000560431
0.00056108
0.000561731
0.000562392
0.000563064
0.000563741
0.000564407
0.000565064
0.000565725
0.000566414
0.000567099
0.000567783
0.000568482
0.000569187
0.000569889
0.000570563
0.000571256
0.000571963
0.000572651
0.000573357
0.000574073
0.000574799
0.000575533
0.000576253
0.000576981
0.000577716
0.000578436
0.00057918
0.000579957
0.000580739
0.000581521
0.000582325
0.0005832
0.000584123
0.000584942
0.000585653
0.000586352
0.000587071
0.000587799
0.000588587
0.000589518
0.000590453
0.000591276
0.000592042
0.000592783
0.000593508
0.00059423
0.000594971
0.000595762
0.000596584
0.000597383
0.000598151
0.000598905
0.000599663
0.00060042
0.00060117
0.000601918
0.000602669
0.000603419
0.000604165
0.000604925
0.000605708
0.000606492
0.000607258
0.000608004
0.000608733
0.000609459
0.000610201
0.000610965
0.000611744
0.000612505
0.000613267
0.000614035
0.000614782
0.000615525
0.000616293
0.000617086
0.000617853
0.000618602
0.000619358
0.000620116
0.000620854
0.000621587
0.000622321
0.000623036
0.000623759
0.0006245
0.000625238
0.000626021
0.000626901
0.000627903
0.000628901
0.0006298
0.000630649
0.000631404
0.000632114
0.000632823
0.000633526
0.000634225
0.000634916
0.000635592
0.000636296
0.000637078
0.000637886
0.000638632
0.000639321
0.000639994
0.000640682
0.000641399
0.000642103
0.000642777
0.000643483
0.000644258
0.000645009
0.000645706
0.000646401
0.000647075
0.000647714
0.000648344
0.000649002
0.000649718
0.000650429
0.000651087
0.000651729
0.000652383
0.000653053
0.000653737
0.000654417
0.000655072
0.000655705
0.000656319
0.000656924
0.000657532
0.00065813
0.000658712
0.000659303
0.000659914
0.00066053
0.00066116
0.000661791
0.000662381
0.000662966
0.000663637
0.000664473
0.000665281
0.000665957
0.00066657
0.000667133
0.000667678
0.000668216
0.000668745
0.000669269
0.000669787
0.000670299
0.000670803
0.000671306
0.000671822
0.000672358
0.000672903
0.000673425
0.00067391
0.00067437
0.000674824
0.000675274
0.000675723
0.000676188
0.000676704
0.000677268
0.000677795
0.000678271
0.000678731
0.00067919
0.000679639
0.000680073
0.0006805
0.000680924
0.000681337
0.000681746
0.000682147
0.000682538
0.000682925
0.000683318
0.000683704
0.000684069
0.000684425
0.000684777
0.000685125
0.000685479
0.000685834
0.000686184
0.00068653
0.000686867
0.000687191
0.000687503
0.000687804
0.0006881
0.000688395
0.00068869
0.000688975
0.000689252
0.000689525
0.000689792
0.000690049
0.000690296
0.000690538
0.000690778
0.000691016
0.000691256
0.000691495
0.000691721
0.000691941
0.000692152
0.000692347
0.000692532
0.00069271
0.000692884
0.000693053
0.000693217
0.000693374
0.000693523
0.000693665
0.0006938
0.000693927
0.000694053
0.000694169
0.00069428
0.000694388
0.000694486
0.000694578
0.000694665
0.000694745
0.000694818
0.000694886
0.000694945
0.000694998
0.000695046
0.000695086
0.00069512
0.000695149
0.000695172
0.000695188
0.0006952
0.000695206
0.000570001
0.000568788
0.000567584
0.0005664
0.00056523
0.000564082
0.000562979
0.000561864
0.000560798
0.000559758
0.0005587
0.000557685
0.000556718
0.000555754
0.000554774
0.000553841
0.000552943
0.000552039
0.000551171
0.000550316
0.000549486
0.000548687
0.00054791
0.000547165
0.000546439
0.000545728
0.000545022
0.000544323
0.000543635
0.000542979
0.000542362
0.000541754
0.000541152
0.000540563
0.000540005
0.000539468
0.000538931
0.000538424
0.000537943
0.000537463
0.000536991
0.000536542
0.000536112
0.0005357
0.00053529
0.000534895
0.000534533
0.00053419
0.000533856
0.00053352
0.0005332
0.000532903
0.000532624
0.000532357
0.0005321
0.000531861
0.000531633
0.00053142
0.00053122
0.000531035
0.000530865
0.000530704
0.000530555
0.000530422
0.000530304
0.000530194
0.000530096
0.000530012
0.000529939
0.000529878
0.00052983
0.000529794
0.000529768
0.000529755
0.000529753
0.000529762
0.000529783
0.000529815
0.000529858
0.000529912
0.000529978
0.000530055
0.000530144
0.00053024
0.000530348
0.000530468
0.000530599
0.00053074
0.000530889
0.000531045
0.000531216
0.000531398
0.000531586
0.000531785
0.000531991
0.000532201
0.000532422
0.000532655
0.000532897
0.000533147
0.000533405
0.000533674
0.000533951
0.000534236
0.000534537
0.000534845
0.000535156
0.000535473
0.000535799
0.000536142
0.00053649
0.00053684
0.000537197
0.000537556
0.000537925
0.000538306
0.000538695
0.000539102
0.000539523
0.000539947
0.000540372
0.0005408
0.000541239
0.000541685
0.000542137
0.000542601
0.00054307
0.000543541
0.000544021
0.000544501
0.00054498
0.000545474
0.00054599
0.000546516
0.00054704
0.000547558
0.000548081
0.000548615
0.000549141
0.000549666
0.000550209
0.000550776
0.000551343
0.00055191
0.000552502
0.000553096
0.000553682
0.000554268
0.000554852
0.000555438
0.000556041
0.000556648
0.000557245
0.000557868
0.000558516
0.000559148
0.000559783
0.000560436
0.000561082
0.000561731
0.000562386
0.000563057
0.000563741
0.000564413
0.000565072
0.000565733
0.00056641
0.000567094
0.000567785
0.000568492
0.000569201
0.000569892
0.000570574
0.000571263
0.000571947
0.000572631
0.000573346
0.000574074
0.000574792
0.000575513
0.00057624
0.000576961
0.000577679
0.000578415
0.00057917
0.000579943
0.000580735
0.000581541
0.000582391
0.000583356
0.000584245
0.000584973
0.000585655
0.000586348
0.000587076
0.000587842
0.00058867
0.000589557
0.000590426
0.00059123
0.000591997
0.000592748
0.00059349
0.000594238
0.000595006
0.000595793
0.00059658
0.000597356
0.000598121
0.000598885
0.000599647
0.000600402
0.000601156
0.000601912
0.000602667
0.000603418
0.000604173
0.000604941
0.000605713
0.000606476
0.000607226
0.00060797
0.000608715
0.000609464
0.000610219
0.000610984
0.000611747
0.000612501
0.000613266
0.000614033
0.000614785
0.000615539
0.000616315
0.000617085
0.000617842
0.000618609
0.00061937
0.000620111
0.000620841
0.000621577
0.000622316
0.000623036
0.000623755
0.000624483
0.000625234
0.000626041
0.000626969
0.000628077
0.000629045
0.000629861
0.000630625
0.000631352
0.000632073
0.000632794
0.000633505
0.000634205
0.0006349
0.000635603
0.00063634
0.00063711
0.000637863
0.000638581
0.000639277
0.000639973
0.00064068
0.000641391
0.000642088
0.00064279
0.000643527
0.000644281
0.000645003
0.0006457
0.000646395
0.000647064
0.000647704
0.000648345
0.000649015
0.000649728
0.000650428
0.000651085
0.000651738
0.000652403
0.000653079
0.000653754
0.000654413
0.000655052
0.000655681
0.000656299
0.000656909
0.000657517
0.000658114
0.0006587
0.000659282
0.000659877
0.00066051
0.000661201
0.000661865
0.000662442
0.000663047
0.000663819
0.000664621
0.000665318
0.000665947
0.000666535
0.0006671
0.000667653
0.000668195
0.000668725
0.000669249
0.000669766
0.000670281
0.000670795
0.000671312
0.000671839
0.000672373
0.000672899
0.000673401
0.000673881
0.000674349
0.000674811
0.000675268
0.000675735
0.000676243
0.00067678
0.000677302
0.000677793
0.000678258
0.000678718
0.000679176
0.000679624
0.000680061
0.000680494
0.000680921
0.000681337
0.000681747
0.000682148
0.00068254
0.00068293
0.000683319
0.000683699
0.000684065
0.000684422
0.000684774
0.000685127
0.000685482
0.000685836
0.000686186
0.000686533
0.000686867
0.000687185
0.000687492
0.000687795
0.000688096
0.000688396
0.000688691
0.000688973
0.000689248
0.000689522
0.000689791
0.000690048
0.000690294
0.000690536
0.000690779
0.000691022
0.000691265
0.000691501
0.000691726
0.000691943
0.00069215
0.000692344
0.00069253
0.000692711
0.000692886
0.000693054
0.000693216
0.000693373
0.000693523
0.000693664
0.000693797
0.000693927
0.000694052
0.000694169
0.00069428
0.000694388
0.000694488
0.000694579
0.000694664
0.000694745
0.000694819
0.000694886
0.000694946
0.000694999
0.000695047
0.000695087
0.000695121
0.00069515
0.000695172
0.000695189
0.000695201
0.000695207
0.000570004
0.000568783
0.000567579
0.000566388
0.000565215
0.000564065
0.000562956
0.000561857
0.000560778
0.000559723
0.000558691
0.000557705
0.000556728
0.000555757
0.000554786
0.000553846
0.000552942
0.000552042
0.000551168
0.000550309
0.00054949
0.000548683
0.000547905
0.000547171
0.000546424
0.000545711
0.000545023
0.000544319
0.000543631
0.000542988
0.00054237
0.000541761
0.000541164
0.000540574
0.000540001
0.000539456
0.000538928
0.000538429
0.000537952
0.000537465
0.000536986
0.000536534
0.000536107
0.000535696
0.000535292
0.000534903
0.000534537
0.00053419
0.000533851
0.000533522
0.000533204
0.000532897
0.00053262
0.000532357
0.000532099
0.000531859
0.000531635
0.000531423
0.000531224
0.000531038
0.000530865
0.000530703
0.000530554
0.000530423
0.000530304
0.000530194
0.000530096
0.000530011
0.000529938
0.000529876
0.000529828
0.000529793
0.000529768
0.000529754
0.000529752
0.000529762
0.000529783
0.000529815
0.000529859
0.000529912
0.000529977
0.000530055
0.000530143
0.000530238
0.000530346
0.000530467
0.000530598
0.00053074
0.000530889
0.000531048
0.000531217
0.000531395
0.000531585
0.000531783
0.000531986
0.000532201
0.000532425
0.000532652
0.00053289
0.000533145
0.000533407
0.000533676
0.000533955
0.000534242
0.00053454
0.000534848
0.000535159
0.000535474
0.000535799
0.000536139
0.000536482
0.000536832
0.000537193
0.000537557
0.000537927
0.000538306
0.000538695
0.000539102
0.000539526
0.000539947
0.000540369
0.000540798
0.000541239
0.000541681
0.000542131
0.000542601
0.000543074
0.000543545
0.000544018
0.000544498
0.000544984
0.000545484
0.000545997
0.000546515
0.000547041
0.000547562
0.000548083
0.000548611
0.000549139
0.000549674
0.000550224
0.000550776
0.000551331
0.000551906
0.000552494
0.00055309
0.000553683
0.000554265
0.000554842
0.000555437
0.000556043
0.000556648
0.000557256
0.000557874
0.000558508
0.000559141
0.000559783
0.000560437
0.000561075
0.000561721
0.000562388
0.000563065
0.000563748
0.000564425
0.000565079
0.000565731
0.000566407
0.000567107
0.000567813
0.000568515
0.000569207
0.000569881
0.000570554
0.000571246
0.000571941
0.000572636
0.000573347
0.000574059
0.000574764
0.000575481
0.000576217
0.00057694
0.000577652
0.000578389
0.000579161
0.000579966
0.000580794
0.00058165
0.000582604
0.000583506
0.000584258
0.000584954
0.000585649
0.000586378
0.000587132
0.000587903
0.000588702
0.000589533
0.000590364
0.000591173
0.000591957
0.000592725
0.000593484
0.000594244
0.000595017
0.000595794
0.000596566
0.000597332
0.000598097
0.000598862
0.000599622
0.000600379
0.000601142
0.000601909
0.00060267
0.000603425
0.00060418
0.00060494
0.000605699
0.000606454
0.000607206
0.000607961
0.000608716
0.000609474
0.000610233
0.000610993
0.00061175
0.000612505
0.000613265
0.000614026
0.000614789
0.000615559
0.000616324
0.00061708
0.000617846
0.000618614
0.000619369
0.000620113
0.000620847
0.000621581
0.000622314
0.000623031
0.000623745
0.000624484
0.000625259
0.000626126
0.000627174
0.000628244
0.000629104
0.000629859
0.000630588
0.000631312
0.000632038
0.000632759
0.000633472
0.000634179
0.00063489
0.000635615
0.00063636
0.000637108
0.000637835
0.000638541
0.000639244
0.000639955
0.000640671
0.000641381
0.000642083
0.000642801
0.000643553
0.000644301
0.000645015
0.000645715
0.000646403
0.000647059
0.000647695
0.000648343
0.000649027
0.000649741
0.000650434
0.000651095
0.000651752
0.000652415
0.00065308
0.00065374
0.000654392
0.000655033
0.000655662
0.000656281
0.000656896
0.000657505
0.000658096
0.000658671
0.000659248
0.000659858
0.000660541
0.000661309
0.000661999
0.000662585
0.000663197
0.000663894
0.000664615
0.000665293
0.000665915
0.000666499
0.000667068
0.000667625
0.00066817
0.000668703
0.000669226
0.000669746
0.000670267
0.000670791
0.000671317
0.000671846
0.000672373
0.000672887
0.000673384
0.000673865
0.000674334
0.0006748
0.000675277
0.000675781
0.000676306
0.000676817
0.000677306
0.000677781
0.000678246
0.000678704
0.000679159
0.00067961
0.000680053
0.000680487
0.000680913
0.000681331
0.000681744
0.00068215
0.000682545
0.000682935
0.000683322
0.000683701
0.000684065
0.000684421
0.000684774
0.000685128
0.000685485
0.000685841
0.00068619
0.00068653
0.000686859
0.000687176
0.000687486
0.000687791
0.000688093
0.000688393
0.000688686
0.00068897
0.000689247
0.000689519
0.000689785
0.000690044
0.000690295
0.000690539
0.000690782
0.000691024
0.000691266
0.000691505
0.000691731
0.000691947
0.000692152
0.000692345
0.000692533
0.000692713
0.000692887
0.000693055
0.000693216
0.000693371
0.000693521
0.00069366
0.000693793
0.000693925
0.000694053
0.000694169
0.000694279
0.000694389
0.000694489
0.00069458
0.000694664
0.000694744
0.000694818
0.000694886
0.000694947
0.000695001
0.000695048
0.000695088
0.000695123
0.000695151
0.000695173
0.00069519
0.000695202
0.000695207
0.000570012
0.000568798
0.00056758
0.000566372
0.000565204
0.000564053
0.000562944
0.00056185
0.000560761
0.000559717
0.000558694
0.000557727
0.000556759
0.000555733
0.000554758
0.000553851
0.000552952
0.000552058
0.000551183
0.000550307
0.000549471
0.000548673
0.000547906
0.000547166
0.000546427
0.00054572
0.000545031
0.000544324
0.000543643
0.000542991
0.000542352
0.00054175
0.000541166
0.000540576
0.000539997
0.000539457
0.000538942
0.000538436
0.000537937
0.000537449
0.000536985
0.000536534
0.000536101
0.000535694
0.000535298
0.000534911
0.000534545
0.000534196
0.000533848
0.000533515
0.0005332
0.000532899
0.000532618
0.000532354
0.000532101
0.000531859
0.000531634
0.000531423
0.000531223
0.000531038
0.000530866
0.000530705
0.000530556
0.000530423
0.000530304
0.000530195
0.000530096
0.00053001
0.000529937
0.000529876
0.000529827
0.000529791
0.000529767
0.000529753
0.000529752
0.000529762
0.000529783
0.000529815
0.000529858
0.000529913
0.000529979
0.000530054
0.000530141
0.000530238
0.000530345
0.000530467
0.000530598
0.000530738
0.000530889
0.000531048
0.000531216
0.000531392
0.000531582
0.000531781
0.000531985
0.000532199
0.000532424
0.000532654
0.000532891
0.000533142
0.000533406
0.00053368
0.000533957
0.000534246
0.000534548
0.00053485
0.000535157
0.000535471
0.000535797
0.000536137
0.00053648
0.000536825
0.000537182
0.000537556
0.000537938
0.000538314
0.000538692
0.000539097
0.000539521
0.000539942
0.000540367
0.000540799
0.000541234
0.000541678
0.000542137
0.000542608
0.000543073
0.000543539
0.000544015
0.0005445
0.000544989
0.000545488
0.000546001
0.000546517
0.000547039
0.000547568
0.000548091
0.000548609
0.000549139
0.000549679
0.000550223
0.000550772
0.000551335
0.000551911
0.000552492
0.000553084
0.000553673
0.000554254
0.000554841
0.000555438
0.000556036
0.000556639
0.000557255
0.000557883
0.000558517
0.00055915
0.00055979
0.000560427
0.000561058
0.000561708
0.000562386
0.000563075
0.000563764
0.00056444
0.00056509
0.000565738
0.000566419
0.000567128
0.000567837
0.000568527
0.000569199
0.000569866
0.000570544
0.000571232
0.000571929
0.00057263
0.000573331
0.000574034
0.000574738
0.00057545
0.000576175
0.000576903
0.000577632
0.000578379
0.000579171
0.000580033
0.000581
0.000581902
0.000582721
0.000583505
0.00058423
0.000584933
0.000585658
0.000586411
0.000587171
0.000587931
0.000588706
0.000589503
0.000590314
0.000591126
0.000591922
0.000592703
0.000593478
0.000594249
0.000595018
0.000595786
0.000596551
0.000597311
0.000598069
0.00059883
0.000599593
0.000600362
0.000601138
0.00060191
0.000602669
0.000603419
0.000604171
0.000604928
0.000605689
0.00060645
0.000607209
0.000607964
0.000608718
0.000609477
0.000610237
0.000610992
0.000611745
0.0006125
0.000613261
0.000614027
0.000614795
0.000615564
0.000616322
0.000617078
0.000617855
0.000618633
0.000619382
0.000620115
0.000620845
0.000621583
0.000622323
0.000623048
0.000623769
0.00062453
0.000625372
0.000626352
0.000627376
0.000628274
0.000629069
0.000629818
0.00063055
0.000631277
0.000632001
0.000632721
0.00063344
0.00063416
0.000634885
0.000635618
0.000636356
0.000637088
0.000637806
0.000638513
0.000639221
0.000639936
0.000640655
0.000641367
0.000642074
0.00064281
0.000643594
0.000644348
0.000645049
0.00064573
0.00064639
0.000647035
0.000647683
0.000648355
0.000649056
0.000649759
0.000650439
0.000651098
0.000651754
0.000652412
0.000653073
0.00065373
0.000654375
0.00065501
0.000655641
0.000656272
0.000656892
0.000657491
0.000658071
0.000658644
0.000659235
0.00065989
0.00066065
0.000661443
0.000662092
0.000662671
0.000663277
0.000663933
0.000664606
0.000665258
0.000665882
0.000666474
0.000667045
0.000667604
0.000668149
0.000668682
0.000669204
0.000669724
0.000670249
0.000670779
0.000671315
0.00067185
0.000672375
0.000672883
0.000673373
0.00067385
0.000674325
0.000674806
0.000675304
0.00067582
0.000676333
0.000676827
0.000677305
0.000677773
0.000678232
0.000678688
0.000679145
0.000679601
0.000680048
0.000680481
0.000680907
0.000681329
0.000681748
0.000682156
0.000682551
0.000682939
0.000683324
0.000683698
0.000684061
0.000684419
0.000684777
0.000685135
0.000685493
0.000685844
0.000686187
0.000686522
0.000686849
0.000687168
0.000687478
0.000687786
0.000688091
0.000688392
0.000688685
0.000688968
0.000689245
0.000689518
0.000689784
0.000690043
0.000690293
0.000690538
0.00069078
0.000691022
0.000691265
0.000691506
0.000691738
0.000691954
0.000692157
0.00069235
0.000692535
0.000692715
0.00069289
0.000693058
0.000693217
0.000693368
0.000693516
0.000693658
0.000693792
0.000693924
0.000694051
0.00069417
0.000694282
0.00069439
0.000694489
0.000694579
0.000694663
0.000694744
0.000694819
0.000694887
0.000694947
0.000695002
0.000695049
0.00069509
0.000695123
0.000695152
0.000695175
0.000695192
0.000695203
0.000695208
0.000570017
0.000568823
0.000567612
0.000566382
0.00056521
0.000564048
0.000562917
0.000561825
0.000560766
0.00055974
0.000558709
0.000557722
0.000556737
0.00055573
0.000554768
0.000553829
0.000552928
0.00055206
0.000551197
0.000550336
0.000549489
0.000548672
0.000547894
0.000547161
0.000546434
0.000545709
0.000545016
0.000544332
0.000543664
0.000542997
0.000542345
0.000541743
0.000541156
0.000540578
0.000540006
0.000539458
0.000538939
0.000538431
0.000537931
0.000537446
0.000536982
0.000536533
0.000536104
0.000535697
0.000535298
0.000534911
0.000534545
0.000534195
0.000533853
0.000533517
0.000533194
0.000532899
0.000532621
0.000532352
0.000532099
0.000531861
0.000531634
0.000531421
0.000531224
0.000531039
0.000530866
0.000530708
0.000530558
0.000530422
0.000530303
0.000530193
0.000530094
0.000530009
0.000529936
0.000529874
0.000529826
0.00052979
0.000529765
0.000529752
0.000529751
0.000529761
0.000529783
0.000529815
0.000529858
0.000529912
0.000529978
0.000530054
0.000530141
0.000530237
0.000530346
0.000530466
0.000530596
0.000530737
0.000530889
0.000531049
0.000531214
0.000531389
0.000531581
0.000531782
0.000531985
0.000532199
0.000532422
0.000532652
0.000532897
0.000533147
0.000533403
0.000533674
0.000533959
0.000534257
0.000534554
0.00053485
0.000535151
0.000535463
0.000535793
0.000536138
0.000536484
0.000536827
0.00053718
0.000537552
0.000537935
0.000538314
0.000538694
0.00053909
0.000539509
0.000539939
0.000540367
0.000540799
0.000541233
0.000541677
0.00054214
0.000542604
0.000543067
0.000543538
0.000544018
0.000544504
0.000544995
0.000545497
0.000546006
0.000546512
0.000547028
0.00054757
0.000548105
0.000548624
0.000549146
0.000549678
0.000550217
0.000550765
0.00055133
0.000551912
0.000552495
0.000553075
0.00055366
0.000554251
0.000554844
0.000555435
0.000556031
0.000556639
0.000557261
0.000557894
0.000558528
0.000559155
0.000559776
0.000560406
0.000561049
0.000561712
0.0005624
0.000563094
0.000563771
0.000564437
0.000565103
0.000565769
0.000566446
0.000567142
0.000567839
0.000568518
0.000569187
0.000569852
0.000570528
0.000571226
0.000571928
0.000572619
0.00057331
0.00057401
0.000574709
0.00057542
0.000576141
0.000576855
0.000577575
0.000578343
0.000579224
0.000580288
0.000581244
0.000582024
0.000582778
0.000583499
0.000584206
0.000584928
0.000585669
0.000586424
0.000587182
0.000587939
0.000588706
0.000589489
0.000590288
0.000591095
0.000591896
0.000592687
0.00059347
0.000594243
0.000595007
0.00059577
0.000596531
0.000597289
0.000598047
0.00059881
0.000599579
0.000600353
0.000601128
0.000601896
0.000602653
0.000603405
0.000604159
0.000604919
0.000605687
0.000606456
0.000607216
0.000607965
0.000608714
0.00060947
0.000610231
0.00061099
0.000611744
0.000612499
0.000613262
0.000614032
0.000614801
0.000615557
0.000616309
0.00061708
0.000617872
0.000618647
0.000619386
0.000620116
0.000620862
0.00062162
0.000622366
0.00062309
0.000623836
0.000624671
0.000625568
0.000626479
0.000627381
0.000628228
0.000629021
0.00062978
0.000630517
0.000631242
0.000631963
0.000632687
0.000633415
0.000634146
0.000634878
0.00063561
0.00063634
0.000637062
0.000637776
0.000638488
0.000639206
0.000639927
0.000640641
0.000641355
0.000642087
0.000642864
0.000643651
0.000644377
0.000645058
0.00064572
0.000646371
0.000647023
0.000647689
0.000648375
0.000649073
0.000649764
0.000650433
0.00065109
0.000651746
0.000652406
0.000653065
0.000653719
0.000654364
0.000655003
0.000655636
0.000656261
0.000656873
0.000657468
0.000658051
0.000658639
0.000659267
0.000659991
0.000660796
0.000661507
0.000662116
0.000662709
0.000663325
0.000663965
0.000664611
0.000665243
0.000665859
0.000666453
0.000667025
0.000667582
0.000668126
0.000668657
0.000669182
0.000669707
0.000670238
0.000670774
0.000671315
0.000671854
0.000672377
0.000672879
0.000673368
0.000673849
0.000674332
0.000674823
0.000675327
0.000675835
0.000676335
0.000676822
0.000677296
0.000677761
0.000678222
0.000678681
0.000679139
0.000679594
0.000680043
0.000680478
0.000680904
0.000681327
0.000681747
0.000682157
0.000682555
0.000682944
0.000683324
0.000683695
0.00068406
0.000684423
0.000684781
0.000685136
0.00068549
0.000685841
0.000686183
0.000686516
0.000686841
0.00068716
0.000687475
0.000687784
0.000688089
0.00068839
0.000688684
0.000688968
0.000689245
0.000689518
0.000689785
0.000690042
0.000690292
0.000690537
0.000690781
0.000691024
0.000691268
0.000691511
0.000691742
0.000691957
0.000692158
0.00069235
0.000692537
0.000692717
0.00069289
0.000693058
0.000693217
0.000693368
0.000693514
0.000693656
0.000693792
0.000693923
0.000694051
0.000694171
0.000694283
0.000694389
0.000694489
0.000694579
0.000694663
0.000694745
0.00069482
0.000694887
0.000694949
0.000695003
0.00069505
0.000695091
0.000695124
0.000695153
0.000695176
0.000695193
0.000695204
0.000695209
0.00057002
0.000568815
0.000567616
0.000566416
0.000565234
0.000564055
0.000562909
0.000561813
0.000560748
0.000559715
0.000558706
0.000557717
0.000556713
0.000555714
0.000554759
0.000553834
0.000552936
0.000552055
0.000551199
0.000550356
0.000549496
0.000548676
0.00054791
0.000547172
0.000546441
0.000545708
0.000545006
0.000544322
0.000543654
0.000542993
0.000542346
0.000541734
0.00054115
0.000540579
0.000540015
0.000539467
0.000538932
0.000538418
0.000537928
0.000537455
0.000536988
0.000536534
0.000536104
0.000535697
0.000535295
0.000534908
0.000534545
0.000534192
0.00053385
0.000533519
0.000533197
0.0005329
0.000532622
0.000532351
0.000532097
0.000531861
0.000531635
0.000531422
0.000531225
0.00053104
0.000530868
0.000530709
0.000530558
0.00053042