/*--------------------------------*- C++ -*----------------------------------*\
  =========                 |
  \\      /  F ield         | OpenFOAM: The Open Source CFD Toolbox
   \\    /   O peration     | Website:  https://openfoam.org
    \\  /    A nd           | Version:  7
     \\/     M anipulation  |
\*---------------------------------------------------------------------------*/
FoamFile
{
    version     2.0;
    format      ascii;
    class       volScalarField;
    location    "4000";
    object      mu2;
}
// * * * * * * * * * * * * * * * * * * * * * * * * * * * * * * * * * * * * * //

dimensions      [1 -1 -1 0 0 0 0];

internalField   nonuniform List<scalar> 
160000
(
1.9392e-05
1.93962e-05
1.94003e-05
1.94043e-05
1.94084e-05
1.94123e-05
1.94162e-05
1.942e-05
1.94236e-05
1.94272e-05
1.94309e-05
1.94344e-05
1.94379e-05
1.94414e-05
1.94448e-05
1.9448e-05
1.94511e-05
1.94542e-05
1.94573e-05
1.94603e-05
1.94633e-05
1.94661e-05
1.94688e-05
1.94715e-05
1.94741e-05
1.94767e-05
1.94793e-05
1.94818e-05
1.94843e-05
1.94866e-05
1.94888e-05
1.94909e-05
1.94931e-05
1.94953e-05
1.94972e-05
1.94992e-05
1.95011e-05
1.95031e-05
1.95048e-05
1.95065e-05
1.95082e-05
1.95098e-05
1.95114e-05
1.95129e-05
1.95144e-05
1.95159e-05
1.95172e-05
1.95185e-05
1.95197e-05
1.95209e-05
1.9522e-05
1.95231e-05
1.95242e-05
1.95252e-05
1.95262e-05
1.9527e-05
1.95279e-05
1.95287e-05
1.95294e-05
1.953e-05
1.95307e-05
1.95313e-05
1.95318e-05
1.95323e-05
1.95327e-05
1.95331e-05
1.95335e-05
1.95338e-05
1.95341e-05
1.95343e-05
1.95345e-05
1.95346e-05
1.95347e-05
1.95348e-05
1.95348e-05
1.95348e-05
1.95347e-05
1.95346e-05
1.95344e-05
1.95342e-05
1.9534e-05
1.95337e-05
1.95333e-05
1.9533e-05
1.95326e-05
1.95321e-05
1.95317e-05
1.95311e-05
1.95306e-05
1.953e-05
1.95294e-05
1.95287e-05
1.9528e-05
1.95273e-05
1.95265e-05
1.95257e-05
1.95249e-05
1.95241e-05
1.95232e-05
1.95223e-05
1.95213e-05
1.95204e-05
1.95193e-05
1.95183e-05
1.95172e-05
1.95161e-05
1.95149e-05
1.95138e-05
1.95126e-05
1.95113e-05
1.951e-05
1.95088e-05
1.95075e-05
1.95061e-05
1.95048e-05
1.95034e-05
1.9502e-05
1.95006e-05
1.94991e-05
1.94975e-05
1.94959e-05
1.94944e-05
1.94929e-05
1.94913e-05
1.94896e-05
1.94879e-05
1.94862e-05
1.94845e-05
1.94828e-05
1.94811e-05
1.94793e-05
1.94776e-05
1.94759e-05
1.9474e-05
1.9472e-05
1.94701e-05
1.94683e-05
1.94664e-05
1.94645e-05
1.94627e-05
1.94608e-05
1.94587e-05
1.94568e-05
1.94548e-05
1.94527e-05
1.94506e-05
1.94485e-05
1.94464e-05
1.94443e-05
1.94423e-05
1.94402e-05
1.94381e-05
1.9436e-05
1.94338e-05
1.94317e-05
1.94295e-05
1.94272e-05
1.9425e-05
1.94227e-05
1.94204e-05
1.94181e-05
1.94158e-05
1.94135e-05
1.94112e-05
1.94089e-05
1.94067e-05
1.94043e-05
1.9402e-05
1.93996e-05
1.93973e-05
1.93949e-05
1.93924e-05
1.93901e-05
1.93878e-05
1.93853e-05
1.9383e-05
1.93807e-05
1.93783e-05
1.93758e-05
1.93732e-05
1.93708e-05
1.93684e-05
1.93659e-05
1.93635e-05
1.9361e-05
1.93585e-05
1.93558e-05
1.93532e-05
1.93505e-05
1.93477e-05
1.93449e-05
1.93421e-05
1.93397e-05
1.93372e-05
1.93347e-05
1.93323e-05
1.93299e-05
1.93271e-05
1.93239e-05
1.9321e-05
1.93184e-05
1.9316e-05
1.93136e-05
1.93113e-05
1.9309e-05
1.93065e-05
1.93038e-05
1.93011e-05
1.92986e-05
1.92961e-05
1.92937e-05
1.92913e-05
1.92888e-05
1.92864e-05
1.9284e-05
1.92816e-05
1.92792e-05
1.92769e-05
1.92744e-05
1.92718e-05
1.92693e-05
1.92669e-05
1.92645e-05
1.92623e-05
1.926e-05
1.92576e-05
1.92551e-05
1.92527e-05
1.92503e-05
1.92478e-05
1.92455e-05
1.92432e-05
1.92408e-05
1.92383e-05
1.92359e-05
1.92335e-05
1.92311e-05
1.92288e-05
1.92265e-05
1.92242e-05
1.92219e-05
1.92196e-05
1.92174e-05
1.92151e-05
1.92128e-05
1.92104e-05
1.92078e-05
1.9205e-05
1.9202e-05
1.9199e-05
1.9196e-05
1.91936e-05
1.91915e-05
1.91894e-05
1.91873e-05
1.91852e-05
1.9183e-05
1.9181e-05
1.91789e-05
1.91767e-05
1.91741e-05
1.91716e-05
1.91695e-05
1.91675e-05
1.91655e-05
1.91634e-05
1.91612e-05
1.91591e-05
1.91571e-05
1.91548e-05
1.91525e-05
1.91504e-05
1.91483e-05
1.91462e-05
1.91443e-05
1.91424e-05
1.91405e-05
1.91384e-05
1.91362e-05
1.91342e-05
1.91323e-05
1.91304e-05
1.91284e-05
1.91264e-05
1.91244e-05
1.91224e-05
1.91205e-05
1.91187e-05
1.91169e-05
1.91151e-05
1.91133e-05
1.91116e-05
1.91099e-05
1.91081e-05
1.91063e-05
1.91044e-05
1.91026e-05
1.91008e-05
1.90991e-05
1.90972e-05
1.90951e-05
1.90927e-05
1.90904e-05
1.90885e-05
1.90868e-05
1.90853e-05
1.90837e-05
1.90822e-05
1.90807e-05
1.90791e-05
1.90776e-05
1.90762e-05
1.90748e-05
1.90733e-05
1.90718e-05
1.90702e-05
1.90686e-05
1.90672e-05
1.90658e-05
1.90645e-05
1.90633e-05
1.9062e-05
1.90607e-05
1.90593e-05
1.90577e-05
1.90561e-05
1.90546e-05
1.90533e-05
1.9052e-05
1.90507e-05
1.90495e-05
1.90482e-05
1.9047e-05
1.90458e-05
1.90447e-05
1.90435e-05
1.90424e-05
1.90413e-05
1.90402e-05
1.90391e-05
1.9038e-05
1.9037e-05
1.9036e-05
1.9035e-05
1.9034e-05
1.9033e-05
1.9032e-05
1.90311e-05
1.90301e-05
1.90291e-05
1.90283e-05
1.90274e-05
1.90266e-05
1.90257e-05
1.90249e-05
1.90241e-05
1.90233e-05
1.90225e-05
1.90218e-05
1.9021e-05
1.90203e-05
1.90197e-05
1.9019e-05
1.90183e-05
1.90176e-05
1.9017e-05
1.90163e-05
1.90157e-05
1.90151e-05
1.90145e-05
1.9014e-05
1.90135e-05
1.9013e-05
1.90126e-05
1.90121e-05
1.90116e-05
1.90112e-05
1.90108e-05
1.90104e-05
1.90101e-05
1.90097e-05
1.90094e-05
1.90091e-05
1.90088e-05
1.90085e-05
1.90083e-05
1.9008e-05
1.90078e-05
1.90076e-05
1.90074e-05
1.90072e-05
1.90071e-05
1.90069e-05
1.90068e-05
1.90067e-05
1.90067e-05
1.90066e-05
1.90065e-05
1.90065e-05
1.90065e-05
1.93921e-05
1.93963e-05
1.94003e-05
1.94043e-05
1.94083e-05
1.94123e-05
1.94162e-05
1.942e-05
1.94236e-05
1.94273e-05
1.94309e-05
1.94345e-05
1.94379e-05
1.94413e-05
1.94447e-05
1.9448e-05
1.94511e-05
1.94542e-05
1.94573e-05
1.94604e-05
1.94633e-05
1.94661e-05
1.94689e-05
1.94716e-05
1.94742e-05
1.94766e-05
1.94792e-05
1.94818e-05
1.94842e-05
1.94866e-05
1.94888e-05
1.9491e-05
1.94931e-05
1.94953e-05
1.94972e-05
1.94992e-05
1.95012e-05
1.9503e-05
1.95048e-05
1.95065e-05
1.95082e-05
1.95098e-05
1.95114e-05
1.95129e-05
1.95144e-05
1.95159e-05
1.95172e-05
1.95185e-05
1.95197e-05
1.95209e-05
1.95221e-05
1.95232e-05
1.95242e-05
1.95252e-05
1.95261e-05
1.9527e-05
1.95279e-05
1.95286e-05
1.95294e-05
1.953e-05
1.95307e-05
1.95313e-05
1.95318e-05
1.95323e-05
1.95328e-05
1.95332e-05
1.95335e-05
1.95338e-05
1.95341e-05
1.95343e-05
1.95345e-05
1.95346e-05
1.95347e-05
1.95348e-05
1.95348e-05
1.95348e-05
1.95347e-05
1.95346e-05
1.95344e-05
1.95342e-05
1.9534e-05
1.95337e-05
1.95333e-05
1.9533e-05
1.95326e-05
1.95321e-05
1.95317e-05
1.95311e-05
1.95306e-05
1.953e-05
1.95294e-05
1.95287e-05
1.9528e-05
1.95273e-05
1.95265e-05
1.95257e-05
1.95249e-05
1.95241e-05
1.95232e-05
1.95223e-05
1.95213e-05
1.95203e-05
1.95193e-05
1.95183e-05
1.95172e-05
1.95161e-05
1.95149e-05
1.95138e-05
1.95125e-05
1.95113e-05
1.951e-05
1.95088e-05
1.95075e-05
1.95062e-05
1.95048e-05
1.95034e-05
1.9502e-05
1.95006e-05
1.94991e-05
1.94975e-05
1.94959e-05
1.94944e-05
1.94928e-05
1.94912e-05
1.94896e-05
1.94879e-05
1.94862e-05
1.94845e-05
1.94828e-05
1.94811e-05
1.94793e-05
1.94776e-05
1.94759e-05
1.94739e-05
1.9472e-05
1.94702e-05
1.94683e-05
1.94664e-05
1.94645e-05
1.94627e-05
1.94608e-05
1.94588e-05
1.94568e-05
1.94548e-05
1.94526e-05
1.94506e-05
1.94485e-05
1.94464e-05
1.94444e-05
1.94423e-05
1.94402e-05
1.94381e-05
1.9436e-05
1.94339e-05
1.94317e-05
1.94294e-05
1.94272e-05
1.94249e-05
1.94227e-05
1.94204e-05
1.94182e-05
1.94158e-05
1.94135e-05
1.94112e-05
1.94089e-05
1.94067e-05
1.94043e-05
1.9402e-05
1.93996e-05
1.93972e-05
1.93948e-05
1.93924e-05
1.93901e-05
1.93878e-05
1.93854e-05
1.93831e-05
1.93807e-05
1.93782e-05
1.93758e-05
1.93733e-05
1.93709e-05
1.93684e-05
1.9366e-05
1.93636e-05
1.93611e-05
1.93585e-05
1.93559e-05
1.93532e-05
1.93506e-05
1.93477e-05
1.93446e-05
1.93419e-05
1.93395e-05
1.93372e-05
1.93348e-05
1.93324e-05
1.93298e-05
1.93268e-05
1.93237e-05
1.9321e-05
1.93185e-05
1.93161e-05
1.93137e-05
1.93114e-05
1.93089e-05
1.93064e-05
1.93037e-05
1.93011e-05
1.92986e-05
1.92962e-05
1.92937e-05
1.92913e-05
1.92889e-05
1.92865e-05
1.9284e-05
1.92816e-05
1.92792e-05
1.92768e-05
1.92743e-05
1.92718e-05
1.92694e-05
1.9267e-05
1.92647e-05
1.92623e-05
1.926e-05
1.92576e-05
1.92551e-05
1.92527e-05
1.92503e-05
1.92479e-05
1.92455e-05
1.92432e-05
1.92408e-05
1.92383e-05
1.92359e-05
1.92335e-05
1.92311e-05
1.92288e-05
1.92265e-05
1.92242e-05
1.92219e-05
1.92197e-05
1.92174e-05
1.92151e-05
1.92128e-05
1.92104e-05
1.92077e-05
1.92046e-05
1.92015e-05
1.91987e-05
1.91961e-05
1.91938e-05
1.91916e-05
1.91895e-05
1.91873e-05
1.91852e-05
1.91831e-05
1.9181e-05
1.91789e-05
1.91765e-05
1.9174e-05
1.91717e-05
1.91697e-05
1.91676e-05
1.91655e-05
1.91634e-05
1.91612e-05
1.91592e-05
1.91571e-05
1.91547e-05
1.91525e-05
1.91504e-05
1.91483e-05
1.91463e-05
1.91443e-05
1.91425e-05
1.91405e-05
1.91383e-05
1.91362e-05
1.91343e-05
1.91323e-05
1.91304e-05
1.91284e-05
1.91264e-05
1.91243e-05
1.91224e-05
1.91205e-05
1.91187e-05
1.91169e-05
1.91151e-05
1.91133e-05
1.91116e-05
1.91099e-05
1.91081e-05
1.91063e-05
1.91044e-05
1.91026e-05
1.91008e-05
1.90991e-05
1.90971e-05
1.90947e-05
1.90923e-05
1.90903e-05
1.90886e-05
1.90869e-05
1.90853e-05
1.90838e-05
1.90822e-05
1.90807e-05
1.90792e-05
1.90777e-05
1.90762e-05
1.90748e-05
1.90733e-05
1.90717e-05
1.90701e-05
1.90686e-05
1.90672e-05
1.90659e-05
1.90646e-05
1.90633e-05
1.9062e-05
1.90607e-05
1.90592e-05
1.90575e-05
1.9056e-05
1.90547e-05
1.90533e-05
1.9052e-05
1.90507e-05
1.90495e-05
1.90483e-05
1.9047e-05
1.90459e-05
1.90447e-05
1.90435e-05
1.90424e-05
1.90413e-05
1.90402e-05
1.90391e-05
1.9038e-05
1.9037e-05
1.9036e-05
1.9035e-05
1.9034e-05
1.9033e-05
1.9032e-05
1.9031e-05
1.90301e-05
1.90292e-05
1.90283e-05
1.90274e-05
1.90266e-05
1.90257e-05
1.90249e-05
1.90241e-05
1.90233e-05
1.90225e-05
1.90218e-05
1.9021e-05
1.90203e-05
1.90197e-05
1.9019e-05
1.90183e-05
1.90176e-05
1.9017e-05
1.90163e-05
1.90157e-05
1.90151e-05
1.90146e-05
1.9014e-05
1.90135e-05
1.9013e-05
1.90126e-05
1.90121e-05
1.90117e-05
1.90112e-05
1.90108e-05
1.90105e-05
1.90101e-05
1.90097e-05
1.90094e-05
1.90091e-05
1.90088e-05
1.90085e-05
1.90083e-05
1.9008e-05
1.90078e-05
1.90076e-05
1.90074e-05
1.90072e-05
1.90071e-05
1.90069e-05
1.90068e-05
1.90067e-05
1.90067e-05
1.90066e-05
1.90065e-05
1.90065e-05
1.90065e-05
1.93921e-05
1.93962e-05
1.94003e-05
1.94044e-05
1.94084e-05
1.94123e-05
1.94161e-05
1.942e-05
1.94237e-05
1.94273e-05
1.9431e-05
1.94345e-05
1.94379e-05
1.94412e-05
1.94447e-05
1.94479e-05
1.94511e-05
1.94543e-05
1.94574e-05
1.94604e-05
1.94633e-05
1.94662e-05
1.94689e-05
1.94716e-05
1.94742e-05
1.94767e-05
1.94792e-05
1.94817e-05
1.94842e-05
1.94866e-05
1.94888e-05
1.9491e-05
1.94931e-05
1.94953e-05
1.94973e-05
1.94992e-05
1.95012e-05
1.9503e-05
1.95048e-05
1.95065e-05
1.95082e-05
1.95099e-05
1.95114e-05
1.95129e-05
1.95144e-05
1.95159e-05
1.95172e-05
1.95185e-05
1.95197e-05
1.95209e-05
1.95221e-05
1.95232e-05
1.95242e-05
1.95252e-05
1.95261e-05
1.9527e-05
1.95278e-05
1.95286e-05
1.95294e-05
1.95301e-05
1.95307e-05
1.95313e-05
1.95318e-05
1.95323e-05
1.95328e-05
1.95332e-05
1.95335e-05
1.95338e-05
1.95341e-05
1.95343e-05
1.95345e-05
1.95346e-05
1.95347e-05
1.95348e-05
1.95348e-05
1.95348e-05
1.95347e-05
1.95346e-05
1.95344e-05
1.95342e-05
1.9534e-05
1.95337e-05
1.95333e-05
1.9533e-05
1.95326e-05
1.95321e-05
1.95317e-05
1.95311e-05
1.95306e-05
1.953e-05
1.95294e-05
1.95287e-05
1.9528e-05
1.95273e-05
1.95265e-05
1.95258e-05
1.95249e-05
1.95241e-05
1.95232e-05
1.95223e-05
1.95213e-05
1.95203e-05
1.95193e-05
1.95183e-05
1.95172e-05
1.95161e-05
1.95149e-05
1.95138e-05
1.95126e-05
1.95113e-05
1.951e-05
1.95088e-05
1.95075e-05
1.95062e-05
1.95048e-05
1.95034e-05
1.9502e-05
1.95005e-05
1.9499e-05
1.94975e-05
1.9496e-05
1.94944e-05
1.94928e-05
1.94912e-05
1.94896e-05
1.94879e-05
1.94862e-05
1.94845e-05
1.94828e-05
1.94811e-05
1.94794e-05
1.94776e-05
1.94758e-05
1.94739e-05
1.9472e-05
1.94702e-05
1.94683e-05
1.94664e-05
1.94645e-05
1.94627e-05
1.94608e-05
1.94588e-05
1.94568e-05
1.94548e-05
1.94527e-05
1.94506e-05
1.94485e-05
1.94464e-05
1.94444e-05
1.94423e-05
1.94402e-05
1.94381e-05
1.9436e-05
1.94339e-05
1.94316e-05
1.94294e-05
1.94272e-05
1.94249e-05
1.94227e-05
1.94204e-05
1.94182e-05
1.94159e-05
1.94135e-05
1.94112e-05
1.94089e-05
1.94066e-05
1.94043e-05
1.9402e-05
1.93996e-05
1.93972e-05
1.93948e-05
1.93924e-05
1.93901e-05
1.93878e-05
1.93854e-05
1.93831e-05
1.93807e-05
1.93782e-05
1.93758e-05
1.93734e-05
1.93709e-05
1.93685e-05
1.93661e-05
1.93636e-05
1.93611e-05
1.93585e-05
1.93559e-05
1.93532e-05
1.93503e-05
1.93471e-05
1.93442e-05
1.93418e-05
1.93395e-05
1.93372e-05
1.93348e-05
1.93323e-05
1.93296e-05
1.93266e-05
1.93238e-05
1.93212e-05
1.93186e-05
1.93162e-05
1.93138e-05
1.93113e-05
1.93088e-05
1.93063e-05
1.93037e-05
1.93012e-05
1.92987e-05
1.92962e-05
1.92938e-05
1.92913e-05
1.92889e-05
1.92865e-05
1.9284e-05
1.92816e-05
1.92792e-05
1.92768e-05
1.92743e-05
1.92718e-05
1.92695e-05
1.92671e-05
1.92647e-05
1.92623e-05
1.92599e-05
1.92575e-05
1.92551e-05
1.92527e-05
1.92503e-05
1.92479e-05
1.92455e-05
1.92431e-05
1.92407e-05
1.92383e-05
1.92359e-05
1.92335e-05
1.92311e-05
1.92288e-05
1.92265e-05
1.92242e-05
1.92219e-05
1.92197e-05
1.92174e-05
1.92152e-05
1.92128e-05
1.92103e-05
1.92075e-05
1.92041e-05
1.92011e-05
1.91986e-05
1.91962e-05
1.9194e-05
1.91918e-05
1.91896e-05
1.91874e-05
1.91852e-05
1.91831e-05
1.9181e-05
1.91787e-05
1.91764e-05
1.91741e-05
1.91719e-05
1.91698e-05
1.91677e-05
1.91655e-05
1.91634e-05
1.91613e-05
1.91592e-05
1.91569e-05
1.91547e-05
1.91525e-05
1.91504e-05
1.91483e-05
1.91463e-05
1.91444e-05
1.91424e-05
1.91404e-05
1.91383e-05
1.91362e-05
1.91343e-05
1.91323e-05
1.91303e-05
1.91283e-05
1.91263e-05
1.91244e-05
1.91225e-05
1.91206e-05
1.91188e-05
1.9117e-05
1.91152e-05
1.91134e-05
1.91117e-05
1.91099e-05
1.91082e-05
1.91063e-05
1.91043e-05
1.91023e-05
1.91006e-05
1.90989e-05
1.90966e-05
1.90943e-05
1.90922e-05
1.90904e-05
1.90887e-05
1.9087e-05
1.90854e-05
1.90838e-05
1.90823e-05
1.90807e-05
1.90792e-05
1.90777e-05
1.90763e-05
1.90748e-05
1.90732e-05
1.90717e-05
1.90702e-05
1.90687e-05
1.90673e-05
1.9066e-05
1.90646e-05
1.90633e-05
1.9062e-05
1.90605e-05
1.90589e-05
1.90574e-05
1.9056e-05
1.90547e-05
1.90534e-05
1.90521e-05
1.90508e-05
1.90495e-05
1.90483e-05
1.90471e-05
1.90459e-05
1.90447e-05
1.90435e-05
1.90424e-05
1.90413e-05
1.90402e-05
1.90391e-05
1.90381e-05
1.9037e-05
1.9036e-05
1.9035e-05
1.9034e-05
1.9033e-05
1.9032e-05
1.9031e-05
1.90301e-05
1.90292e-05
1.90283e-05
1.90274e-05
1.90266e-05
1.90257e-05
1.90249e-05
1.90241e-05
1.90233e-05
1.90225e-05
1.90218e-05
1.90211e-05
1.90204e-05
1.90197e-05
1.9019e-05
1.90183e-05
1.90176e-05
1.90169e-05
1.90163e-05
1.90157e-05
1.90151e-05
1.90146e-05
1.9014e-05
1.90135e-05
1.9013e-05
1.90126e-05
1.90121e-05
1.90117e-05
1.90112e-05
1.90108e-05
1.90105e-05
1.90101e-05
1.90097e-05
1.90094e-05
1.90091e-05
1.90088e-05
1.90085e-05
1.90083e-05
1.9008e-05
1.90078e-05
1.90076e-05
1.90074e-05
1.90072e-05
1.90071e-05
1.90069e-05
1.90068e-05
1.90067e-05
1.90067e-05
1.90066e-05
1.90065e-05
1.90065e-05
1.90065e-05
1.9392e-05
1.93962e-05
1.94003e-05
1.94044e-05
1.94084e-05
1.94124e-05
1.94162e-05
1.942e-05
1.94237e-05
1.94274e-05
1.9431e-05
1.94344e-05
1.94378e-05
1.94412e-05
1.94446e-05
1.94479e-05
1.94511e-05
1.94543e-05
1.94574e-05
1.94604e-05
1.94633e-05
1.94662e-05
1.94689e-05
1.94716e-05
1.94742e-05
1.94768e-05
1.94792e-05
1.94817e-05
1.94842e-05
1.94865e-05
1.94887e-05
1.94909e-05
1.94931e-05
1.94952e-05
1.94973e-05
1.94993e-05
1.95012e-05
1.9503e-05
1.95047e-05
1.95065e-05
1.95082e-05
1.95099e-05
1.95114e-05
1.95129e-05
1.95144e-05
1.95158e-05
1.95172e-05
1.95185e-05
1.95197e-05
1.95209e-05
1.95221e-05
1.95232e-05
1.95242e-05
1.95252e-05
1.95261e-05
1.9527e-05
1.95278e-05
1.95286e-05
1.95294e-05
1.953e-05
1.95307e-05
1.95313e-05
1.95318e-05
1.95323e-05
1.95328e-05
1.95332e-05
1.95335e-05
1.95338e-05
1.95341e-05
1.95343e-05
1.95345e-05
1.95346e-05
1.95347e-05
1.95348e-05
1.95348e-05
1.95348e-05
1.95347e-05
1.95346e-05
1.95344e-05
1.95342e-05
1.9534e-05
1.95337e-05
1.95333e-05
1.9533e-05
1.95326e-05
1.95321e-05
1.95317e-05
1.95311e-05
1.95306e-05
1.953e-05
1.95294e-05
1.95287e-05
1.9528e-05
1.95273e-05
1.95265e-05
1.95258e-05
1.95249e-05
1.95241e-05
1.95232e-05
1.95223e-05
1.95213e-05
1.95203e-05
1.95193e-05
1.95183e-05
1.95172e-05
1.9516e-05
1.95149e-05
1.95138e-05
1.95126e-05
1.95113e-05
1.95101e-05
1.95088e-05
1.95075e-05
1.95062e-05
1.95048e-05
1.95034e-05
1.9502e-05
1.95005e-05
1.9499e-05
1.94975e-05
1.9496e-05
1.94944e-05
1.94928e-05
1.94912e-05
1.94896e-05
1.94879e-05
1.94862e-05
1.94845e-05
1.94828e-05
1.94811e-05
1.94794e-05
1.94776e-05
1.94757e-05
1.94739e-05
1.9472e-05
1.94702e-05
1.94683e-05
1.94664e-05
1.94646e-05
1.94627e-05
1.94607e-05
1.94588e-05
1.94568e-05
1.94548e-05
1.94527e-05
1.94506e-05
1.94485e-05
1.94465e-05
1.94444e-05
1.94424e-05
1.94402e-05
1.94381e-05
1.9436e-05
1.94338e-05
1.94316e-05
1.94294e-05
1.94272e-05
1.94249e-05
1.94227e-05
1.94205e-05
1.94182e-05
1.94158e-05
1.94135e-05
1.94111e-05
1.94089e-05
1.94067e-05
1.94043e-05
1.94019e-05
1.93995e-05
1.93971e-05
1.93948e-05
1.93925e-05
1.93902e-05
1.93878e-05
1.93855e-05
1.93831e-05
1.93807e-05
1.93783e-05
1.93759e-05
1.93735e-05
1.9371e-05
1.93686e-05
1.93662e-05
1.93637e-05
1.93611e-05
1.93584e-05
1.93557e-05
1.93528e-05
1.93496e-05
1.93466e-05
1.93441e-05
1.93418e-05
1.93395e-05
1.93371e-05
1.93346e-05
1.93321e-05
1.93295e-05
1.93267e-05
1.9324e-05
1.93213e-05
1.93188e-05
1.93163e-05
1.93138e-05
1.93113e-05
1.93088e-05
1.93063e-05
1.93038e-05
1.93013e-05
1.92988e-05
1.92963e-05
1.92939e-05
1.92914e-05
1.9289e-05
1.92865e-05
1.9284e-05
1.92816e-05
1.92792e-05
1.92768e-05
1.92743e-05
1.92719e-05
1.92695e-05
1.92671e-05
1.92647e-05
1.92623e-05
1.92599e-05
1.92575e-05
1.92551e-05
1.92527e-05
1.92503e-05
1.92479e-05
1.92455e-05
1.92431e-05
1.92407e-05
1.92383e-05
1.92359e-05
1.92335e-05
1.92311e-05
1.92288e-05
1.92265e-05
1.92242e-05
1.92219e-05
1.92197e-05
1.92175e-05
1.92152e-05
1.92128e-05
1.92101e-05
1.92068e-05
1.92035e-05
1.92009e-05
1.91986e-05
1.91963e-05
1.91941e-05
1.91919e-05
1.91897e-05
1.91875e-05
1.91853e-05
1.91831e-05
1.91809e-05
1.91787e-05
1.91764e-05
1.91742e-05
1.9172e-05
1.91699e-05
1.91677e-05
1.91656e-05
1.91634e-05
1.91613e-05
1.91591e-05
1.91568e-05
1.91546e-05
1.91524e-05
1.91503e-05
1.91483e-05
1.91463e-05
1.91444e-05
1.91425e-05
1.91404e-05
1.91383e-05
1.91362e-05
1.91342e-05
1.91323e-05
1.91303e-05
1.91283e-05
1.91264e-05
1.91244e-05
1.91225e-05
1.91206e-05
1.91188e-05
1.9117e-05
1.91152e-05
1.91134e-05
1.91117e-05
1.911e-05
1.91082e-05
1.91062e-05
1.9104e-05
1.91019e-05
1.91002e-05
1.90984e-05
1.90964e-05
1.90943e-05
1.90923e-05
1.90905e-05
1.90888e-05
1.90871e-05
1.90855e-05
1.90839e-05
1.90823e-05
1.90808e-05
1.90793e-05
1.90778e-05
1.90763e-05
1.90747e-05
1.90732e-05
1.90717e-05
1.90702e-05
1.90688e-05
1.90674e-05
1.9066e-05
1.90647e-05
1.90633e-05
1.90618e-05
1.90603e-05
1.90588e-05
1.90574e-05
1.90561e-05
1.90547e-05
1.90534e-05
1.90521e-05
1.90508e-05
1.90495e-05
1.90483e-05
1.90471e-05
1.90459e-05
1.90447e-05
1.90435e-05
1.90424e-05
1.90413e-05
1.90402e-05
1.90391e-05
1.90381e-05
1.9037e-05
1.9036e-05
1.9035e-05
1.9034e-05
1.9033e-05
1.9032e-05
1.9031e-05
1.90301e-05
1.90292e-05
1.90283e-05
1.90275e-05
1.90266e-05
1.90257e-05
1.90249e-05
1.90241e-05
1.90233e-05
1.90226e-05
1.90218e-05
1.90211e-05
1.90204e-05
1.90197e-05
1.9019e-05
1.90183e-05
1.90176e-05
1.90169e-05
1.90163e-05
1.90157e-05
1.90151e-05
1.90146e-05
1.9014e-05
1.90135e-05
1.9013e-05
1.90126e-05
1.90121e-05
1.90117e-05
1.90112e-05
1.90108e-05
1.90105e-05
1.90101e-05
1.90097e-05
1.90094e-05
1.90091e-05
1.90088e-05
1.90085e-05
1.90083e-05
1.9008e-05
1.90078e-05
1.90076e-05
1.90074e-05
1.90072e-05
1.90071e-05
1.90069e-05
1.90068e-05
1.90067e-05
1.90066e-05
1.90066e-05
1.90065e-05
1.90065e-05
1.90065e-05
1.9392e-05
1.93962e-05
1.94003e-05
1.94045e-05
1.94085e-05
1.94124e-05
1.94162e-05
1.942e-05
1.94238e-05
1.94274e-05
1.9431e-05
1.94343e-05
1.94377e-05
1.94413e-05
1.94447e-05
1.94479e-05
1.94511e-05
1.94542e-05
1.94573e-05
1.94604e-05
1.94634e-05
1.94662e-05
1.94689e-05
1.94716e-05
1.94742e-05
1.94767e-05
1.94792e-05
1.94817e-05
1.94842e-05
1.94865e-05
1.94888e-05
1.9491e-05
1.94931e-05
1.94952e-05
1.94973e-05
1.94993e-05
1.95011e-05
1.9503e-05
1.95048e-05
1.95066e-05
1.95082e-05
1.95099e-05
1.95115e-05
1.95129e-05
1.95144e-05
1.95158e-05
1.95172e-05
1.95184e-05
1.95197e-05
1.95209e-05
1.95221e-05
1.95232e-05
1.95242e-05
1.95252e-05
1.95261e-05
1.9527e-05
1.95278e-05
1.95286e-05
1.95294e-05
1.953e-05
1.95307e-05
1.95313e-05
1.95318e-05
1.95323e-05
1.95328e-05
1.95332e-05
1.95335e-05
1.95338e-05
1.95341e-05
1.95343e-05
1.95345e-05
1.95346e-05
1.95347e-05
1.95348e-05
1.95348e-05
1.95348e-05
1.95347e-05
1.95346e-05
1.95344e-05
1.95342e-05
1.9534e-05
1.95337e-05
1.95334e-05
1.9533e-05
1.95326e-05
1.95321e-05
1.95317e-05
1.95311e-05
1.95306e-05
1.953e-05
1.95294e-05
1.95287e-05
1.9528e-05
1.95273e-05
1.95266e-05
1.95258e-05
1.95249e-05
1.95241e-05
1.95232e-05
1.95223e-05
1.95213e-05
1.95203e-05
1.95193e-05
1.95182e-05
1.95171e-05
1.9516e-05
1.95149e-05
1.95138e-05
1.95126e-05
1.95113e-05
1.95101e-05
1.95088e-05
1.95075e-05
1.95062e-05
1.95048e-05
1.95034e-05
1.9502e-05
1.95006e-05
1.9499e-05
1.94975e-05
1.9496e-05
1.94944e-05
1.94928e-05
1.94912e-05
1.94896e-05
1.94879e-05
1.94862e-05
1.94845e-05
1.94828e-05
1.94811e-05
1.94793e-05
1.94776e-05
1.94757e-05
1.94739e-05
1.9472e-05
1.94701e-05
1.94683e-05
1.94664e-05
1.94646e-05
1.94626e-05
1.94607e-05
1.94588e-05
1.94568e-05
1.94547e-05
1.94527e-05
1.94506e-05
1.94485e-05
1.94465e-05
1.94444e-05
1.94423e-05
1.94403e-05
1.94381e-05
1.9436e-05
1.94338e-05
1.94316e-05
1.94294e-05
1.94272e-05
1.9425e-05
1.94228e-05
1.94205e-05
1.94182e-05
1.94158e-05
1.94134e-05
1.94111e-05
1.94089e-05
1.94066e-05
1.94043e-05
1.94019e-05
1.93994e-05
1.93971e-05
1.93948e-05
1.93925e-05
1.93902e-05
1.93879e-05
1.93855e-05
1.93831e-05
1.93807e-05
1.93784e-05
1.9376e-05
1.93736e-05
1.93712e-05
1.93687e-05
1.93663e-05
1.93637e-05
1.93611e-05
1.93582e-05
1.9355e-05
1.9352e-05
1.93492e-05
1.93466e-05
1.93442e-05
1.93419e-05
1.93395e-05
1.9337e-05
1.93345e-05
1.9332e-05
1.93294e-05
1.93268e-05
1.93242e-05
1.93215e-05
1.93189e-05
1.93163e-05
1.93138e-05
1.93113e-05
1.93088e-05
1.93063e-05
1.93038e-05
1.93013e-05
1.92989e-05
1.92964e-05
1.9294e-05
1.92915e-05
1.9289e-05
1.92865e-05
1.9284e-05
1.92816e-05
1.92792e-05
1.92768e-05
1.92744e-05
1.92719e-05
1.92695e-05
1.92671e-05
1.92647e-05
1.92623e-05
1.92599e-05
1.92575e-05
1.92551e-05
1.92527e-05
1.92503e-05
1.92479e-05
1.92455e-05
1.9243e-05
1.92407e-05
1.92383e-05
1.92358e-05
1.92334e-05
1.92311e-05
1.92288e-05
1.92265e-05
1.92242e-05
1.92219e-05
1.92196e-05
1.92174e-05
1.9215e-05
1.92124e-05
1.92094e-05
1.92062e-05
1.92034e-05
1.9201e-05
1.91987e-05
1.91964e-05
1.91942e-05
1.9192e-05
1.91898e-05
1.91876e-05
1.91854e-05
1.91832e-05
1.91809e-05
1.91787e-05
1.91764e-05
1.91743e-05
1.91721e-05
1.917e-05
1.91678e-05
1.91656e-05
1.91635e-05
1.91613e-05
1.91591e-05
1.91567e-05
1.91545e-05
1.91523e-05
1.91503e-05
1.91483e-05
1.91464e-05
1.91444e-05
1.91424e-05
1.91403e-05
1.91382e-05
1.91362e-05
1.91342e-05
1.91323e-05
1.91303e-05
1.91283e-05
1.91264e-05
1.91245e-05
1.91226e-05
1.91207e-05
1.91188e-05
1.9117e-05
1.91152e-05
1.91135e-05
1.91118e-05
1.91101e-05
1.91082e-05
1.91059e-05
1.91036e-05
1.91017e-05
1.91e-05
1.90982e-05
1.90963e-05
1.90943e-05
1.90924e-05
1.90906e-05
1.90888e-05
1.90872e-05
1.90855e-05
1.9084e-05
1.90824e-05
1.90809e-05
1.90794e-05
1.90778e-05
1.90763e-05
1.90747e-05
1.90732e-05
1.90717e-05
1.90702e-05
1.90688e-05
1.90674e-05
1.9066e-05
1.90646e-05
1.90632e-05
1.90617e-05
1.90602e-05
1.90588e-05
1.90574e-05
1.90561e-05
1.90548e-05
1.90535e-05
1.90521e-05
1.90508e-05
1.90496e-05
1.90483e-05
1.90471e-05
1.90459e-05
1.90447e-05
1.90435e-05
1.90424e-05
1.90413e-05
1.90402e-05
1.90391e-05
1.90381e-05
1.90371e-05
1.9036e-05
1.9035e-05
1.9034e-05
1.9033e-05
1.9032e-05
1.90311e-05
1.90301e-05
1.90292e-05
1.90283e-05
1.90275e-05
1.90266e-05
1.90257e-05
1.90249e-05
1.90241e-05
1.90233e-05
1.90226e-05
1.90218e-05
1.90211e-05
1.90204e-05
1.90197e-05
1.9019e-05
1.90183e-05
1.90176e-05
1.90169e-05
1.90163e-05
1.90157e-05
1.90151e-05
1.90145e-05
1.9014e-05
1.90135e-05
1.9013e-05
1.90125e-05
1.90121e-05
1.90117e-05
1.90113e-05
1.90109e-05
1.90105e-05
1.90101e-05
1.90097e-05
1.90094e-05
1.90091e-05
1.90088e-05
1.90085e-05
1.90083e-05
1.9008e-05
1.90078e-05
1.90076e-05
1.90074e-05
1.90072e-05
1.90071e-05
1.90069e-05
1.90068e-05
1.90067e-05
1.90066e-05
1.90066e-05
1.90065e-05
1.90065e-05
1.90065e-05
1.9392e-05
1.93961e-05
1.94002e-05
1.94044e-05
1.94084e-05
1.94124e-05
1.94163e-05
1.94201e-05
1.94238e-05
1.94273e-05
1.94309e-05
1.94344e-05
1.94378e-05
1.94413e-05
1.94447e-05
1.9448e-05
1.94512e-05
1.94542e-05
1.94573e-05
1.94603e-05
1.94633e-05
1.94662e-05
1.9469e-05
1.94716e-05
1.94742e-05
1.94768e-05
1.94792e-05
1.94817e-05
1.94841e-05
1.94865e-05
1.94888e-05
1.9491e-05
1.94931e-05
1.94952e-05
1.94973e-05
1.94993e-05
1.95011e-05
1.9503e-05
1.95048e-05
1.95066e-05
1.95083e-05
1.95099e-05
1.95115e-05
1.95129e-05
1.95144e-05
1.95158e-05
1.95172e-05
1.95184e-05
1.95197e-05
1.95209e-05
1.95221e-05
1.95232e-05
1.95242e-05
1.95252e-05
1.95261e-05
1.9527e-05
1.95278e-05
1.95286e-05
1.95294e-05
1.953e-05
1.95307e-05
1.95313e-05
1.95318e-05
1.95323e-05
1.95328e-05
1.95332e-05
1.95335e-05
1.95338e-05
1.95341e-05
1.95343e-05
1.95345e-05
1.95347e-05
1.95347e-05
1.95348e-05
1.95348e-05
1.95348e-05
1.95347e-05
1.95346e-05
1.95344e-05
1.95342e-05
1.9534e-05
1.95337e-05
1.95334e-05
1.9533e-05
1.95326e-05
1.95322e-05
1.95317e-05
1.95312e-05
1.95306e-05
1.953e-05
1.95294e-05
1.95287e-05
1.9528e-05
1.95273e-05
1.95266e-05
1.95258e-05
1.95249e-05
1.95241e-05
1.95232e-05
1.95223e-05
1.95213e-05
1.95203e-05
1.95193e-05
1.95182e-05
1.95171e-05
1.9516e-05
1.95149e-05
1.95138e-05
1.95126e-05
1.95113e-05
1.95101e-05
1.95088e-05
1.95075e-05
1.95062e-05
1.95048e-05
1.95034e-05
1.9502e-05
1.95006e-05
1.94991e-05
1.94975e-05
1.9496e-05
1.94944e-05
1.94928e-05
1.94912e-05
1.94896e-05
1.94879e-05
1.94862e-05
1.94845e-05
1.94828e-05
1.94811e-05
1.94793e-05
1.94775e-05
1.94757e-05
1.94739e-05
1.94721e-05
1.94701e-05
1.94682e-05
1.94664e-05
1.94645e-05
1.94626e-05
1.94607e-05
1.94588e-05
1.94568e-05
1.94547e-05
1.94527e-05
1.94506e-05
1.94486e-05
1.94465e-05
1.94444e-05
1.94424e-05
1.94403e-05
1.94381e-05
1.9436e-05
1.94338e-05
1.94316e-05
1.94294e-05
1.94272e-05
1.9425e-05
1.94228e-05
1.94205e-05
1.94181e-05
1.94157e-05
1.94134e-05
1.94111e-05
1.94088e-05
1.94065e-05
1.94042e-05
1.94018e-05
1.93994e-05
1.93971e-05
1.93948e-05
1.93926e-05
1.93903e-05
1.93879e-05
1.93855e-05
1.93832e-05
1.93808e-05
1.93785e-05
1.93761e-05
1.93737e-05
1.93713e-05
1.93689e-05
1.93664e-05
1.93639e-05
1.93609e-05
1.93574e-05
1.93542e-05
1.93516e-05
1.93491e-05
1.93467e-05
1.93443e-05
1.93419e-05
1.93395e-05
1.9337e-05
1.93345e-05
1.9332e-05
1.93294e-05
1.93269e-05
1.93242e-05
1.93216e-05
1.9319e-05
1.93164e-05
1.93138e-05
1.93113e-05
1.93088e-05
1.93063e-05
1.93039e-05
1.93014e-05
1.9299e-05
1.92965e-05
1.9294e-05
1.92915e-05
1.9289e-05
1.92865e-05
1.92841e-05
1.92817e-05
1.92793e-05
1.92768e-05
1.92744e-05
1.92719e-05
1.92695e-05
1.92671e-05
1.92647e-05
1.92623e-05
1.92599e-05
1.92575e-05
1.92551e-05
1.92527e-05
1.92503e-05
1.92479e-05
1.92454e-05
1.92431e-05
1.92407e-05
1.92383e-05
1.92358e-05
1.92334e-05
1.92311e-05
1.92288e-05
1.92264e-05
1.92241e-05
1.92218e-05
1.92195e-05
1.92172e-05
1.92146e-05
1.92118e-05
1.9209e-05
1.92062e-05
1.92036e-05
1.92011e-05
1.91988e-05
1.91965e-05
1.91943e-05
1.91921e-05
1.91899e-05
1.91876e-05
1.91854e-05
1.91832e-05
1.91809e-05
1.91787e-05
1.91765e-05
1.91743e-05
1.91722e-05
1.917e-05
1.91678e-05
1.91656e-05
1.91635e-05
1.91613e-05
1.91589e-05
1.91566e-05
1.91544e-05
1.91523e-05
1.91503e-05
1.91484e-05
1.91464e-05
1.91444e-05
1.91424e-05
1.91403e-05
1.91382e-05
1.91362e-05
1.91342e-05
1.91323e-05
1.91303e-05
1.91284e-05
1.91264e-05
1.91245e-05
1.91226e-05
1.91207e-05
1.91189e-05
1.91171e-05
1.91153e-05
1.91136e-05
1.91118e-05
1.911e-05
1.91079e-05
1.91055e-05
1.91034e-05
1.91016e-05
1.90999e-05
1.90981e-05
1.90962e-05
1.90943e-05
1.90924e-05
1.90906e-05
1.90889e-05
1.90872e-05
1.90856e-05
1.9084e-05
1.90825e-05
1.90809e-05
1.90794e-05
1.90779e-05
1.90763e-05
1.90747e-05
1.90732e-05
1.90717e-05
1.90702e-05
1.90688e-05
1.90674e-05
1.9066e-05
1.90646e-05
1.90631e-05
1.90617e-05
1.90602e-05
1.90588e-05
1.90575e-05
1.90561e-05
1.90548e-05
1.90535e-05
1.90522e-05
1.90509e-05
1.90496e-05
1.90483e-05
1.90471e-05
1.90459e-05
1.90447e-05
1.90435e-05
1.90424e-05
1.90413e-05
1.90402e-05
1.90391e-05
1.90381e-05
1.9037e-05
1.9036e-05
1.9035e-05
1.9034e-05
1.9033e-05
1.9032e-05
1.90311e-05
1.90302e-05
1.90292e-05
1.90284e-05
1.90275e-05
1.90266e-05
1.90258e-05
1.90249e-05
1.90241e-05
1.90233e-05
1.90226e-05
1.90218e-05
1.90211e-05
1.90204e-05
1.90197e-05
1.9019e-05
1.90183e-05
1.90176e-05
1.90169e-05
1.90163e-05
1.90157e-05
1.90151e-05
1.90145e-05
1.9014e-05
1.90135e-05
1.9013e-05
1.90125e-05
1.90121e-05
1.90117e-05
1.90113e-05
1.90109e-05
1.90105e-05
1.90101e-05
1.90097e-05
1.90094e-05
1.90091e-05
1.90088e-05
1.90085e-05
1.90083e-05
1.9008e-05
1.90078e-05
1.90076e-05
1.90074e-05
1.90072e-05
1.90071e-05
1.90069e-05
1.90068e-05
1.90067e-05
1.90066e-05
1.90066e-05
1.90065e-05
1.90065e-05
1.90065e-05
1.9392e-05
1.93961e-05
1.94002e-05
1.94043e-05
1.94084e-05
1.94124e-05
1.94164e-05
1.94202e-05
1.94238e-05
1.94274e-05
1.94309e-05
1.94344e-05
1.94379e-05
1.94414e-05
1.94447e-05
1.9448e-05
1.94511e-05
1.94542e-05
1.94573e-05
1.94602e-05
1.94633e-05
1.94662e-05
1.94689e-05
1.94715e-05
1.94742e-05
1.94768e-05
1.94793e-05
1.94817e-05
1.94841e-05
1.94865e-05
1.94888e-05
1.9491e-05
1.94931e-05
1.94952e-05
1.94972e-05
1.94992e-05
1.95012e-05
1.9503e-05
1.95048e-05
1.95065e-05
1.95082e-05
1.95099e-05
1.95115e-05
1.95129e-05
1.95144e-05
1.95158e-05
1.95172e-05
1.95184e-05
1.95197e-05
1.95209e-05
1.95221e-05
1.95232e-05
1.95242e-05
1.95252e-05
1.95261e-05
1.9527e-05
1.95278e-05
1.95286e-05
1.95294e-05
1.953e-05
1.95307e-05
1.95313e-05
1.95318e-05
1.95323e-05
1.95328e-05