/*--------------------------------*- C++ -*----------------------------------*\
  =========                 |
  \\      /  F ield         | OpenFOAM: The Open Source CFD Toolbox
   \\    /   O peration     | Website:  https://openfoam.org
    \\  /    A nd           | Version:  7
     \\/     M anipulation  |
\*---------------------------------------------------------------------------*/
FoamFile
{
    version     2.0;
    format      ascii;
    class       volScalarField;
    location    "4000";
    object      muTotal;
}
// * * * * * * * * * * * * * * * * * * * * * * * * * * * * * * * * * * * * * //

dimensions      [1 -1 -1 0 0 0 0];

internalField   nonuniform List<scalar> 
160000
(
0.000307745
0.00030711
0.000274223
0.000273231
0.00025725
0.000259136
0.000303537
0.00033506
0.000297535
0.000290107
0.000279328
0.000270591
0.00027192
0.00027159
0.000271145
0.000287626
0.000300187
0.000299732
0.000303743
0.000303281
0.000302844
0.000263305
0.000262949
0.000274427
0.000294785
0.000258393
0.000258063
0.000257743
0.000266586
0.000288464
0.000275204
0.000274906
0.000289888
0.000289578
0.000289302
0.000260515
0.000260266
0.000260023
0.000278476
0.00029
0.000289769
0.000289534
0.000254784
0.000254595
0.000254413
0.00025423
0.00029921
0.000301585
0.000301397
0.000301228
0.000263425
0.000260262
0.000260122
0.000260008
0.00025987
0.00027585
0.000293315
0.000293206
0.000272823
0.000272
0.00027191
0.000276165
0.000278404
0.000278339
0.000275051
0.00027498
0.000274947
0.000274887
0.000274852
0.000253197
0.000253172
0.000253151
0.000253136
0.000257111
0.000279677
0.000285804
0.000285809
0.00028583
0.000285848
0.000285882
0.00028591
0.000285955
0.000285997
0.000277998
0.000268649
0.000268708
0.000268769
0.000268836
0.000271204
0.000271268
0.000267293
0.000267369
0.000280262
0.000281946
0.000282054
0.000275664
0.000283422
0.000283536
0.000283667
0.000283782
0.000283923
0.000281754
0.000281876
0.000282035
0.000268592
0.000268738
0.000268886
0.000269036
0.000273406
0.000294317
0.000294534
0.000294688
0.000294884
0.00029507
0.000286528
0.000286728
0.000281139
0.000271752
0.000289284
0.000302854
0.000303086
0.000292349
0.000292574
0.000292806
0.000293043
0.000293369
0.000293623
0.000293098
0.000287886
0.000288147
0.000289096
0.000286757
0.000281583
0.00028182
0.00028212
0.000282351
0.00028264
0.000283213
0.000283496
0.000277261
0.000277522
0.000285923
0.000285481
0.000285766
0.000286037
0.000286368
0.000299266
0.000299781
0.000300071
0.000300381
0.000283246
0.000283542
0.000283823
0.000284138
0.000280985
0.000281296
0.000293863
0.000303366
0.000303709
0.000303998
0.000280043
0.00027695
0.000277265
0.000290683
0.000291007
0.000290392
0.00029073
0.000277161
0.000277478
0.000273366
0.000273689
0.000318632
0.000319002
0.000319042
0.000319422
0.000293165
0.000293502
0.000293856
0.00029421
0.00030746
0.000307818
0.00031517
0.000317056
0.000309041
0.000308493
0.000308888
0.000309277
0.000309692
0.000280852
0.000261224
0.0002616
0.000247503
0.0002478
0.000273536
0.000312744
0.000313118
0.000188546
0.000188828
0.000213001
0.00038209
0.000382426
0.000383014
0.000383356
0.000329008
0.000255105
0.000255432
0.000255752
0.000295352
0.000326029
0.000326429
0.000326825
0.000327231
0.000327636
0.000328036
0.000328437
0.000328828
0.000319959
0.000295959
0.000296341
0.000317887
0.000331007
0.000331408
0.000331787
0.000320164
0.000315224
0.000315601
0.000328303
0.000332304
0.000334061
0.000351887
0.000342019
0.000336408
0.00033043
0.000330829
0.00033123
0.000331629
0.000310735
0.0003111
0.000311453
0.000316812
0.000335341
0.000335707
0.000340393
0.000355126
0.000355544
0.000323615
0.000239575
0.000156997
0.000157168
0.000157434
0.00018149
0.000376993
0.000377329
0.000334001
0.000279987
0.000280307
0.000298647
0.000298949
0.000272197
0.00027247
0.000272845
0.000309926
0.000310298
0.000309973
0.000310272
0.000343633
0.000353946
0.000354313
0.000314675
0.000315045
0.000315417
0.000315743
0.000338607
0.000368497
0.000360027
0.000316022
0.000316323
0.000316656
0.000385677
0.000389672
0.000378586
0.000305909
0.000288706
0.000289014
0.000310279
0.000321243
0.000321533
0.000321813
0.000314204
0.000324662
0.000354097
0.000354396
0.000372651
0.000402349
0.000410822
0.000411214
0.00043024
0.000390552
0.000316251
0.000170814
0.000124231
0.000124337
0.000303107
0.000382156
0.000382222
0.000382738
0.000382746
0.00029054
0.000217831
0.000214155
0.000224816
0.000296572
0.000293329
0.000293524
0.000293758
0.000296985
0.000332208
0.000332455
0.000332681
0.000332896
0.000348593
0.000345157
0.000305787
0.000305985
0.000306126
0.000306426
0.000306584
0.000337952
0.000336085
0.000336274
0.000318185
0.000297288
0.000297479
0.000300923
0.000300335
0.00030052
0.000294977
0.000270894
0.000271043
0.000271196
0.000281929
0.000285527
0.000285655
0.000300877
0.000332166
0.000332379
0.000342549
0.000380461
0.000380546
0.000380848
0.000380894
0.000361797
0.000338119
0.000338255
0.000346127
0.000369416
0.000361526
0.000361664
0.000379169
0.000392045
0.00038571
0.000376342
0.000376474
0.000376591
0.000376724
0.000381039
0.000381493
0.00038162
0.000381809
0.000381918
0.000368613
0.000358775
0.000339766
0.000339856
0.000339458
0.000339538
0.000351228
0.000351295
0.000361277
0.000374466
0.000387017
0.000387081
0.000382368
0.000382418
0.000382466
0.000379924
0.000376635
0.000376672
0.000376356
0.000358203
0.000358237
0.000337011
0.000323124
0.000290777
0.000198156
0.000176273
0.000167522
0.000131033
0.000131055
0.000147362
0.000284868
0.000284282
0.00032706
0.000273306
0.000265578
0.000264162
0.000266656
0.000287403
0.000286211
0.000290053
0.000293688
0.000292797
0.000281676
0.000271608
0.000294688
0.00029913
0.000298677
0.000273653
0.000273225
0.000272814
0.000282433
0.000266754
0.000295557
0.000295161
0.000294784
0.000258397
0.000258069
0.000285392
0.000286224
0.000291533
0.000291207
0.000272343
0.000272052
0.000289585
0.000289295
0.000272156
0.000280558
0.000260029
0.000262845
0.00029001
0.000289756
0.000289536
0.000270144
0.000254595
0.000254413
0.000267658
0.000299217
0.00026563
0.000273331
0.000301217
0.000276927
0.000260265
0.000278148
0.00029623
0.000296096
0.000274821
0.000293321
0.000280518
0.000272088
0.000271996
0.000271908
0.000278416
0.000278342
0.000268206
0.000273962
0.000274987
0.000260287
0.000260246
0.000260207
0.000275547
0.000275522
0.000275504
0.000258331
0.000257267
0.000260822
0.000285798
0.000285814
0.000285679
0.000274623
0.000274648
0.000274681
0.000274718
0.000273021
0.000273067
0.00027312
0.000273238
0.000273305
0.000267063
0.000267118
0.00026721
0.000267275
0.000278699
0.000281841
0.000281948
0.000272484
0.000274019
0.000283416
0.000283544
0.000283659
0.000277936
0.000281291
0.00029328
0.000276733
0.000276875
0.000277025
0.00026874
0.000268887
0.000282099
0.000294137
0.000294339
0.000294504
0.000288128
0.000282474
0.000282634
0.000283402
0.000282863
0.000271551
0.00027175
0.00027498
0.000302852
0.000303087
0.000303319
0.000301472
0.00030171
0.000293582
0.000290713
0.000293617
0.000288369
0.000288614
0.000288854
0.000289103
0.000281342
0.000281561
0.000300935
0.000306934
0.000292503
0.00029384
0.000294137
0.000277852
0.000277261
0.000278777
0.000288405
0.000290153
0.000297325
0.000297921
0.000298228
0.000299464
0.00029976
0.00030007
0.000280615
0.000283529
0.000283827
0.000280389
0.000280672
0.000280993
0.000281284
0.00030103
0.000303366
0.000280936
0.000276316
0.000276628
0.000276945
0.000300477
0.00030236
0.000287392
0.000287715
0.000288894
0.000279853
0.000268712
0.000273369
0.000297421
0.000323623
0.000291564
0.000291909
0.000301322
0.000303725
0.000312015
0.00031239
0.000314862
0.000315889
0.000316284
0.000316658
0.000317061
0.000309032
0.000311032
0.000319552
0.000319977
0.000238004
0.000141925
0.000134023
0.000134244
0.000327456
0.00044169
0.000425234
0.000312751
0.000188321
0.000188586
0.000188828
0.000320906
0.000381916
0.000382438
0.000369007
0.00031025
0.000259876
0.000255124
0.000255431
0.00029965
0.0003256
0.000326014
0.000314196
0.000314879
0.000315448
0.000308975
0.000312767
0.000329958
0.000314528
0.00029562
0.000295984
0.00032853
0.000330608
0.000331008
0.000319805
0.000314492
0.000314854
0.000315225
0.000315602
0.000349319
0.000345466
0.000347333
0.00035924
0.000359669
0.000349874
0.000350296
0.000350732
0.000351152
0.000297453
0.000297802
0.000309127
0.00032242
0.000325224
0.000335345
0.000336984
0.000368884
0.000369319
0.000285395
0.00019498
0.000155537
0.000156893
0.000419744
0.000420197
0.000420893
0.000421236
0.000309565
0.000272827
0.000280557
0.000309405
0.000298647
0.000271932
0.000272181
0.000317211
0.000345867
0.000346256
0.000307413
0.000307721
0.000333195
0.000353571
0.00035395
0.000314324
0.00031467
0.000318947
0.000345271
0.000328415
0.000346398
0.000368522
0.000337519
0.000316018
0.000316326
0.000322207
0.000389282
0.000389677
0.000315795
0.000288434
0.000288731
0.000307823
0.000320963
0.000321261
0.000321546
0.000314836
0.000312428
0.000312706
0.000335023
0.000358574
0.000400664
0.000445516
0.000446663
0.000475544
0.000476023
0.000384827
0.000151188
0.000124148
0.000124247
0.000379425
0.000381761
0.000381959
0.000377038
0.000250877
0.000213565
0.000213719
0.00027114
0.000307835
0.000330189
0.000322206
0.000300123
0.000327096
0.000331668
0.000331936
0.000332196
0.000316703
0.000316913
0.000366401
0.000355304
0.000311765
0.000305832
0.000305981
0.000352504
0.000428649
0.000429031
0.000337969
0.000311316
0.000320995
0.000303755
0.000302904
0.000330795
0.000321711
0.000320513
0.000331672
0.000323771
0.000324672
0.000340898
0.000326758
0.000299789
0.000328175
0.000375075
0.000347938
0.000332552
0.000366656
0.000380236
0.000380334
0.000380556
0.000369601
0.000347225
0.0003354
0.00033553
0.000356874
0.000383261
0.000383416
0.000379943
0.000369412
0.000388285
0.000392043
0.00039218
0.000390291
0.000380914
0.0003766
0.000376719
0.00037698
0.000387735
0.00039114
0.000392426
0.000364519
0.000357772
0.000357863
0.000366485
0.000349529
0.000347605
0.000340199
0.000340274
0.000368346
0.000369201
0.000370345
0.000387017
0.000381242
0.000395528
0.000400193
0.000382473
0.000383211
0.000387608
0.000374816
0.000374856
0.000385413
0.000385457
0.000371406
0.000372626
0.000350458
0.000266766
0.000251502
0.000166939
0.000133528
0.000131044
0.000147384
0.000284878
0.000295335
0.000327061
0.000324261
0.000323614
0.000287416
0.000291561
0.000300838
0.000285217
0.000284709
0.000296372
0.000295854
0.00028223
0.000285034
0.0002947
0.000293883
0.000298667
0.000298195
0.000273223
0.000272815
0.000272419
0.000293867
0.000295406
0.000286551
0.000286186
0.000295893
0.000295525
0.000290729
0.000291872
0.00029153
0.000268752
0.00027323
0.00028269
0.000289578
0.000283258
0.00027562
0.000281126
0.000289203
0.000285222
0.000272908
0.000270265
0.000270046
0.000269838
0.000260721
0.000282861
0.000282661
0.000265796
0.000265633
0.000265473
0.000276275
0.000276919
0.000268484
0.000264273
0.000264144
0.000264024
0.000272132
0.000293319
0.000293217
0.000293099
0.000293004
0.000264768
0.000263786
0.000263715
0.000268206
0.000258083
0.00027317
0.00027312
0.000273074
0.000260186
0.000273568
0.000268093
0.000268074
0.000268063
0.000268057
0.000255979
0.000255994
0.000255986
0.000256018
0.000283106
0.000284101
0.000284118
0.000284166
0.000284204
0.000284255
0.000282303
0.000268022
0.000268084
0.000275676
0.000275747
0.0002672
0.000267293
0.000278162
0.000272293
0.000272384
0.000272487
0.000255512
0.000255611
0.00025571
0.000282486
0.000277936
0.000268778
0.000293278
0.000293223
0.000276878
0.000277025
0.000278141
0.000294758
0.000280626
0.000278572
0.000278743
0.000278915
0.000288028
0.000288213
0.000282633
0.000286979
0.000287176
0.000269674
0.000271891
0.000285255
0.000291221
0.000273392
0.000264199
0.00026441
0.000286701
0.000289838
0.000288957
0.000277404
0.000277635
0.00027787
0.000282742
0.00027752
0.000298115
0.000309079
0.000309369
0.000306931
0.000296753
0.000286496
0.000286762
0.000287027
0.000277262
0.000280765
0.00030378
0.00030408
0.00028171
0.000281988
0.000289885
0.000289968
0.000299319
0.000300057
0.000279514
0.000279799
0.000280099
0.000280379
0.000282496
0.000296752
0.000297079
0.000282174
0.000293446
0.000297905
0.000297752
0.000276625
0.000276941
0.000283265
0.000308533
0.000308864
0.00030922
0.000299549
0.000268391
0.000268708
0.000269033
0.000269611
0.000326583
0.000326952
0.000327324
0.000304452
0.000301723
0.000302086
0.000302457
0.000312589
0.0003144
0.000315577
0.000311793
0.000316692
0.000317083
0.000309524
0.000246274
0.000167414
0.000133689
0.000133816
0.000134047
0.000372881
0.000479886
0.000475465
0.000359473
0.000239503
0.000188372
0.000188611
0.000202885
0.000282442
0.000342584
0.000325438
0.000293493
0.000267752
0.000263425
0.000291275
0.000336639
0.000344593
0.000321866
0.000297472
0.000297836
0.000313975
0.000307929
0.000308306
0.000326769
0.000333549
0.000314691
0.000306591
0.000328696
0.000340434
0.000330609
0.000315719
0.000314777
0.000315135
0.000340633
0.000360912
0.000361356
0.000359481
0.000338804
0.000359946
0.000360388
0.000344297
0.00034867
0.000350305
0.000332882
0.000297689
0.000298035
0.000324524
0.000312805
0.00031316
0.000331711
0.000376336
0.000376765
0.000371911
0.00029501
0.000213333
0.000155327
0.000155473
0.000200866
0.000419702
0.000420423
0.000420792
0.000326146
0.000270332
0.000270625
0.000303996
0.000309398
0.000290062
0.000271924
0.000296824
0.000345481
0.000345872
0.000308643
0.000307388
0.000339182
0.000353203
0.000353572
0.0003255
0.000314311
0.000355569
0.000355983
0.000345275
0.000328407
0.000347295
0.00038325
0.000367678
0.000322985
0.000316333
0.000316667
0.000367531
0.000343218
0.000316639
0.000320068
0.000320373
0.000320678
0.000320975
0.000316441
0.000316731
0.000337329
0.000344253
0.000347678
0.000371507
0.000375191
0.000372856
0.000292953
0.000260782
0.000314211
0.000420864
0.000278428
0.000124072
0.000124172
0.000302089
0.00038133
0.000381589
0.000330168
0.00025444
0.000254638
0.000313593
0.000344919
0.000344565
0.000339505
0.000347516
0.000348327
0.000337252
0.000327691
0.000330766
0.000327264
0.000313482
0.000326825
0.000376714
0.000376965
0.000329315
0.000311803
0.000318013
0.000428125
0.000428343
0.000428749
0.000366152
0.000299568
0.000299769
0.000313454
0.00031436
0.000332688
0.000364908
0.00036513
0.00036486
0.000376402
0.000383494
0.000396155
0.000413032
0.000419886
0.000426966
0.000427187
0.000406466
0.000403573
0.0004038
0.000378353
0.000338259
0.000338442
0.000369112
0.000348504
0.000327177
0.000340696
0.000354271
0.000383102
0.000383262
0.000381972
0.000368897
0.00036904
0.000372656
0.000392042
0.000380827
0.000377192
0.000377324
0.000378224
0.000391379
0.000391511
0.000367305
0.000381825
0.000395767
0.000394577
0.00040137
0.000428336
0.000433125
0.000419272
0.000376089
0.000345201
0.00034886
0.000356305
0.000347288
0.000369557
0.000378076
0.000381235
0.000391001
0.000400193
0.000400251
0.000385338
0.0003876
0.000398703
0.000398737
0.000393818
0.000353404
0.000372323
0.000372624
0.000359697
0.000327741
0.000270672
0.000160107
0.00013352
0.000134139
0.000151729
0.000288385
0.000300584
0.000309969
0.000308361
0.000308214
0.000307608
0.000297708
0.000300833
0.000285206
0.00028647
0.000285962
0.000286493
0.00028601
0.000277762
0.000277295
0.000276842
0.000274235
0.00027633
0.000273222
0.000282721
0.000272195
0.000271811
0.00027144
0.000272706
0.000298582
0.000298206
0.00028418
0.000292226
0.000291867
0.00025607
0.000255791
0.000255518
0.00025826
0.000262765
0.000265316
0.000297549
0.000297266
0.000292477
0.000270736
0.000270499
0.000270264
0.000282147
0.000264807
0.000260717
0.000273118
0.000276143
0.00027596
0.000275786
0.000274561
0.000264734
0.000264581
0.000264434
0.000264269
0.000264143
0.000264328
0.000267982
0.000261962
0.000261863
0.000252511
0.000252421
0.000252336
0.000265134
0.000267147
0.000258138
0.000258084
0.00026285
0.000266378
0.00025343
0.000260079
0.000294019
0.000293998
0.000263727
0.000257632
0.000257621
0.000257614
0.000274996
0.000275016
0.000283356
0.000283392
0.000259525
0.000259562
0.00025959
0.000260932
0.00026098
0.000261044
0.000268019
0.000276299
0.000276359
0.000275226
0.000275293
0.000273203
0.000273743
0.000273837
0.000273934
0.000261083
0.000261184
0.000261289
0.000251061
0.000251167
0.00025676
0.000264883
0.000240568
0.000279036
0.000283068
0.000284389
0.000302675
0.00030678
0.000296306
0.00029192
0.000292097
0.000275196
0.000279574
0.00028821
0.000275663
0.000269306
0.000269487
0.000269672
0.000272542
0.00028536
0.00028558
0.000267094
0.000264209
0.000264405
0.000263052
0.00026326
0.000274908
0.000283938
0.000284176
0.00028002
0.000282745
0.000277521
0.000284731
0.000289971
0.000289804
0.000287756
0.000299237
0.000301225
0.000301507
0.000282268
0.000282528
0.000316819
0.000303788
0.000281425
0.000281679
0.000281996
0.000282258
0.000288593
0.000299308
0.000283683
0.000285826
0.00029131
0.000291616
0.000291922
0.000279496
0.000279802
0.000280106
0.000280415
0.00029651
0.000297904
0.000286026
0.00029773
0.000307802
0.000308182
0.000308522
0.000308437
0.00027205
0.000259493
0.00025978
0.000324103
0.000355517
0.000355941
0.000342584
0.00030994
0.000310274
0.000310664
0.000311003
0.000311383
0.000311566
0.000294994
0.000295354
0.000300453
0.000310907
0.000296475
0.000293814
0.000252763
0.000179402
0.000133539
0.000133637
0.000133905
0.0003947
0.000479654
0.000479906
0.000351099
0.00029878
0.000310654
0.000307656
0.000266891
0.000253215
0.000275057
0.000293914
0.00029511
0.000258343
0.000275174
0.000279749
0.0003139
0.00034448
0.000344598
0.000310605
0.000309153
0.000315496
0.000315882
0.000307921
0.000308295
0.000327044
0.000338775
0.000339197
0.0003396
0.000340021
0.000340429
0.00032555
0.000317497
0.000324428
0.000338093
0.000358272
0.000360925
0.000356519
0.000340206
0.000335523
0.000336647
0.000326935
0.000319989
0.000328436
0.000318426
0.000301475
0.000300981
0.000339696
0.000352076
0.000375248
0.000372748
0.000352961
0.000361166
0.000356305
0.000309429
0.000215551
0.000155154
0.000155282
0.000155587
0.000266765
0.000419935
0.000420299
0.000338517
0.000264513
0.000278619
0.00029764
0.000300596
0.000309342
0.000306578
0.000316558
0.000345099
0.000345486
0.000345535
0.000314284
0.000312861
0.000334041
0.000353199
0.000342299
0.000301318
0.000273568
0.00031467
0.000352404
0.000382127
0.000382485
0.000382938
0.000383253
0.000344205
0.000316017
0.000316336
0.000321221
0.000386714
0.000385107
0.000363624
0.000334524
0.000314466
0.000308672
0.00030897
0.000321146
0.000321443
0.000319901
0.00032899
0.000374958
0.000375276
0.000346528
0.000273923
0.000260501
0.000260709
0.000261082
0.000422313
0.000499949
0.000411048
0.000336816
0.000320692
0.000307191
0.000346487
0.000330085
0.000336544
0.000372773
0.000387007
0.00039259
0.000380718
0.000360356
0.000359084
0.000356311
0.000350716
0.000356895
0.000354273
0.000327236
0.000313483
0.000332235
0.000341404
0.000321179
0.00031168
0.000311858
0.000384749
0.000428036
0.000412731
0.000328549
0.000312951
0.000317518
0.000342029
0.000342253
0.000340269
0.000335891
0.000351388
0.000364766
0.000367277
0.00041621
0.000427889
0.000436366
0.000436607
0.000436843
0.000437071
0.00042055
0.000402148
0.000373135
0.000371425
0.000371602
0.000371083
0.000329048
0.000314897
0.000315044
0.0003246
0.000341119
0.000350626
0.000357517
0.000364735
0.000369618
0.000369242
0.000369038
0.000369176
0.000377662
0.000389303
0.000389441
0.000380368
0.000351284
0.000345445
0.000336352
0.000339032
0.000373369
0.000426445
0.000438367
0.000438491
0.000438269
0.000433115
0.000417775
0.000380002
0.000362935
0.000361349
0.000348958
0.000347292
0.000348917
0.000386687
0.000381242
0.000381306
0.000394485
0.000400251
0.000400303
0.00039132
0.000391878
0.000346723
0.000346749
0.000349651
0.000350085
0.000350098
0.000350745
0.000350777
0.000314778
0.000251709
0.000184821
0.000151771
0.00015174
0.000300672
0.000318195
0.000309438
0.000298884
0.000293644
0.000293554
0.000281915
0.000281387
0.000280864
0.00028036
0.000284274
0.000279782
0.000279316
0.00027882
0.000292905
0.000274503
0.000274068
0.000273648
0.000273225
0.000285682
0.00028526
0.000277706
0.000271439
0.000271087
0.000270735
0.000261133
0.000260816
0.000260492
0.000260178
0.000276415
0.000279258
0.000278954
0.000278668
0.000278372
0.000260842
0.000260598
0.000260349
0.000260131
0.000292739
0.000306845
0.000276178
0.000286517
0.000286294
0.00027266
0.000267094
0.000266909
0.000266733
0.000266565
0.000271617
0.000271454
0.000267954
0.000268209
0.000268074
0.00026414
0.000264019
0.000263903
0.000263793
0.000273883
0.000273784
0.000262267
0.000248564
0.00024849
0.000270283
0.000282277
0.000282205
0.000282147
0.000282093
0.00025343
0.000253388
0.000253376
0.000253465
0.000268517
0.000284425
0.00027229
0.000263356
0.000273961
0.000260383
0.000260398
0.000271284
0.000271309
0.000271338
0.000259593
0.000272759
0.000285463
0.000285518
0.000285582
0.000285649
0.000270387
0.000265694
0.000265769
0.00026585
0.00025494
0.000250475
0.000250563
0.000243615
0.000243715
0.000261286
0.000261393
0.000261504
0.000256767
0.000261049
0.00024057
0.000240688
0.000240811
0.000277016
0.00032775
0.000327935
0.000312517
0.000285853
0.00028356
0.000275199
0.000268969
0.000269147
0.000285219
0.000285416
0.000285611
0.00026967
0.000269863
0.000279148
0.000270266
0.000270469
0.000272325
0.000263164
0.000263049
0.000278568
0.000278796
0.000277585
0.000254494
0.00025272
0.000257954
0.00024933
0.0002747
0.000274936
0.000276016
0.000247971
0.000282167
0.000311787
0.000291181
0.000291438
0.000310563
0.000316824
0.00030714
0.000307436
0.000296084
0.000285597
0.000291107
0.000291402
0.000283394
0.000283683
0.000286201
0.00028613
0.000277257
0.000277546
0.000285653
0.000301392
0.000301729
0.000302055
0.000301374
0.000257294
0.000254874
0.000255178
0.000255452
0.000255765
0.00026537
0.00028764
0.000260855
0.000261162
0.000259789
0.000261144
0.000355522
0.000355935
0.000341903
0.000329
0.000307864
0.000308226
0.000308591
0.000308957
0.000306128
0.000297938
0.000295326
0.000295696
0.000296053
0.000296468
0.000259098
0.000147039
0.000133441
0.000133507
0.000452082
0.000478429
0.000479145
0.00047964
0.000361395
0.000269612
0.000277771
0.00031822
0.000318619
0.000284611
0.000278159
0.00028072
0.00028123
0.000295089
0.00025014
0.00025045
0.000284427
0.00033509
0.000344476
0.000344906
0.000332062
0.000319883
0.000315482
0.000307533
0.000307909
0.000314004
0.000338357
0.000338785
0.000330811
0.000316372
0.000321414
0.000329764
0.000342143
0.00034256
0.000342976
0.000321944
0.000317881
0.000330256
0.000328768
0.000319348
0.000314195
0.000311117
0.000295367
0.000283557
0.000283905
0.000290124
0.000301477
0.000294638
0.000362174
0.000385216
0.000384375
0.000353855
0.000352958
0.000364755
0.000365202
0.000276639
0.000155004
0.000155126
0.000155416
0.000276547
0.000419233
0.000419719
0.000340693
0.000262311
0.000262597
0.000306476
0.000315261
0.000313666
0.000321119
0.00033374
0.000338632
0.000345101
0.000345482
0.000331151
0.000312471
0.000291329
0.000286887
0.000287209
0.000273805
0.000280464
0.000262228
0.000266059
0.00038177
0.0003821
0.000382559
0.000382876
0.000332645
0.000315717
0.000316021
0.000364808
0.00040178
0.000402192
0.000382604
0.000335517
0.000310909
0.000311213
0.000328943
0.000325768
0.00031908
0.000319377
0.000319674
0.000365365
0.000380836
0.00037363
0.000311744
0.000260266
0.000260437
0.000260829
0.000278445
0.00051096
0.000511407
0.000452781
0.000329233
0.000312233
0.000266125
0.000309483
0.000357502
0.000391688
0.000391962
0.000392313
0.00039258
0.000382867
0.000379324
0.000374894
0.000360319
0.000374022
0.000415887
0.000416205
0.000416513
0.000413637
0.000386719
0.000344587
0.000311541
0.000311727
0.000323605
0.000356782
0.000376539
0.000342507
0.000314044
0.00031294
0.000317017
0.000308759
0.00030895
0.000316074
0.000293621
0.000259526
0.000306936
0.000332103
0.000381194
0.000413409
0.000431923
0.000436607
0.000436841
0.000413112
0.000398175
0.000398368
0.000398563
0.000389655
0.000368932
0.000333993
0.000329025
0.000331524
0.000357821
0.000361536
0.000369375
0.000370231
0.000370358
0.000370523
0.00036671
0.000366757
0.000371264
0.000371395
0.00037257
0.000380885
0.000368432
0.000322499
0.000264554
0.000239658
0.000221082
0.000282842
0.000321138
0.00039582
0.000438377
0.000431255
0.000429255
0.000429365
0.000432293
0.000424798
0.000378992
0.000394712
0.000402428
0.000386947
0.000380103
0.00038668
0.000392439
0.000396856
0.000396918
0.000381337
0.00037169
0.000380708
0.000400365
0.000400412
0.000364287
0.000341676
0.000341701
0.000354237
0.000354241
0.000332058
0.000329164
0.000301053
0.000248821
0.000146182
0.000146196
0.000284087
0.000312687
0.000294653
0.000290137
0.000285245
0.000289689
0.000282798
0.000285534
0.000280864
0.000280373
0.000282761
0.000279781
0.000279305
0.000287161
0.000292909
0.000292431
0.000291973
0.000275012
0.000274342
0.000281201
0.000280788
0.000282306
0.000281921
0.000271085
0.000270999
0.000282653
0.000265282
0.000268212
0.000249514
0.000249223
0.000274946
0.000278955
0.000278658
0.000278376
0.000260846
0.000260587
0.000260358
0.000260105
0.000288404
0.000306842
0.000305136
0.000298951
0.000281582
0.000267288
0.000267095
0.000278635
0.000278453
0.000272688
0.00026486
0.000269329
0.000269162
0.000264403
0.000264268
0.000264141
0.000264017
0.00026444
0.000277889
0.000277783
0.000267498
0.000267411
0.000267325
0.000244945
0.000245737
0.000282273
0.000282216
0.000282148
0.000282094
0.000259001
0.000253396
0.000253351
0.000294325
0.000307228
0.000307222
0.000296941
0.000263359
0.000273969
0.00027398
0.000273995
0.000268306
0.00025828
0.000258318
0.000259582
0.000272771
0.000262732
0.000262783
0.000276312
0.000281252
0.000281324
0.000281401
0.000281482
0.000265679
0.000251458
0.00025154
0.000264865
0.000254709
0.000254803
0.000236354
0.000224638
0.000224734
0.000261771
0.000276672
0.000240567
0.000240689
0.000278702
0.000329129
0.000327687
0.000295193
0.00028118
0.000281345
0.000283558
0.000283733
0.000283908
0.00026342
0.000263597
0.000271467
0.000285611
0.000285804
0.000269859
0.000270059
0.000270265
0.000270466
0.00029745
0.000294893
0.000283647
0.000283881
0.000278275
0.000267628
0.000255221
0.00024328
0.000243483
0.000248975
0.000275486
0.00027574
0.000276
0.000247967
0.0002482
0.000329256
0.000340952
0.000334362
0.000328075
0.000318004
0.000292143
0.000282074
0.000293604
0.000293905
0.000279792
0.000280085
0.000286482
0.000292376
0.000292678
0.000284345
0.000277252
0.00027755
0.000277851
0.000291829
0.000301725
0.000281363
0.000263778
0.000254599
0.000254887
0.000255165
0.000255476
0.000255753
0.000249228
0.000275947
0.000274939
0.000296222
0.000259795
0.000294209
0.000344983
0.000344804
0.000323456
0.000317326
0.000317704
0.000328782
0.000325559
0.000314196
0.000307362
0.000297922
0.000303955
0.000304314
0.000287916
0.000193024
8.00754e-05
5.07359e-05
0.000187522
0.000477342
0.000477866
0.00047857
0.000479063
0.000346437
0.000273845
0.000269616
0.000298747
0.000318231
0.000318623
0.000288056
0.000278407
0.0002797
0.000271466
0.000271818
0.000250133
0.000250447
0.000298401
0.000344038
0.000344467
0.000344895
0.000336148
0.000323594
0.000313489
0.000307523
0.00030957
0.00032547
0.000332456
0.000331217
0.000318054
0.00030871
0.000309072
0.000309464
0.000309826
0.000323471
0.000323837
0.000314841
0.000315218
0.000321798
0.000327823
0.000325613
0.000305525
0.000299454
0.000299813
0.00030017
0.000286062
0.000264599
0.000278458
0.000294625
0.000352313
0.000385219
0.000353341
0.000336486
0.000368515
0.000385316
0.000312325
0.000199661
0.000199881
0.00034245
0.000345427
0.000345974
0.000332753
0.000298168
0.000265747
0.000264566
0.000295372
0.000309077
0.000318753
0.000327067
0.000332589
0.000344595
0.000350902
0.000351291
0.000321496
0.000298293
0.000298618
0.000298904
0.000299247
0.000289879
0.000246652
0.000262292
0.000262249
0.000335717
0.000381705
0.000382141
0.000382488
0.000348383
0.000315426
0.000315721
0.000377736
0.00040137
0.000401788
0.000380834
0.00033668
0.000331673
0.000331989
0.000358518
0.000359815
0.00036016
0.000358948
0.000348911
0.000351207
0.000380426
0.000380827
0.000353211
0.000260078
0.000260204
0.000260576
0.000260945
0.000423235
0.000423662
0.000325759
0.000280427
0.000235204
0.000242094
0.000263552
0.000297788
0.000358841
0.00039163
0.000392004
0.000392261
0.000390443
0.0003695
0.000364991
0.000356293
0.000344864
0.000345132
0.000345388
0.00040701
0.000388256
0.000354171
0.000351282
0.000350458
0.000353266
0.000344124
0.000333609
0.000325837
0.000311905
0.000311817
0.000312022
0.00034312
0.00034336
0.000315658
0.000294583
0.00029478
0.000292132
0.00025953
0.000281175
0.000317993
0.000355317
0.000404837
0.000436361
0.000436606
0.000418832
0.000406286
0.000431419
0.000431666
0.000401322
0.000379364
0.000379549
0.00036365
0.000343852
0.000351508
0.000378028
0.000389284
0.00038006
0.000369809
0.000369995
0.00037051
0.000367379
0.000355101
0.000355236
0.000363428
0.000361004
0.000338969
0.00031264
0.000276642
0.000234497
0.000231086
0.00022109
0.000250876
0.000294996
0.000369491
0.000424328
0.000454444
0.000454562
0.000440161
0.000452603
0.000452708
0.00044897
0.000439481
0.00040901
0.000360694
0.000335805
0.000335868
0.000351984
0.000348054
0.0003481
0.000355411
0.000371693
0.000380437
0.00039988
0.000393205
0.000398407
0.000398447
0.000381324
0.00037526
0.0003541
0.000332063
0.000333915
0.000333938
0.000285292
0.000183879
0.000162205
0.000305914
0.000290238
0.00028641
0.000285828
0.000285255
0.000301231
0.00030064
0.000295738
0.00029033
0.000298596
0.000283847
0.000282919
0.00029093
0.000290427
0.000283421
0.00028979
0.00027632
0.000284745
0.000274345
0.000284033
0.000290723
0.000290305
0.000272094
0.000271092
0.000282768
0.000282652
0.000271592
0.000272905
0.000250134
0.000257877
0.000279256
0.000278944
0.000278661
0.000278373
0.00026085
0.000260602
0.000260342
0.000301078
0.000300805
0.000287871
0.000302995
0.000302747
0.000295932
0.000276427
0.000287126
0.000286924
0.000265915
0.000265746
0.000264861
0.000264697
0.000264548
0.0002644
0.000264271
0.000264139
0.000266926
0.000270187
0.00027789
0.000277783
0.000275121
0.000267815
0.000245015
0.000244942
0.000281323
0.000282275
0.000282203