/*--------------------------------*- C++ -*----------------------------------*\
  =========                 |
  \\      /  F ield         | OpenFOAM: The Open Source CFD Toolbox
   \\    /   O peration     | Website:  https://openfoam.org
    \\  /    A nd           | Version:  7
     \\/     M anipulation  |
\*---------------------------------------------------------------------------*/
FoamFile
{
    version     2.0;
    format      ascii;
    class       volScalarField;
    location    "4000";
    object      nuTotal;
}
// * * * * * * * * * * * * * * * * * * * * * * * * * * * * * * * * * * * * * //

dimensions      [0 2 -1 0 0 0 0];

internalField   nonuniform List<scalar> 
160000
(
5.93347e-07
5.9214e-07
5.9554e-07
5.9445e-07
5.95921e-07
5.9435e-07
5.86438e-07
5.8168e-07
5.84983e-07
5.84871e-07
5.85315e-07
5.85615e-07
5.84347e-07
5.83329e-07
5.82384e-07
5.78937e-07
5.76306e-07
5.75448e-07
5.7401e-07
5.73152e-07
5.72339e-07
5.77268e-07
5.76503e-07
5.73832e-07
5.70149e-07
5.7494e-07
5.74219e-07
5.73522e-07
5.71299e-07
5.67329e-07
5.68604e-07
5.6801e-07
5.65203e-07
5.64623e-07
5.64082e-07
5.67904e-07
5.67371e-07
5.66852e-07
5.63399e-07
5.61276e-07
5.60817e-07
5.60383e-07
5.6532e-07
5.64909e-07
5.64512e-07
5.64116e-07
5.56974e-07
5.56317e-07
5.5599e-07
5.5567e-07
5.60749e-07
5.60952e-07
5.60664e-07
5.60397e-07
5.60144e-07
5.57348e-07
5.54669e-07
5.54459e-07
5.57136e-07
5.5707e-07
5.56894e-07
5.56074e-07
5.55591e-07
5.55461e-07
5.55823e-07
5.55718e-07
5.55617e-07
5.55534e-07
5.55462e-07
5.58945e-07
5.58898e-07
5.58861e-07
5.58836e-07
5.58123e-07
5.54557e-07
5.53703e-07
5.53724e-07
5.53754e-07
5.53797e-07
5.5385e-07
5.53916e-07
5.53993e-07
5.54082e-07
5.5532e-07
5.56854e-07
5.56973e-07
5.57102e-07
5.57236e-07
5.57022e-07
5.57182e-07
5.57984e-07
5.58161e-07
5.56416e-07
5.56392e-07
5.56597e-07
5.57751e-07
5.56859e-07
5.5709e-07
5.57328e-07
5.57573e-07
5.57827e-07
5.58415e-07
5.58689e-07
5.58978e-07
5.61311e-07
5.61612e-07
5.61918e-07
5.62231e-07
5.6191e-07
5.59316e-07
5.59661e-07
5.60008e-07
5.60355e-07
5.6072e-07
5.62255e-07
5.6263e-07
5.63832e-07
5.65663e-07
5.63555e-07
5.62249e-07
5.62672e-07
5.645e-07
5.64924e-07
5.65365e-07
5.65814e-07
5.6627e-07
5.66749e-07
5.67314e-07
5.68519e-07
5.68996e-07
5.69378e-07
5.70207e-07
5.7147e-07
5.72005e-07
5.72539e-07
5.73063e-07
5.73574e-07
5.74051e-07
5.7457e-07
5.7604e-07
5.76571e-07
5.75952e-07
5.76605e-07
5.7715e-07
5.77751e-07
5.78343e-07
5.7721e-07
5.77768e-07
5.78355e-07
5.78933e-07
5.81909e-07
5.82506e-07
5.83103e-07
5.83715e-07
5.84846e-07
5.85465e-07
5.84356e-07
5.83798e-07
5.84449e-07
5.85103e-07
5.89122e-07
5.903e-07
5.90959e-07
5.89696e-07
5.90349e-07
5.91129e-07
5.91815e-07
5.94547e-07
5.95221e-07
5.96597e-07
5.97288e-07
5.91906e-07
5.92581e-07
5.93303e-07
5.94008e-07
5.98072e-07
5.98758e-07
5.99457e-07
6.00184e-07
5.99226e-07
5.99934e-07
5.99787e-07
6.00343e-07
6.02083e-07
6.02931e-07
6.03687e-07
6.04462e-07
6.05244e-07
6.10117e-07
6.14301e-07
6.15159e-07
6.18742e-07
6.19483e-07
6.15545e-07
6.10734e-07
6.11448e-07
6.39014e-07
6.39842e-07
6.33027e-07
6.08118e-07
6.08901e-07
6.09633e-07
6.10356e-07
6.16302e-07
6.27995e-07
6.28748e-07
6.29568e-07
6.23871e-07
6.20759e-07
6.21503e-07
6.22247e-07
6.22996e-07
6.2374e-07
6.24474e-07
6.25211e-07
6.25956e-07
6.27777e-07
6.31719e-07
6.32485e-07
6.30467e-07
6.29743e-07
6.30502e-07
6.31222e-07
6.3333e-07
6.34705e-07
6.35448e-07
6.34735e-07
6.35081e-07
6.35682e-07
6.34607e-07
6.36402e-07
6.37785e-07
6.39259e-07
6.40026e-07
6.40796e-07
6.41554e-07
6.44913e-07
6.45655e-07
6.4639e-07
6.4647e-07
6.4503e-07
6.45738e-07
6.45979e-07
6.4521e-07
6.45949e-07
6.50294e-07
6.65346e-07
6.97019e-07
6.97968e-07
6.98903e-07
6.87832e-07
6.50414e-07
6.51102e-07
6.56199e-07
6.64428e-07
6.65113e-07
6.62983e-07
6.63647e-07
6.68676e-07
6.69408e-07
6.70242e-07
6.65321e-07
6.6601e-07
6.66745e-07
6.67397e-07
6.64054e-07
6.63712e-07
6.64386e-07
6.69727e-07
6.70474e-07
6.71239e-07
6.71938e-07
6.69858e-07
6.67453e-07
6.68955e-07
6.74675e-07
6.75308e-07
6.76007e-07
6.69368e-07
6.69721e-07
6.71364e-07
6.80293e-07
6.83597e-07
6.84266e-07
6.8181e-07
6.81037e-07
6.81675e-07
6.82292e-07
6.83925e-07
6.83195e-07
6.80437e-07
6.81011e-07
6.79793e-07
6.77829e-07
6.778e-07
6.78419e-07
6.77668e-07
6.81367e-07
6.89981e-07
7.28917e-07
7.64208e-07
7.65038e-07
6.94962e-07
6.86483e-07
6.87072e-07
6.87593e-07
6.88139e-07
6.99863e-07
7.16537e-07
7.18231e-07
7.15609e-07
7.01086e-07
7.0211e-07
7.02603e-07
7.03121e-07
7.03195e-07
6.98898e-07
6.99392e-07
6.99843e-07
7.00282e-07
6.98916e-07
6.99766e-07
7.05327e-07
7.05809e-07
7.06355e-07
7.06893e-07
7.07413e-07
7.03762e-07
7.04458e-07
7.04901e-07
7.07668e-07
7.11162e-07
7.11576e-07
7.11479e-07
7.11996e-07
7.12388e-07
7.13665e-07
7.18285e-07
7.18673e-07
7.19073e-07
7.17491e-07
7.17228e-07
7.17573e-07
7.15465e-07
7.11501e-07
7.11846e-07
7.10981e-07
7.0737e-07
7.07718e-07
7.08032e-07
7.08355e-07
7.10556e-07
7.13517e-07
7.13806e-07
7.13185e-07
7.10988e-07
7.12087e-07
7.12359e-07
7.10894e-07
7.09982e-07
7.10807e-07
7.11936e-07
7.12173e-07
7.12407e-07
7.1264e-07
7.12477e-07
7.12669e-07
7.12884e-07
7.13092e-07
7.13289e-07
7.14773e-07
7.15979e-07
7.18311e-07
7.18481e-07
7.18701e-07
7.18855e-07
7.17656e-07
7.17796e-07
7.16851e-07
7.15643e-07
7.14586e-07
7.14701e-07
7.15251e-07
7.15357e-07
7.15456e-07
7.15792e-07
7.16198e-07
7.16279e-07
7.16385e-07
7.18307e-07
7.18366e-07
7.20856e-07
7.22682e-07
7.27565e-07
7.51087e-07
7.60689e-07
7.65328e-07
7.92293e-07
7.92284e-07
7.78371e-07
5.96431e-07
5.95226e-07
5.88533e-07
5.9442e-07
5.9446e-07
5.9349e-07
5.91864e-07
5.87473e-07
5.86527e-07
5.84867e-07
5.83251e-07
5.82304e-07
5.82852e-07
5.83361e-07
5.78942e-07
5.7738e-07
5.76518e-07
5.79152e-07
5.78266e-07
5.77413e-07
5.75089e-07
5.76683e-07
5.7161e-07
5.70856e-07
5.70144e-07
5.7495e-07
5.74234e-07
5.69162e-07
5.68331e-07
5.66916e-07
5.66299e-07
5.68393e-07
5.678e-07
5.64623e-07
5.64084e-07
5.66008e-07
5.64159e-07
5.6686e-07
5.65876e-07
5.61275e-07
5.60813e-07
5.60378e-07
5.62749e-07
5.6491e-07
5.64514e-07
5.61846e-07
5.56975e-07
5.61416e-07
5.59851e-07
5.55667e-07
5.58626e-07
5.60946e-07
5.57826e-07
5.55058e-07
5.54805e-07
5.57508e-07
5.54671e-07
5.56201e-07
5.57247e-07
5.57065e-07
5.56894e-07
5.55746e-07
5.556e-07
5.57001e-07
5.55985e-07
5.55714e-07
5.57946e-07
5.57863e-07
5.57791e-07
5.55296e-07
5.55248e-07
5.55211e-07
5.57927e-07
5.58096e-07
5.57489e-07
5.53704e-07
5.53723e-07
5.53775e-07
5.55411e-07
5.55465e-07
5.55531e-07
5.55608e-07
5.55957e-07
5.56052e-07
5.5616e-07
5.56273e-07
5.56401e-07
5.57517e-07
5.57664e-07
5.57818e-07
5.57989e-07
5.56439e-07
5.5619e-07
5.56391e-07
5.58005e-07
5.57995e-07
5.56858e-07
5.57086e-07
5.57328e-07
5.58413e-07
5.58199e-07
5.56841e-07
5.59438e-07
5.59723e-07
5.60023e-07
5.61613e-07
5.61918e-07
5.60274e-07
5.5898e-07
5.59314e-07
5.59664e-07
5.60885e-07
5.62049e-07
5.6241e-07
5.62691e-07
5.6317e-07
5.65271e-07
5.65667e-07
5.65615e-07
5.62246e-07
5.62674e-07
5.63098e-07
5.63783e-07
5.64223e-07
5.65748e-07
5.66627e-07
5.6674e-07
5.67948e-07
5.68417e-07
5.68897e-07
5.69373e-07
5.70979e-07
5.71478e-07
5.69418e-07
5.69241e-07
5.71631e-07
5.72006e-07
5.72537e-07
5.75398e-07
5.76038e-07
5.76385e-07
5.75594e-07
5.75949e-07
5.75586e-07
5.76139e-07
5.76724e-07
5.7718e-07
5.77767e-07
5.78346e-07
5.81659e-07
5.81868e-07
5.82472e-07
5.8361e-07
5.84222e-07
5.84846e-07
5.85482e-07
5.83418e-07
5.83802e-07
5.8759e-07
5.88986e-07
5.89639e-07
5.90302e-07
5.87667e-07
5.88126e-07
5.90858e-07
5.91512e-07
5.92072e-07
5.94132e-07
5.96637e-07
5.96616e-07
5.93822e-07
5.91336e-07
5.96081e-07
5.96765e-07
5.96232e-07
5.96644e-07
5.96346e-07
5.97054e-07
5.97518e-07
5.98168e-07
5.98878e-07
5.99599e-07
6.00324e-07
6.02064e-07
6.02598e-07
6.02386e-07
6.03158e-07
6.17192e-07
6.55961e-07
6.62883e-07
6.63752e-07
6.06716e-07
5.98091e-07
5.99842e-07
6.1069e-07
6.38267e-07
6.39027e-07
6.39953e-07
6.13258e-07
6.08119e-07
6.08874e-07
6.10787e-07
6.17779e-07
6.2631e-07
6.28004e-07
6.28786e-07
6.22424e-07
6.19988e-07
6.20745e-07
6.22959e-07
6.2367e-07
6.24395e-07
6.26007e-07
6.26307e-07
6.25035e-07
6.27663e-07
6.30987e-07
6.31737e-07
6.28386e-07
6.2897e-07
6.29728e-07
6.31828e-07
6.33254e-07
6.33972e-07
6.34705e-07
6.3546e-07
6.32458e-07
6.33652e-07
6.34255e-07
6.33871e-07
6.34609e-07
6.36355e-07
6.37115e-07
6.379e-07
6.38659e-07
6.45947e-07
6.46695e-07
6.45921e-07
6.45001e-07
6.4543e-07
6.45023e-07
6.45587e-07
6.43108e-07
6.43841e-07
6.5478e-07
6.77412e-07
6.96917e-07
6.97216e-07
6.44344e-07
6.45244e-07
6.46074e-07
6.46833e-07
6.5848e-07
6.64915e-07
6.64327e-07
6.60721e-07
6.62965e-07
6.68006e-07
6.68707e-07
6.62684e-07
6.6015e-07
6.60888e-07
6.66352e-07
6.67017e-07
6.64498e-07
6.63008e-07
6.63704e-07
6.69047e-07
6.69742e-07
6.69996e-07
6.6766e-07
6.7033e-07
6.68992e-07
6.67444e-07
6.71357e-07
6.74667e-07
6.75317e-07
6.75306e-07
6.69062e-07
6.69712e-07
6.7825e-07
6.82947e-07
6.83606e-07
6.8145e-07
6.80393e-07
6.81042e-07
6.81669e-07
6.83196e-07
6.84158e-07
6.84759e-07
6.82546e-07
6.8056e-07
6.77331e-07
6.74699e-07
6.75262e-07
6.74156e-07
6.7478e-07
6.81874e-07
7.39781e-07
7.63519e-07
7.64367e-07
6.85377e-07
6.85868e-07
6.86487e-07
6.87525e-07
7.06259e-07
7.1671e-07
7.1723e-07
7.03803e-07
6.98312e-07
6.95866e-07
6.9741e-07
7.01048e-07
6.97847e-07
6.97839e-07
6.98376e-07
6.9889e-07
7.014e-07
7.01854e-07
6.96559e-07
6.98174e-07
7.03986e-07
7.05327e-07
7.05848e-07
7.00556e-07
6.9435e-07
6.94816e-07
7.0374e-07
7.07689e-07
7.06829e-07
7.09718e-07
7.10295e-07
7.06909e-07
7.08513e-07
7.091e-07
7.0808e-07
7.09498e-07
7.09786e-07
7.08187e-07
7.10332e-07
7.14523e-07
7.10904e-07
7.06066e-07
7.09262e-07
7.11455e-07
7.07998e-07
7.07038e-07
7.07389e-07
7.07718e-07
7.09115e-07
7.11824e-07
7.13535e-07
7.13828e-07
7.11687e-07
7.0936e-07
7.09643e-07
7.10255e-07
7.11562e-07
7.10046e-07
7.09978e-07
7.10222e-07
7.10641e-07
7.1175e-07
7.12408e-07
7.12645e-07
7.12869e-07
7.12099e-07
7.12021e-07
7.12126e-07
7.14998e-07
7.15901e-07
7.16078e-07
7.15355e-07
7.17353e-07
7.17743e-07
7.18774e-07
7.1892e-07
7.15979e-07
7.16032e-07
7.1605e-07
7.14586e-07
7.15243e-07
7.14062e-07
7.13772e-07
7.15456e-07
7.15483e-07
7.15168e-07
7.16458e-07
7.1653e-07
7.15598e-07
7.15656e-07
7.17058e-07
7.16986e-07
7.1937e-07
7.32009e-07
7.35314e-07
7.65654e-07
7.89907e-07
7.92295e-07
7.78354e-07
5.9645e-07
5.93682e-07
5.88532e-07
5.87598e-07
5.86441e-07
5.89817e-07
5.88063e-07
5.85639e-07
5.86659e-07
5.85631e-07
5.82887e-07
5.81883e-07
5.82775e-07
5.81344e-07
5.78962e-07
5.78086e-07
5.76503e-07
5.7561e-07
5.78262e-07
5.77418e-07
5.766e-07
5.72639e-07
5.71613e-07
5.72033e-07
5.71315e-07
5.69243e-07
5.68545e-07
5.68447e-07
5.67564e-07
5.66916e-07
5.69612e-07
5.6826e-07
5.66212e-07
5.64624e-07
5.64914e-07
5.65467e-07
5.64082e-07
5.62411e-07
5.62452e-07
5.63751e-07
5.63661e-07
5.63218e-07
5.62793e-07
5.63844e-07
5.59974e-07
5.59583e-07
5.61759e-07
5.61421e-07
5.61091e-07
5.59053e-07
5.58618e-07
5.59594e-07
5.59976e-07
5.59712e-07
5.59459e-07
5.57918e-07
5.54676e-07
5.54464e-07
5.54267e-07
5.54084e-07
5.58022e-07
5.58011e-07
5.57863e-07
5.56999e-07
5.58541e-07
5.55988e-07
5.55891e-07
5.55809e-07
5.57794e-07
5.55592e-07
5.56387e-07
5.56351e-07
5.56326e-07
5.56313e-07
5.58317e-07
5.58324e-07
5.58348e-07
5.58376e-07
5.5418e-07
5.54098e-07
5.54165e-07
5.5424e-07
5.54329e-07
5.54424e-07
5.54812e-07
5.57078e-07
5.57206e-07
5.56191e-07
5.56339e-07
5.57822e-07
5.57989e-07
5.56522e-07
5.57601e-07
5.57799e-07
5.58002e-07
5.61011e-07
5.6123e-07
5.61461e-07
5.57489e-07
5.58412e-07
5.60082e-07
5.5684e-07
5.5714e-07
5.59724e-07
5.60022e-07
5.60184e-07
5.58214e-07
5.60488e-07
5.61133e-07
5.61471e-07
5.61816e-07
5.60894e-07
5.61247e-07
5.62408e-07
5.62188e-07
5.62564e-07
5.65566e-07
5.6565e-07
5.64121e-07
5.6375e-07
5.66767e-07
5.68692e-07
5.69124e-07
5.66209e-07
5.66255e-07
5.66866e-07
5.69021e-07
5.69487e-07
5.69961e-07
5.69753e-07
5.71031e-07
5.68685e-07
5.67868e-07
5.68387e-07
5.69234e-07
5.71064e-07
5.73011e-07
5.73538e-07
5.74058e-07
5.76041e-07
5.76093e-07
5.73564e-07
5.74124e-07
5.77756e-07
5.78343e-07
5.77844e-07
5.78452e-07
5.77818e-07
5.78339e-07
5.81822e-07
5.82419e-07
5.83018e-07
5.83609e-07
5.83954e-07
5.82641e-07
5.83266e-07
5.8603e-07
5.85116e-07
5.85199e-07
5.85904e-07
5.89633e-07
5.90295e-07
5.90061e-07
5.87352e-07
5.88006e-07
5.88659e-07
5.90606e-07
5.95958e-07
5.9664e-07
5.97336e-07
5.97993e-07
5.9101e-07
5.91685e-07
5.92368e-07
5.95808e-07
5.96885e-07
5.97591e-07
5.9831e-07
5.97787e-07
5.98325e-07
5.98949e-07
6.00167e-07
6.00329e-07
6.01057e-07
6.02775e-07
6.13742e-07
6.39374e-07
6.61269e-07
6.62131e-07
6.6304e-07
6.01543e-07
5.95292e-07
5.96221e-07
6.04929e-07
6.22806e-07
6.38295e-07
6.39109e-07
6.35163e-07
6.18436e-07
6.11683e-07
6.14352e-07
6.19243e-07
6.24102e-07
6.25666e-07
6.21949e-07
6.17088e-07
6.17077e-07
6.20396e-07
6.24349e-07
6.25104e-07
6.23767e-07
6.25336e-07
6.26079e-07
6.24606e-07
6.24631e-07
6.27642e-07
6.29482e-07
6.27561e-07
6.27073e-07
6.28953e-07
6.31516e-07
6.32417e-07
6.33155e-07
6.3098e-07
6.29727e-07
6.30483e-07
6.31458e-07
6.34357e-07
6.33e-07
6.33759e-07
6.36159e-07
6.36493e-07
6.37137e-07
6.39816e-07
6.45112e-07
6.45871e-07
6.43188e-07
6.45431e-07
6.46153e-07
6.44657e-07
6.40932e-07
6.41644e-07
6.42827e-07
6.52505e-07
6.705e-07
6.96089e-07
6.97032e-07
6.77561e-07
6.44496e-07
6.45291e-07
6.46057e-07
6.5556e-07
6.64566e-07
6.65277e-07
6.60711e-07
6.607e-07
6.64245e-07
6.68019e-07
6.64734e-07
6.5938e-07
6.60126e-07
6.65404e-07
6.66309e-07
6.63069e-07
6.62295e-07
6.62999e-07
6.66895e-07
6.69062e-07
6.65024e-07
6.65769e-07
6.67653e-07
6.70324e-07
6.68889e-07
6.66085e-07
6.68181e-07
6.73768e-07
6.7533e-07
6.76034e-07
6.71033e-07
6.74237e-07
6.78147e-07
6.78396e-07
6.79066e-07
6.79735e-07
6.80387e-07
6.81651e-07
6.82273e-07
6.8036e-07
6.80209e-07
6.80465e-07
6.78659e-07
6.78922e-07
6.79747e-07
6.90126e-07
6.96545e-07
6.88405e-07
6.78425e-07
6.95256e-07
7.62927e-07
7.63701e-07
6.93722e-07
6.85242e-07
6.85873e-07
6.91929e-07
7.04865e-07
7.0541e-07
6.9583e-07
6.92479e-07
6.93066e-07
6.94188e-07
6.93813e-07
6.9426e-07
6.96069e-07
6.9779e-07
6.97966e-07
6.98954e-07
7.01309e-07
7.00038e-07
6.95063e-07
6.95519e-07
7.01175e-07
7.03993e-07
7.03669e-07
6.93338e-07
6.93862e-07
6.94341e-07
7.0016e-07
7.08929e-07
7.0938e-07
7.07843e-07
7.08174e-07
7.06224e-07
7.03059e-07
7.0347e-07
7.03924e-07
7.03204e-07
7.02948e-07
7.0223e-07
7.01247e-07
7.01111e-07
7.00961e-07
7.01314e-07
7.03281e-07
7.03884e-07
7.04234e-07
7.06853e-07
7.11497e-07
7.11837e-07
7.08826e-07
7.11347e-07
7.14242e-07
7.12887e-07
7.11657e-07
7.0907e-07
7.09361e-07
7.09775e-07
7.11326e-07
7.11596e-07
7.11517e-07
7.09976e-07
7.11254e-07
7.11851e-07
7.12091e-07
7.12258e-07
7.11299e-07
7.11532e-07
7.14065e-07
7.12875e-07
7.11832e-07
7.12136e-07
7.11746e-07
7.09805e-07
7.09637e-07
7.10843e-07
7.14744e-07
7.18183e-07
7.17919e-07
7.1724e-07
7.18385e-07
7.16129e-07
7.15422e-07
7.15243e-07
7.14462e-07
7.13772e-07
7.13871e-07
7.15286e-07
7.15168e-07
7.14269e-07
7.14343e-07
7.14841e-07
7.18894e-07
7.16968e-07
7.16987e-07
7.18358e-07
7.22153e-07
7.31267e-07
7.69682e-07
7.89915e-07
7.89352e-07
7.75221e-07
5.95942e-07
5.92974e-07
5.90512e-07
5.89455e-07
5.88238e-07
5.871e-07
5.87204e-07
5.85632e-07
5.86639e-07
5.85339e-07
5.84319e-07
5.832e-07
5.82235e-07
5.82427e-07
5.81468e-07
5.80541e-07
5.79984e-07
5.78704e-07
5.7826e-07
5.75912e-07
5.76639e-07
5.75843e-07
5.75075e-07
5.74095e-07
5.69628e-07
5.68924e-07
5.70101e-07
5.68241e-07
5.6756e-07
5.72422e-07
5.71812e-07
5.71211e-07
5.70091e-07
5.68692e-07
5.67657e-07
5.62399e-07
5.61877e-07
5.61976e-07
5.64608e-07
5.64128e-07
5.63655e-07
5.61393e-07
5.63596e-07
5.6384e-07
5.61412e-07
5.60542e-07
5.60181e-07
5.59838e-07
5.59662e-07
5.60856e-07
5.60542e-07
5.6024e-07
5.59972e-07
5.59712e-07
5.59407e-07
5.58563e-07
5.59304e-07
5.59095e-07
5.60503e-07
5.6032e-07
5.60151e-07
5.5779e-07
5.57308e-07
5.58658e-07
5.58541e-07
5.57622e-07
5.56943e-07
5.59043e-07
5.57811e-07
5.52726e-07
5.52678e-07
5.5705e-07
5.58047e-07
5.58034e-07
5.58033e-07
5.55254e-07
5.55273e-07
5.54099e-07
5.5414e-07
5.57877e-07
5.5794e-07
5.58019e-07
5.57886e-07
5.57979e-07
5.58083e-07
5.57077e-07
5.55948e-07
5.56089e-07
5.56416e-07
5.56575e-07
5.5707e-07
5.57177e-07
5.57365e-07
5.5756e-07
5.59825e-07
5.60037e-07
5.60258e-07
5.62292e-07
5.62527e-07
5.618e-07
5.6071e-07
5.65399e-07
5.59109e-07
5.58833e-07
5.58963e-07
5.56888e-07
5.56719e-07
5.5835e-07
5.59268e-07
5.59604e-07
5.62361e-07
5.62082e-07
5.61244e-07
5.63431e-07
5.64807e-07
5.65182e-07
5.65566e-07
5.6555e-07
5.64109e-07
5.64525e-07
5.67759e-07
5.68689e-07
5.69126e-07
5.69822e-07
5.70267e-07
5.68902e-07
5.6807e-07
5.68535e-07
5.69638e-07
5.6975e-07
5.71035e-07
5.7051e-07
5.70321e-07
5.70892e-07
5.71732e-07
5.70747e-07
5.71043e-07
5.71564e-07
5.74739e-07
5.75267e-07
5.71424e-07
5.73562e-07
5.77184e-07
5.77757e-07
5.78333e-07
5.78926e-07
5.78646e-07
5.77816e-07
5.80574e-07
5.80894e-07
5.80765e-07
5.81362e-07
5.81963e-07
5.84409e-07
5.85034e-07
5.85659e-07
5.86294e-07
5.84703e-07
5.85191e-07
5.87518e-07
5.866e-07
5.86022e-07
5.86695e-07
5.87367e-07
5.88067e-07
5.93908e-07
5.96769e-07
5.97462e-07
5.89101e-07
5.86649e-07
5.87335e-07
5.89319e-07
5.93649e-07
5.94336e-07
5.9502e-07
5.95711e-07
5.96413e-07
5.9714e-07
6.00041e-07
6.00749e-07
6.00834e-07
6.00255e-07
6.02887e-07
6.04033e-07
6.11614e-07
6.33195e-07
6.60543e-07
6.61435e-07
6.62302e-07
5.99023e-07
5.94565e-07
5.95271e-07
6.0499e-07
6.1178e-07
6.11017e-07
6.12209e-07
6.19169e-07
6.22582e-07
6.19549e-07
6.1752e-07
6.18177e-07
6.24997e-07
6.22837e-07
6.22901e-07
6.18906e-07
6.16266e-07
6.17062e-07
6.21758e-07
6.2275e-07
6.22751e-07
6.23503e-07
6.25312e-07
6.26066e-07
6.24571e-07
6.24064e-07
6.24809e-07
6.25557e-07
6.26308e-07
6.27059e-07
6.29513e-07
6.31274e-07
6.31227e-07
6.3047e-07
6.292e-07
6.2974e-07
6.30957e-07
6.33419e-07
6.34721e-07
6.35392e-07
6.37296e-07
6.38932e-07
6.38728e-07
6.40737e-07
6.43772e-07
6.44648e-07
6.4066e-07
6.40149e-07
6.38732e-07
6.39721e-07
6.42371e-07
6.42328e-07
6.43551e-07
6.49698e-07
6.69037e-07
6.95326e-07
6.96211e-07
6.9719e-07
6.61158e-07
6.44541e-07
6.45297e-07
6.53322e-07
6.64834e-07
6.6308e-07
6.6084e-07
6.6116e-07
6.60681e-07
6.61808e-07
6.61233e-07
6.58637e-07
6.59378e-07
6.60132e-07
6.64602e-07
6.6553e-07
6.63637e-07
6.62286e-07
6.64194e-07
6.70122e-07
6.75347e-07
6.69816e-07
6.66159e-07
6.64052e-07
6.64748e-07
6.65425e-07
6.6608e-07
6.70584e-07
6.74666e-07
6.75342e-07
6.75456e-07
6.69288e-07
6.70115e-07
6.72794e-07
6.76624e-07
6.79846e-07
6.81334e-07
6.81977e-07
6.81016e-07
6.81637e-07
6.82486e-07
6.81981e-07
6.777e-07
6.78286e-07
6.81798e-07
6.92686e-07
6.9591e-07
6.96592e-07
6.97332e-07
6.78458e-07
6.74304e-07
6.80547e-07
6.88364e-07
6.91121e-07
6.93683e-07
6.89369e-07
6.91901e-07
6.91715e-07
6.8844e-07
6.87698e-07
6.87765e-07
6.89362e-07
6.91881e-07
6.92556e-07
6.93392e-07
6.94542e-07
6.94431e-07
6.95259e-07
6.98946e-07
7.01291e-07
6.99345e-07
6.98741e-07
7.01733e-07
7.03529e-07
7.04034e-07
6.96355e-07
6.93382e-07
6.9504e-07
7.03903e-07
7.06467e-07
7.06317e-07
7.0371e-07
7.04154e-07
7.04849e-07
7.05825e-07
7.04481e-07
7.03501e-07
7.03677e-07
6.99789e-07
6.99321e-07
6.99118e-07
6.99501e-07
6.99876e-07
7.00237e-07
7.01808e-07
7.03637e-07
7.06619e-07
7.07158e-07
7.07511e-07
7.07926e-07
7.12995e-07
7.15229e-07
7.15541e-07
7.14571e-07
7.12833e-07
7.12056e-07
7.11615e-07
7.11163e-07
7.10964e-07
7.1129e-07
7.11594e-07
7.11857e-07
7.11295e-07
7.10476e-07
7.10718e-07
7.11804e-07
7.1504e-07
7.15956e-07
7.17286e-07
7.17197e-07
7.1369e-07
7.09367e-07
7.08705e-07
7.0889e-07
7.09093e-07
7.09639e-07
7.1096e-07
7.14369e-07
7.16229e-07
7.16551e-07
7.18052e-07
7.18381e-07
7.18333e-07
7.14616e-07
7.15242e-07
7.15351e-07
7.14266e-07
7.13872e-07
7.13962e-07
7.14832e-07
7.14866e-07
7.19516e-07
7.19583e-07
7.19316e-07
7.19323e-07
7.1937e-07
7.19339e-07
7.19372e-07
7.23941e-07
7.35292e-07
7.56697e-07
7.75186e-07
7.75214e-07
5.94259e-07
5.90811e-07
5.90578e-07
5.90654e-07
5.90128e-07
5.88923e-07
5.89418e-07
5.88338e-07
5.87262e-07
5.86232e-07
5.84568e-07
5.84209e-07
5.83254e-07
5.8224e-07
5.79187e-07
5.80907e-07
5.80021e-07
5.79138e-07
5.78275e-07
5.75483e-07
5.74658e-07
5.74921e-07
5.75076e-07
5.74346e-07
5.73616e-07
5.74449e-07
5.7377e-07
5.73072e-07
5.72401e-07
5.69086e-07
5.67984e-07
5.6739e-07
5.66813e-07
5.66231e-07
5.68402e-07
5.67868e-07
5.67362e-07
5.6686e-07
5.61421e-07
5.59128e-07
5.62747e-07
5.60778e-07
5.60351e-07
5.6191e-07
5.62364e-07
5.61982e-07
5.61621e-07
5.61277e-07
5.6011e-07
5.5978e-07
5.59994e-07
5.59634e-07
5.59356e-07
5.5971e-07
5.5946e-07
5.59222e-07
5.59e-07
5.57186e-07
5.56988e-07
5.58617e-07
5.60844e-07
5.60685e-07
5.56816e-07
5.54895e-07
5.5478e-07
5.54672e-07
5.54575e-07
5.59042e-07
5.58971e-07
5.58908e-07
5.5884e-07
5.56279e-07
5.53898e-07
5.55654e-07
5.57067e-07
5.55409e-07
5.57594e-07
5.57626e-07
5.55919e-07
5.55974e-07
5.56039e-07
5.58017e-07
5.55995e-07
5.54254e-07
5.5436e-07
5.5448e-07
5.5461e-07
5.56994e-07
5.57897e-07
5.58055e-07
5.5822e-07
5.60249e-07
5.61255e-07
5.61452e-07
5.62984e-07
5.63194e-07
5.60258e-07
5.60485e-07
5.60719e-07
5.61795e-07
5.61344e-07
5.65403e-07
5.65676e-07
5.65961e-07
5.60035e-07
5.5406e-07
5.54364e-07
5.56376e-07
5.6009e-07
5.60772e-07
5.62359e-07
5.63689e-07
5.6404e-07
5.62042e-07
5.6242e-07
5.62791e-07
5.65563e-07
5.65963e-07
5.64997e-07
5.66797e-07
5.67217e-07
5.67386e-07
5.69327e-07
5.69819e-07
5.67858e-07
5.68324e-07
5.68998e-07
5.73293e-07
5.74124e-07
5.73701e-07
5.75797e-07
5.71999e-07
5.72507e-07
5.7289e-07
5.78247e-07
5.73088e-07
5.69761e-07
5.72919e-07
5.73445e-07
5.71579e-07
5.71422e-07
5.73144e-07
5.73702e-07
5.75752e-07
5.77809e-07
5.77663e-07
5.78246e-07
5.79993e-07
5.80573e-07
5.80842e-07
5.81486e-07
5.8344e-07
5.84048e-07
5.8351e-07
5.82035e-07
5.8266e-07
5.83294e-07
5.84053e-07
5.91468e-07
5.92604e-07
5.93271e-07
5.93955e-07
5.94632e-07
5.93647e-07
5.90851e-07
5.95814e-07
5.96484e-07
5.97484e-07
5.97997e-07
5.86662e-07
5.87326e-07
5.89371e-07
5.91429e-07
5.94622e-07
5.9531e-07
5.96003e-07
5.96696e-07
5.97794e-07
5.99612e-07
6.0072e-07
6.01434e-07
6.02154e-07
6.02867e-07
6.09586e-07
6.48978e-07
6.59759e-07
6.60802e-07
5.93602e-07
5.93038e-07
5.93813e-07
5.94536e-07
6.03274e-07
6.15467e-07
6.1492e-07
6.10128e-07
6.1088e-07
6.16283e-07
6.18134e-07
6.18586e-07
6.19366e-07
6.18143e-07
6.26573e-07
6.27338e-07
6.22174e-07
6.16443e-07
6.16258e-07
6.17015e-07
6.19179e-07
6.21382e-07
6.22719e-07
6.24535e-07
6.25295e-07
6.25331e-07
6.23313e-07
6.24062e-07
6.25725e-07
6.28223e-07
6.28403e-07
6.28224e-07
6.27664e-07
6.28414e-07
6.29161e-07
6.32318e-07
6.33612e-07
6.32937e-07
6.339e-07
6.35813e-07
6.37252e-07
6.38449e-07
6.41426e-07
6.44036e-07
6.44794e-07
6.44629e-07
6.43769e-07
6.45571e-07
6.38389e-07
6.37114e-07
6.37947e-07
6.41513e-07
6.42373e-07
6.41996e-07
6.42709e-07
6.54667e-07
6.94607e-07
6.95469e-07
6.96381e-07
6.58501e-07
6.4373e-07
6.4452e-07
6.52276e-07
6.64446e-07
6.65163e-07
6.58783e-07
6.58362e-07
6.59326e-07
6.59125e-07
6.58364e-07
6.58573e-07
6.58633e-07
6.59358e-07
6.61726e-07
6.64814e-07
6.68606e-07
6.70062e-07
6.70769e-07
6.73786e-07
6.73379e-07
6.77475e-07
6.77569e-07
6.6339e-07
6.64089e-07
6.64758e-07
6.65417e-07
6.71214e-07
6.74012e-07
6.74678e-07
6.69868e-07
6.67334e-07
6.68007e-07
6.70338e-07
6.75816e-07
6.79628e-07
6.80281e-07
6.78671e-07
6.79739e-07
6.81259e-07
6.81882e-07
6.82506e-07
6.7798e-07
6.77146e-07
6.78413e-07
6.86058e-07
6.95297e-07
6.95957e-07
6.96684e-07
6.94196e-07
6.73243e-07
6.73815e-07
6.77708e-07
6.8932e-07
6.92251e-07
7.00517e-07
6.93975e-07
6.88765e-07
6.86121e-07
6.86677e-07
6.87214e-07
6.87744e-07
6.89143e-07
6.90008e-07
6.90969e-07
6.92962e-07
6.92161e-07
6.89143e-07
6.89663e-07
6.90165e-07
6.90894e-07
6.93626e-07
6.98366e-07
7.03055e-07
7.03552e-07
7.02483e-07
6.99121e-07
6.97656e-07
7.01717e-07
7.05817e-07
7.06454e-07
7.06368e-07
7.08007e-07
7.08459e-07
7.07924e-07
7.11721e-07
7.1844e-07
7.10566e-07
7.07608e-07
7.02762e-07
7.00422e-07
6.99437e-07
6.99503e-07
6.99874e-07
7.02009e-07
7.03602e-07
7.03957e-07
7.04312e-07
7.05458e-07
7.07779e-07
7.12017e-07
7.1299e-07
7.13017e-07
7.10306e-07
7.10237e-07
7.09756e-07
7.09988e-07
7.10289e-07
7.10577e-07
7.11255e-07
7.11539e-07
7.11371e-07
7.11635e-07
7.11787e-07
7.11248e-07
7.12715e-07
7.18299e-07
7.28119e-07
7.34027e-07
7.39404e-07
7.25402e-07
7.19712e-07
7.11834e-07
7.08709e-07
7.0941e-07
7.09742e-07
7.09914e-07
7.09875e-07
7.10592e-07
7.14623e-07
7.1334e-07
7.12826e-07
7.14322e-07
7.15095e-07
7.14615e-07
7.14219e-07
7.13949e-07
7.14055e-07
7.15566e-07
7.16594e-07
7.15807e-07
7.14127e-07
7.14201e-07
7.17666e-07
7.20241e-07
7.20295e-07
7.1891e-07
7.18952e-07
7.21603e-07
7.22001e-07
7.26001e-07
7.35979e-07
7.79256e-07
7.79251e-07
5.96584e-07
5.9149e-07
5.92533e-07
5.91862e-07
5.91325e-07
5.89456e-07
5.89258e-07
5.87699e-07
5.87267e-07
5.86254e-07
5.84805e-07
5.84204e-07
5.83231e-07
5.81014e-07
5.79198e-07
5.7827e-07
5.77379e-07
5.78927e-07
5.78116e-07
5.76163e-07
5.75326e-07
5.74237e-07
5.73469e-07
5.7434e-07
5.73581e-07
5.71047e-07
5.73e-07
5.71794e-07
5.74345e-07
5.73688e-07
5.68624e-07
5.67383e-07
5.66804e-07
5.66233e-07
5.68411e-07
5.67871e-07
5.67358e-07
5.66859e-07
5.61999e-07
5.59125e-07
5.58841e-07
5.59132e-07
5.61019e-07
5.62758e-07
5.62364e-07
5.60181e-07
5.59819e-07
5.60313e-07
5.61189e-07
5.60114e-07
5.59797e-07
5.60247e-07
5.59974e-07
5.59707e-07
5.59458e-07
5.59136e-07
5.56812e-07
5.56602e-07
5.57965e-07
5.57782e-07
5.57612e-07
5.61359e-07
5.61047e-07
5.54895e-07
5.54777e-07
5.54671e-07
5.54573e-07
5.58069e-07
5.58969e-07
5.58911e-07
5.52633e-07
5.51e-07
5.50975e-07
5.5222e-07
5.57066e-07
5.55407e-07
5.55428e-07
5.55461e-07
5.56384e-07
5.58089e-07
5.58153e-07
5.58019e-07
5.55992e-07
5.57687e-07
5.57794e-07
5.55806e-07
5.55225e-07
5.55364e-07
5.55514e-07
5.55672e-07
5.58246e-07
5.60869e-07
5.6106e-07
5.58982e-07
5.60923e-07
5.61134e-07
5.64916e-07
5.67745e-07
5.67986e-07
5.60947e-07
5.58871e-07
5.65397e-07
5.65678e-07
5.59478e-07
5.53607e-07
5.54066e-07
5.58153e-07
5.60397e-07
5.60723e-07
5.60773e-07
5.61115e-07
5.61454e-07
5.64967e-07
5.65335e-07
5.64477e-07
5.6279e-07
5.63166e-07
5.65957e-07
5.6637e-07
5.66795e-07
5.67218e-07
5.63831e-07
5.64622e-07
5.66631e-07
5.67088e-07
5.68397e-07
5.70542e-07
5.73161e-07
5.75934e-07
5.76413e-07
5.7587e-07
5.71888e-07
5.72389e-07
5.72887e-07
5.78236e-07
5.7877e-07
5.67834e-07
5.67195e-07
5.684e-07
5.69611e-07
5.71282e-07
5.75069e-07
5.77088e-07
5.76084e-07
5.7666e-07
5.79276e-07
5.79852e-07
5.79545e-07
5.79351e-07
5.79935e-07
5.81738e-07
5.8344e-07
5.84054e-07
5.84679e-07
5.83321e-07
5.82666e-07
5.86143e-07
5.89629e-07
5.91953e-07
5.92606e-07
5.93288e-07
5.93971e-07
5.94641e-07
5.96591e-07
5.92621e-07
5.93486e-07
5.91088e-07
5.97497e-07
5.92835e-07
5.87654e-07
5.88372e-07
5.91316e-07
5.92731e-07
5.93421e-07
5.92906e-07
5.93987e-07
5.96032e-07
5.97612e-07
5.99583e-07
5.99535e-07
6.00248e-07
6.03255e-07
6.25425e-07
7.38207e-07
8.97877e-07
6.30366e-07
5.91568e-07
5.92347e-07
5.9309e-07
5.9381e-07
6.03938e-07
6.13984e-07
6.15478e-07
6.11833e-07
6.10138e-07
6.10888e-07
6.15765e-07
6.18079e-07
6.18719e-07
6.20922e-07
6.21713e-07
6.26557e-07
6.2733e-07
6.20129e-07
6.15488e-07
6.16242e-07
6.16995e-07
6.18709e-07
6.20918e-07
6.22948e-07
6.24522e-07
6.2507e-07
6.23934e-07
6.23943e-07
6.24876e-07
6.27211e-07
6.29188e-07
6.2994e-07
6.30697e-07
6.31459e-07
6.30559e-07
6.31302e-07
6.3319e-07
6.33938e-07
6.33925e-07
6.34007e-07
6.35057e-07
6.3839e-07
6.40033e-07
6.40794e-07
6.41554e-07
6.44446e-07
6.48895e-07
6.47282e-07
6.45591e-07
6.39371e-07
6.37117e-07
6.40803e-07
6.43367e-07
6.40912e-07
6.40211e-07
6.48625e-07
6.73381e-07
6.7421e-07
6.47638e-07
6.48271e-07
6.49156e-07
6.51505e-07
6.56825e-07
6.62977e-07
6.63981e-07
6.59577e-07
6.58387e-07
6.57877e-07
6.57612e-07
6.57724e-07
6.57143e-07
6.57239e-07
6.5796e-07
6.62121e-07
6.6603e-07
6.66732e-07
6.67445e-07
6.68154e-07
6.7033e-07
6.79178e-07
6.76695e-07
6.77528e-07
6.67312e-07
6.63426e-07
6.64096e-07
6.64754e-07
6.68747e-07
6.73359e-07
6.74019e-07
6.67941e-07
6.66654e-07
6.67339e-07
6.69804e-07
6.74986e-07
6.76263e-07
6.76916e-07
6.74676e-07
6.75225e-07
6.75864e-07
6.76652e-07
6.78367e-07
6.78773e-07
6.7654e-07
6.77123e-07
6.80429e-07
6.94702e-07
6.95343e-07
6.96035e-07
6.96815e-07
6.77882e-07
6.7848e-07
6.88472e-07
6.95838e-07
7.06026e-07
7.05017e-07
7.01007e-07
6.95673e-07
6.88604e-07
6.86105e-07
6.86651e-07
6.87194e-07
6.87903e-07
6.90377e-07
6.9137e-07
6.92817e-07
6.94626e-07
6.9516e-07
6.95694e-07
6.90383e-07
6.9248e-07
6.96307e-07
6.97122e-07
6.97716e-07
6.97924e-07
6.99465e-07
7.01238e-07
7.02734e-07
7.0512e-07
7.05629e-07
7.06089e-07
7.02605e-07
7.03056e-07
7.07027e-07
7.10633e-07
7.11074e-07
7.11959e-07
7.18436e-07
7.14713e-07
7.09441e-07
7.05351e-07
7.01113e-07
6.99127e-07
6.99503e-07
7.01187e-07
7.02555e-07
7.01007e-07
7.0136e-07
7.04081e-07
7.06398e-07
7.06746e-07
7.08669e-07
7.11181e-07
7.10652e-07
7.08261e-07
7.0755e-07
7.08717e-07
7.10028e-07
7.10323e-07
7.10577e-07
7.11187e-07
7.12765e-07
7.13035e-07
7.12442e-07
7.12964e-07
7.15702e-07
7.19406e-07
7.25514e-07
7.35103e-07
7.36281e-07
7.39406e-07
7.31838e-07
7.23578e-07
7.14294e-07
7.0973e-07
7.07816e-07
7.07994e-07
7.09143e-07
7.08474e-07
7.08632e-07
7.09035e-07
7.09835e-07
7.1228e-07
7.16902e-07
7.19881e-07
7.20006e-07
7.18244e-07
7.18804e-07
7.18909e-07
7.18197e-07
7.16594e-07
7.15832e-07
7.14168e-07
7.14826e-07
7.14443e-07
7.14503e-07
7.16101e-07
7.16732e-07
7.18968e-07
7.21603e-07
7.21401e-07
7.21422e-07
7.28615e-07
7.57137e-07
7.68445e-07
5.93591e-07
5.9442e-07
5.93702e-07
5.92516e-07
5.91349e-07
5.87901e-07
5.86768e-07
5.8626e-07
5.85877e-07
5.83664e-07
5.84643e-07
5.83731e-07
5.81526e-07
5.80539e-07
5.80524e-07
5.78639e-07
5.79655e-07
5.77468e-07
5.78117e-07
5.75772e-07
5.73921e-07
5.7311e-07
5.74977e-07
5.74351e-07
5.71806e-07
5.71046e-07
5.7197e-07
5.71038e-07
5.74219e-07
5.72108e-07
5.67978e-07
5.67375e-07
5.66797e-07
5.66233e-07
5.6842e-07
5.67878e-07
5.67352e-07
5.60856e-07
5.60373e-07
5.61567e-07
5.59108e-07
5.58659e-07
5.59064e-07
5.61342e-07
5.59382e-07
5.59e-07
5.61753e-07
5.61405e-07
5.61185e-07
5.60859e-07
5.60541e-07
5.60248e-07
5.59973e-07
5.59707e-07
5.58985e-07
5.58219e-07
5.56814e-07
5.56603e-07
5.56789e-07
5.57718e-07
5.61518e-07
5.61361e-07
5.55174e-07
5.54893e-07
5.54775e-07