/*--------------------------------*- C++ -*----------------------------------*\
  =========                 |
  \\      /  F ield         | OpenFOAM: The Open Source CFD Toolbox
   \\    /   O peration     | Website:  https://openfoam.org
    \\  /    A nd           | Version:  7
     \\/     M anipulation  |
\*---------------------------------------------------------------------------*/
FoamFile
{
    version     2.0;
    format      ascii;
    class       volScalarField;
    location    "4000";
    object      p;
}
// * * * * * * * * * * * * * * * * * * * * * * * * * * * * * * * * * * * * * //

dimensions      [1 -1 -2 0 0 0 0];

internalField   nonuniform List<scalar> 
160000
(
77528.1
77529.2
77531.6
77535
77538.8
77543.7
77550
77557.6
77567.6
77575.7
77583.8
77594.4
77605.6
77615.4
77626.4
77640.6
77657.4
77673.4
77686.5
77700.2
77718.2
77740.1
77762
77782.9
77807.1
77831.1
77849.5
77867.3
77888.3
77913.8
77945.9
77976.9
77999.9
78023.9
78058.2
78089.5
78114.1
78138.3
78168.9
78203.4
78234.6
78269.4
78301.3
78335.1
78367
78392.9
78424.3
78470.3
78514.1
78551.3
78590.6
78621.7
78653
78687.9
78721
78759.7
78796.4
78833.8
78892.1
78945.3
78975.2
79004.3
79050.5
79107.8
79170.2
79212.3
79250.3
79289.1
79331.6
79397.7
79438.2
79479.1
79528.2
79579
79632.9
79683.4
79734.4
79789.4
79839.9
79887.1
79931.5
79969.3
80011.3
80064.5
80113.6
80156.3
80205.9
80269.8
80334.4
80386.5
80440.8
80491.7
80530.7
80570.6
80623.8
80695
80763.5
80825
80887
80956.7
81021.8
81087.6
81146.2
81193
81249.2
81312.3
81378.4
81441.4
81495.6
81549.5
81604.2
81676.2
81744.8
81807.3
81884.4
81952.2
82019.2
82083.3
82132.3
82178.8
82236.2
82314
82389.8
82454.8
82514.1
82559.8
82605.7
82674
82749.7
82817.8
82895.6
82980.3
83034.2
83072.9
83119.5
83187.7
83256
83325.3
83420.7
83529
83598.2
83647
83709.3
83783.7
83835.2
83894.1
83968
84038.9
84115.4
84201.7
84287.6
84367.9
84457.8
84528.3
84599.7
84679.1
84751.6
84813.2
84875.4
84940.1
85004.7
85076.9
85155.3
85232.5
85316.6
85391.8
85445.5
85506.6
85580.1
85661
85735.9
85804.8
85894.5
85951.5
86002.1
86084.2
86165.3
86244.4
86302.2
86355.7
86437.6
86515
86583.3
86682.5
86771.5
86847
86922.6
87001
87079.4
87138.5
87193.2
87264.3
87343.3
87398.9
87440.4
87486.4
87532.8
87566
87602.2
87649
87699.2
87753.9
87804
87842.6
87876.1
87916.4
87981
88048.1
88101.9
88155.4
88208
88256.7
88310.8
88375.3
88430.4
88484.4
88553.3
88606.4
88651.9
88706.5
88756.8
88805.9
88868.3
88930.2
88989.2
89048.2
89108.2
89179.8
89252.2
89323.5
89432
89518.6
89582.6
89647.3
89721.1
89792.2
89869.2
89951.7
90040.1
90124.4
90201.7
90286.8
90356.3
90424.7
90499.9
90557.8
90609.6
90670
90729.2
90788.7
90846.7
90900.1
90963.2
91040.4
91108.1
91157.3
91212.6
91283.1
91347.8
91394.4
91438.2
91488.5
91543
91602.1
91658.6
91712.8
91774.4
91835.2
91887.8
91938.1
92006.9
92097.6
92176.6
92261.7
92335.1
92396
92446.9
92499
92581.1
92681.7
92760.7
92827.3
92885
92942.3
93008.4
93088.6
93155.6
93222.8
93273.7
93312.4
93356.8
93422.9
93504.9
93580.4
93656.1
93720.2
93784.5
93874.2
93943.5
93995.6
94056.4
94119.2
94176.9
94235.6
94300.9
94374.8
94444.8
94508.6
94577.4
94625.7
94672
94734.7
94795.8
94852.7
94927.3
95015.7
95090.7
95162.8
95227.7
95287.8
95360.8
95440
95505.7
95561.2
95627.5
95705.6
95761.6
95810.6
95873.7
95944.1
96009
96080.3
96161
96230.2
96297.7
96370.5
96430.7
96482.5
96527.8
96582.2
96682.5
96777.2
96855.8
96940.5
97008.9
97079.7
97189.2
97289
97381.8
97463.5
97537.9
97611.5
97668.1
97723.2
97797.4
97875.7
97942.8
98009.2
98090.8
98187
98279.8
98355.6
98421
98490
98554.6
98620.3
98694.9
98743.6
98793.2
98880.2
98994.6
99106.1
99201.4
99263.3
99328.6
99406.8
99479.6
99569.6
99665.8
99765.4
99851.7
99944.1
100030
100110
100196
100273
100343
100414
100492
100578
100666
100756
100834
100914
101008
101068
101124
101205
101260
101302
77528.9
77529.9
77532.5
77535.6
77539.7
77544.9
77551.1
77558.2
77567.2
77576
77584.2
77594.5
77606.9
77618.3
77629.1
77642.2
77659.4
77673
77685.3
77699.2
77717.3
77738.8
77759.8
77781.1
77806.6
77833.3
77852
77869.5
77890
77914.3
77943.5
77973.7
77999.7
78025.4
78059.3
78089.6
78113.3
78141
78176.7
78205.4
78233.2
78267.9
78301.4
78336.8
78367.5
78393
78425.8
78474.6
78517.2
78548.7
78581.8
78618.4
78656.2
78689.3
78722.5
78765.1
78801.9
78841
78888.4
78934.9
78974.8
79010.7
79053.6
79108.7
79165.2
79208.5
79253.1
79297
79342.6
79390.3
79432.3
79476
79526.2
79581.1
79634.8
79682.9
79733.2
79788.1
79838.7
79885.4
79929.1
79970.8
80017.7
80073.8
80119.3
80157.7
80204.8
80265.8
80329.6
80385.5
80435.4
80486.3
80530.3
80572.5
80630.5
80702.4
80768
80830.2
80890.7
80958.8
81022.6
81082.7
81148.9
81196.8
81244.2
81308.8
81375.9
81436.4
81493.5
81548.4
81603.9
81673.1
81745
81816.6
81889.6
81955.8
82020.9
82080.5
82133.1
82182.4
82235.7
82304.5
82379.7
82446.2
82508.2
82560.3
82613.6
82682.1
82750.9
82820
82901.1
82983.8
83031.7
83071.4
83123.6
83201.2
83260.2
83318.1
83421.3
83527.6
83599.8
83651.5
83709.5
83776.7
83831.4
83894.2
83969.7
84043.5
84126.5
84219.3
84288.1
84358
84458.4
84530.3
84596.9
84671.1
84742.6
84808.8
84878
84945.7
85011.5
85077.7
85147.7
85231.2
85321.3
85395.9
85450.3
85509.3
85577.6
85646.1
85722.5
85800.9
85896.1
85952.9
86011.3
86092.2
86160.7
86233.7
86300.9
86362.9
86442.3
86522.5
86603.6
86701.2
86778.8
86846.9
86921.5
87002.1
87078.3
87133.2
87185.1
87254.9
87343
87402.3
87445.3
87485
87525.2
87561.2
87597.4
87644.2
87694.1
87744.5
87795.5
87838.2
87872.7
87910.5
87971.5
88037.9
88092.5
88146.1
88199.1
88251.4
88302
88362.1
88425.7
88481.1
88539.3
88596.8
88648.8
88704.5
88758.5
88815.4
88875.2
88934.2
88992.8
89050.3
89110.6
89181.4
89252.8
89327.6
89429.8
89520.2
89582.4
89640.5
89712.3
89787.7
89867.4
89950.1
90039.6
90125.3
90206.9
90297.3
90361.9
90422.9
90497.5
90553.4
90599.2
90653.4
90723.3
90792.5
90854.9
90910.9
90961.2
91020.8
91092.4
91149
91210.2
91273.7
91331.6
91388.1
91443
91496.8
91549.5
91606.3
91658
91709.1
91772.5
91833.7
91884
91938
92016.6
92096.6
92171.1
92261.1
92336.1
92397.7
92445.5
92495.9
92585.2
92683.6
92761.4
92825.2
92884.1
92942
93004.1
93075
93145.2
93216.7
93274.9
93321.7
93372.2
93434.1
93503.7
93573.5
93648.3
93719.2
93791.4
93880.7
93942.7
93989.9
94044.7
94109.5
94173.3
94237.3
94300.2
94367.1
94433.9
94497.8
94564.6
94619.8
94673.4
94737.8
94796
94853.1
94921.1
95005.2
95090.2
95165.3
95229.6
95292.1
95363.2
95438.1
95503.1
95557.1
95620.6
95704.5
95765
95813
95871.9
95947.4
96006.9
96068.7
96155.7
96223.7
96287.2
96364.5
96424.5
96475.8
96530.8
96601.3
96692.4
96779.5
96856.3
96935.2
97011.9
97088.2
97177.8
97276.4
97376.2
97464
97540.7
97614.5
97671.8
97724.9
97795.3
97878.2
97945.6
98010.3
98089.9
98188.7
98281.5
98355.6
98419.6
98485.7
98547.5
98615.6
98685.6
98740.2
98801.8
98890.3
98984.9
99086.2
99183.4
99261.9
99335.5
99414.6
99497.5
99583.1
99676.4
99769.3
99850.6
99945.4
100022
100090
100186
100271
100343
100420
100499
100576
100663
100754
100830
100910
101001
101065
101126
101200
101257
101303
77530.6
77532.2
77534.5
77537.7
77541.4
77546.2
77552.6
77559.4
77567.6
77576.7
77585.1
77595.4
77609
77621.5
77631.8
77644.2
77658.8
77671.6
77685.7
77700.5
77717.6
77736.8
77757.2
77781.7
77806
77831.4
77853.8
77873.5
77892.2
77914.8
77945.5
77975.5
78002.1
78027.3
78056.3
78087.7
78114.2
78145
78181.7
78209.7
78236.2
78267
78301.2
78337.8
78366.3
78393
78432.8
78481
78519.4
78547.6
78575.9
78611.7
78654.9
78692.5
78728.9
78770.6
78808.3
78847.5
78886.9
78927.5
78975.4
79016.6
79055.8
79106.3
79164.6
79206.1
79246.3
79295.1
79342.2
79386
79434.4
79483.1
79529.8
79583.8
79635.4
79681.8
79734.2
79786.5
79832.8
79882.6
79929.9
79972.2
80019.1
80075.2
80124.8
80166.5
80212.9
80261.8
80318.8
80379.1
80429.5
80479.3
80530.5
80580
80640.6
80710.4
80774.8
80839.1
80900
80961.2
81023.7
81081.9
81142.1
81197.9
81246.1
81301.1
81366.7
81434.8
81497.7
81551.9
81610.9
81677.7
81743.3
81820.2
81891.4
81957.8
82022.6
82076.7
82126.9
82182
82242.2
82309.9
82375.6
82440.2
82502.3
82558.6
82619.4
82685.7
82754
82828.6
82906.6
82970.6
83023.5
83073.3
83129.6
83202.2
83267.1
83331.9
83423
83523.9
83600.3
83654.3
83710.6
83777.8
83833.5
83892.6
83969.1
84050.4
84136.7
84220.8
84290
84366.9
84463.4
84530.1
84589.7
84664.9
84738.1
84802.7
84876.2
84947.9
85016.6
85082
85148.7
85229
85318.4
85396.6
85457.5
85519.4
85581.4
85641.4
85711.3
85790.6
85872
85948.8
86031.4
86104.7
86164.8
86229.7
86302.6
86370.4
86443
86535.5
86630.5
86713.3
86784.5
86850.8
86920.7
86994.5
87065
87124.6
87183.8
87265.1
87341
87398.8
87444.5
87481.5
87516.7
87552
87587.8
87634.7
87687
87733
87776.4
87819.8
87865.8
87912.5
87976.7
88030
88076.6
88139
88192.8
88238.3
88288
88352.8
88417.6
88473.1
88527.7
88586.5
88649.4
88708.1
88759.3
88814.9
88875
88933.8
88995.1
89055
89119.3
89190.3
89253.7
89325.9
89421.7
89510.4
89582.6
89648.9
89712.7
89777.7
89858.2
89950.5
90047.9
90128
90207.2
90300.5
90366.2
90424.5
90488
90544
90589.6
90640
90718.4
90796.6
90860.1
90911
90960.6
91015.4
91076.7
91139.2
91201
91260.7
91319
91383.8
91446.9
91499.1
91551.8
91608.2
91662.6
91714.1
91766.7
91820.5
91876.7
91942.7
92018.6
92097
92177.1
92262.9
92333
92396.1
92445.4
92497.8
92589.5
92679.9
92758.2
92819.9
92875.9
92940.1
93007.2
93071.9
93137
93210.5
93272.8
93330.2
93386.3
93444.5
93513.1
93580.3
93645.8
93710.7
93785.4
93878.6
93935.7
93981.8
94038.5
94105.2
94172.4
94234
94292.2
94351.1
94415.5
94488.5
94557.3
94613.3
94672.5
94734.5
94789.6
94850.3
94925.3
95009.9
95086.9
95161
95229.6
95296.6
95363.9
95427.6
95489.2
95551.3
95626.7
95701.3
95762.6
95816.1
95876.3
95952.6
96010.7
96065.3
96142.6
96214.1
96276.4
96354.3
96415.6
96468.7
96532.5
96609.5
96697.3
96791.4
96866.9
96934.1
97013.3
97095.1
97173.1
97259.2
97366
97466.7
97541.8
97615.5
97673.1
97726.8
97805.3
97886.3
97950.4
98010.7
98081.7
98182.4
98281.2
98356.9
98417.2
98474
98531.3
98605.2
98679.3
98740.5
98817.1
98899.5
98978.6
99067.5
99162.5
99254.3
99337.3
99417.7
99505.2
99602
99696
99772
99848.3
99946
100019
100080
100166
100268
100349
100421
100494
100570
100659
100748
100825
100908
100991
101061
101134
101200
101253
101302
77532.8
77534.2
77536.4
77539.3
77542.9
77547.5
77553.6
77560.3
77567.8
77576.6
77586.1
77598.6
77612.1
77623.3
77633.3
77645.8
77659.8
77673.1
77687.8
77702.5
77719.6
77737
77757
77784.2
77805.4
77828.1
77855.2
77874.8
77894
77919.2
77948.3
77979
78007
78031.5
78056.6
78085.9
78116.6
78151.1
78186.7
78212.3
78236.8
78265.1
78299
78336.5
78368.4
78400.4
78440.1
78482.4
78517.6
78548.5
78577.2
78608.4
78651.2
78692.4
78728.9
78769.2
78811.3
78852.7
78892.5
78934
78978.6
79018.4
79057.5
79110.1
79166.8
79208.7
79248.8
79294.7
79338.6
79378.9
79426.9
79488.4
79540.1
79590.5
79632.7
79672.9
79726.4
79780.7
79830.6
79885.9
79930.1
79972.7
80023.8
80084.2
80131.3
80171.8
80217.4
80264
80318.1
80373.1
80425.7
80480.7
80531.6
80588.2
80655
80713.5
80771.2
80846.1
80913
80965.4
81019.4
81080
81138.3
81194.6
81247.1
81301
81361.7
81432.4
81497.2
81554.8
81623
81687.8
81747.5
81816.7
81887.9
81960.2
82027.8
82078.1
82124.1
82183.3
82248.1
82313.6
82377.1
82443.9
82499.6
82552.8
82616.2
82684.3
82757.8
82829.8
82903.1
82962.7
83017.7
83075.1
83132.1
83200.8
83271.2
83342.4
83425.2
83512.1
83589.2
83658.4
83723
83784.8
83841.8
83897
83965.9
84056.6
84148.2
84221
84289.7
84368.7
84451.9
84528.6
84596.8
84672.3
84739.2
84803.2
84883.3
84951.6
85013.7
85080.8
85147.6
85223.8
85318.3
85401.7
85463.5
85522.2
85580.1
85636.5
85705.7
85795
85875.4
85949.5
86028.9
86105.1
86170.7
86240.5
86317.7
86383.1
86448.8
86538.9
86643.9
86721.5
86786.4
86844.4
86907.3
86980.6
87056.5
87129.2
87205.1
87272.7
87323.8
87378.8
87433.5
87475.5
87507.9
87539.5
87574.4
87620.1
87674.3
87720.9
87760.8
87800.9
87851.2
87907.5
87972.3
88024.1
88070.8
88137
88183.8
88225.3
88276.6
88342.9
88408.3
88465.3
88520
88580
88646
88704.3
88758.4
88815.6
88873
88932.2
88998.3
89061
89125.6
89196.7
89262.8
89337.1
89413.6
89491.1
89580.1
89648.5
89712.2
89782.4
89858.2
89940.9
90035.1
90119.9
90204.8
90306.4
90370.9
90427.3
90483.4
90535.1
90582.4
90634.6
90716.2
90792.6
90853.9
90903.8
90957.3
91009.3
91062
91131
91192.5
91246.9
91306.4
91375.4
91443.7
91499.2
91551.5
91607.5
91667.6
91722.1
91770.5
91816.7
91874.7
91939.4
92001.8
92084.9
92182
92261.5
92330
92390.9
92444.7
92504
92583.3
92672.6
92754.8
92819.2
92879.5
92939.5
93001
93067.6
93134.6
93208.5
93267.2
93327
93400.7
93459.8
93519.2
93579.6
93639.2
93703.2
93779.5
93867.8
93931.8
93984
94038.9
94098.7
94155.8
94214
94279.6
94344.5
94411.7
94484.5
94551.1
94610.2
94675.4
94730.5
94781.5
94846.2
94923.6
95002.1
95080.8
95167
95230.8
95289.4
95355.2
95418.4
95482.7
95554.1
95634.5
95697.3
95757.4
95812.7
95868.2
95950.4
96018.1
96074.6
96139
96207.7
96269
96338.7
96405.1
96460.6
96531.7
96618.1
96702.8
96792.9
96876.2
96939.5
97008.5
97095.5
97179.9
97262.4
97355.2
97454.8
97531.5
97607.4
97675.8
97737.4
97815.7
97890.2
97956.8
98019.9
98085.7
98169.3
98264.8
98350.8
98417.3
98473
98521.7
98584.3
98664.8
98736
98817.1
98894.5
98969
99055
99147.2
99245.4
99343.1
99428.2
99515.8
99626.4
99714.4
99777.8
99846.8
99946
100015
100073
100152
100261
100351
100419
100491
100565
100642
100732
100818
100903
100988
101065
101137
101200
101255
101303
77534.5
77536
77538.2
77540.9
77544.6
77549.3
77555.2
77561.7
77569.1
77578.4
77589.6
77604.1
77615.3
77623.9
77633.8
77647.6
77661.9
77676.7
77691.5
77704.7
77719.2
77737.2
77758.5
77785
77808
77833.6
77858.7
77878
77899.5
77923.3
77946.9
77978
78009
78033.9
78057.9
78088.3
78123.6
78157.3
78185.5
78210.6
78238.4
78266.7
78298.1
78337.9
78373.9
78408.2
78448.3
78487.7
78517.4
78545.3
78576.3
78610.2
78651.3
78692.5
78732.2
78771.8
78813
78854.4
78894.8
78938
78982.4
79024.9
79066.4
79116
79172
79211.8
79249.7
79293.3
79337.6
79379.6
79427.9
79486.3
79535.6
79586.8
79632.6
79671.7
79720
79778
79834.4
79882.6
79926.1
79976.6
80030
80087
80134.7
80176
80221.7
80268.4
80317.3
80371.2
80430.1
80489.1
80538.3
80592.4
80659.8
80717.1
80773.2
80844.4
80914
80969.1
81020.3
81077.5
81138.4
81190.6
81245.1
81304.4
81366.1
81436.8
81497.9
81554.5
81625.6
81700.4
81760
81813.7
81874.3
81957.1
82036.8
82084.9
82129.1
82188.4
82252.1
82314.2
82379.5
82441.8
82493.4
82548.9
82618.9
82689.1
82759.4
82828.1
82899.7
82957.4
83012.7
83076
83135
83195.7
83269.8
83352.1
83428.4
83506.8
83585.1
83662.2
83726.5
83786.6
83848.5
83907.2
83977.6
84062.8
84145.1
84222.8
84301.6
84377.6
84449.9
84522.1
84595.2
84670.2
84742.7
84816.2
84896.6
84957.6
85013.3
85077.9
85145.8
85219.9
85314.3
85400.7
85460
85516.3
85578
85638.7
85715.3
85803.5
85878.4
85954.4
86031.6
86110.2
86185.6
86258.4
86333.1
86397.8
86462.1
86540.4
86630.6
86713.2
86780.8
86834.4
86891
86971.1
87069.1
87145.6
87209.2
87260.7
87300.6
87350.4
87417
87461.6
87493.3
87525.6
87561.7
87607.1
87661.2
87707.3
87747
87786.4
87835.8
87899.1
87964.5
88020.4
88073.6
88131
88173.9
88216
88275
88339.3
88408.9
88464.4
88511.6
88568.7
88632.4
88694.9
88759.1
88820.8
88875.8
88933
89001.4
89068.8
89135
89203
89270.4
89349.1
89417.9
89485.7
89571.9
89640.3
89706.1
89782.6
89861.9
89945.5
90036.6
90113.8
90194.2
90291
90365.6
90426.1
90480
90530
90575.9
90629
90713.7
90778.8
90834.9
90889.6
90943.4
91000.7
91056
91118.7
91186.2
91242.3
91300.1
91364.7
91430.7
91497.3
91553.6
91609.9
91672.8
91727
91769.7
91811.2
91866.3
91935.8
92006.6
92104.5
92192.8
92252.5
92315
92381
92439.3
92507.4
92585.5
92672.3
92749
92810.8
92873.3
92940.8
93006
93066.4
93125.3
93190.7
93262.1
93334.9
93406.9
93465.1
93521.2
93581.2
93643
93700.6
93766.1
93862.4
93933.4
93982.3
94030.6
94081.3
94134.9
94196.6
94265.3
94336.5
94419.3
94484.7
94546
94611.7
94678.4
94726.1
94771.9
94840.9
94923.9
95002.9
95078
95160.6
95228.6
95285.5
95347.9
95413.3
95481
95560.3
95634.2
95689.5
95747.7
95805.7
95859.7
95940
96022.7
96082
96133.3
96191
96262.3
96330.2
96396.9
96464
96546.8
96630
96705.6
96789.2
96872.2
96939.4
97013.7
97109.4
97193
97269.9
97353.1
97445.1
97521.4
97592.2
97668.3
97741.4
97821.7
97891.5
97958.3
98025.1
98093.6
98171.1
98258.8
98346.3
98418.7
98473.5
98518.1
98571.8
98646.7
98726.9
98806.8
98884.9
98963
99044.4
99129.2
99225.7
99350.9
99450.2
99531.1
99630
99722.3
99785.9
99850.5
99933
100008
100069
100151
100265
100352
100414
100482
100561
100638
100721
100803
100892
100996
101071
101131
101190
101253
101304
77536.9
77538.6
77540.8
77543.9
77548.1
77552.8
77557.6
77564.2
77572.5
77582.9
77593.7
77606.5
77616.8
77625.6
77636.4
77648.4
77662.2
77679.2
77695.5
77709.9
77723.8
77739.2
77759.7
77787.5
77812.5
77835.1
77859.1
77881.4
77906.8
77926.5
77947.1
77977.6
78009.3
78037.2
78063
78092.6
78126.3
78157.8
78185.8
78212.6
78241.3
78269.9
78302.8
78343.1
78377.5
78410.7
78450
78488.7
78521
78548
78575.8
78613.6
78655.4
78692.8
78733.9
78776.4
78815.6
78855.9
78900.4
78944.2
78988.9
79036.1
79075.2
79118.3
79172.6
79212.4
79248.5
79292.4
79339.3
79383
79431
79480.8
79525.9
79579.6
79632.4
79672.8
79717.1
79772.8
79830.8
79885
79932.4
79981.2
80036.6
80090.4
80136.2
80180.8
80229.1
80272.4
80316.1
80371.2
80438.6
80497.8
80542.1
80592.1
80660
80722.9
80782.5
80842.9
80903.5
80967.3
81026.3
81082.6
81134.6
81183.5
81241.6
81308.7
81380.4
81450
81501.3
81551.3
81620.9
81701.9
81766.3
81818.8
81876.7
81958.2
82040.5
82094.5
82139.3
82190.3
82254.6
82315.1
82381.6
82438.4
82487.7
82556.3
82624.8
82688.1
82756.2
82825.4
82893.9
82953
83012.1
83083.1
83142
83193.1
83255.5
83340.4
83426.8
83509.9
83591.1
83670.2
83731.2
83788.3
83854.2
83922.8
83990.9
84064.7
84145
84230.5
84307.3
84379.8
84447.5
84513.5
84589.3
84673.7
84762.4
84835.6
84903.8
84959.6
85010.4
85074.1
85151.7
85223.6
85298.6
85385.5
85455
85515.6
85579.4
85646.9
85726.7
85817.7
85886.6
85952.2
86032.6
86124.4
86202
86276
86348.1
86407.6
86470
86553.2
86634.6
86701.4
86758.9
86816.2
86885.5
86983.1
87088.7
87145.2
87192.3
87238.1
87275.3
87317.7
87385
87438.9
87475.4
87509.8
87549.5
87595.7
87650.1
87697.9
87737.1
87776.8
87828.4
87886.3
87947.8
88009.7
88064.9
88119.9
88169.3
88219.6
88278.8
88338.4
88407.7
88463.6
88507.3
88556
88618.8
88692.9
88761.5
88825.9
88882.5
88937.6
89000.6
89068.9
89141.6
89208.1
89272.5
89347.4
89430.7
89505.9
89568.3
89632.1
89706.8
89787.9
89865.8
89942.2
90020.8
90100.9
90191.7
90285.5
90355.8
90416.3
90473.1
90529.7
90573.8
90620
90700.7
90763.4
90816.6
90871.4
90927.6
90987.5
91046.5
91108.3
91175.6
91238.7
91304.7
91359.7
91415.8
91490.5
91555.5
91614.4
91671.5
91719.4
91763.9
91811.7
91870
91937.3
92015.6
92109.6
92193.7
92247.3
92301.7
92374.5
92440
92514.3
92587.2
92667.9
92741.3
92803.1
92866.2
92931.1
93000.2
93066.6
93130.9
93192.7
93259.2
93337.2
93405.2
93458.4
93513.6
93579.7
93645.4
93706.5
93777.4
93855.5
93923.8
93968.8
94016.2
94070.6
94122.8
94185.4
94258.8
94332.6
94419.5
94476.5
94532.4
94605
94673.5
94724.4
94773
94842
94924.9
95003.1
95077.3
95151.4
95219.8
95282.4
95345
95413.3
95490.8
95565.5
95627.5
95679.8
95736.3
95799.2
95857.8
95930.5
96019.1
96078.7
96129
96187.7
96255.9
96318.2
96385.6
96472.1
96561.9
96631.8
96699.8
96792.3
96879.6
96944.8
97016.3
97114.2
97206.3
97281.7
97350.1
97425.3
97513.9
97591.2
97661.2
97739.1
97819.4
97887.5
97958.4
98029
98100.8
98177.8
98260
98337.9
98414.6
98470.4
98513.5
98564.8
98637.5
98722.2
98800.4
98876.9
98957.3
99043.7
99125.7
99214.5
99341.4
99457.8
99540.5
99626.4
99720.4
99789.9
99854.4
99926.3
100006
100074
100151
100262
100345
100408
100478
100556
100631
100713
100798
100897
101007
101071
101124
101183
101249
101304
77540.9
77542.3
77544.4
77547.9
77552
77556
77560.6
77567.4
77575.5
77585.6
77596.8
77608.6
77618.1
77627
77638.4
77651.7
77666.9
77682.2
77699.4
77714.9
77727.8
77742.6
77766.3
77793.8
77817.5
77838.2
77859.7
77881.8
77907
77928.4
77950.2
77978.9
78010.6
78040.8
78069.3
78097.4
78126.3
78157.1
78188
78218.7
78247.3
78274.8
78308
78347.1
78379.6
78412.2
78451.5
78488.3
78521
78550.4
78580.2
78617.8
78658.7
78694.9
78735.7
78781.3
78821.6
78862.2
78908.6
78951.7
78996.8
79043.1
79079.3
79116.2
79165.5
79213.9
79251
79288.2
79333.8
79386.1
79437
79479
79521.3
79575.8
79628.6
79673.8
79722.2
79774.8
79830.9
79886.3
79935.4
79987.9
80046.2
80090.9
80133.2
80182.7
80232.4
80275.8
80321.9
80377.3
80444.4
80503.1
80548.2
80599.2
80666.5
80736.1
80791.9
80840.2
80893.8
80965.1
81026.5
81081.6
81130.7
81180.8
81247.1
81311.9
81383.9
81458.9
81505.6
81553.7
81631.3
81708
81770.5
81824.6
81886
81966.6
82042.8
82093.8
82141.8
82192
82247.5
82314.8
82386.5
82437.7
82486.6
82563.5
82632.9
82691
82751.4
82817.4
82891.7
82960.1
83023.3
83088.3
83140.8
83192.3
83251.1
83322.6
83425.7
83515.8
83596
83671.2
83737.8
83796.5
83857.3
83925.9
83998.5
84078.1
84160.5
84247.3
84308.9
84373.5
84445.8
84504.9
84582.3
84679.4
84777
84846.8
84910.5
84963
85009.4
85071.1
85160.6
85228.6
85296.4
85381.6
85460.1
85521.4
85579.5
85651.9
85729.6
85811.9
85888.8
85957
86037.8
86133.2
86212.3
86287.4
86361.2
86424.5
86489.3
86565.8
86633.1
86686.4
86738.5
86804.3
86890.6
86984.2
87069.5
87123.7
87175.2
87223
87258.1
87294.9
87351.9
87411.4
87456.3
87494.1
87534.1
87584.5
87642.4
87691.3
87732
87772.6
87821.1
87869.5
87925.5
87998.2
88053.9
88105.7
88166
88226.8
88281.3
88337
88404.4
88463.2
88508.6
88555.3
88615.1
88693.5
88760
88823.2
88886.6
88944.9
89001.9
89065
89138.7
89210.1
89281.2
89354.3
89441.3
89510.6
89569.3
89639.3
89717.6
89795.9
89868.1
89936.3
90008
90089
90182
90273.9
90344.2
90400.5
90454
90509
90569.2
90623.1
90688.7
90747.4
90800.4
90857.9
90918.8
90981.6
91038
91099.1
91163.6
91225.1
91289.2
91349
91412.4
91494.2
91558.1
91608.8
91662.2
91713.1
91764
91817.7
91871.1
91935.1
92012.9
92103.7
92187.7
92244.5
92301.4
92375.6
92442.1
92509.6
92579.5
92658
92736.9
92802.6
92864.6
92926.3
92995.5
93059.8
93127.4
93196.2
93265.2
93345.6
93406.4
93449.8
93500.2
93575
93649.6
93719.7
93784.3
93847.4
93904.6
93949.6
93996.7
94062.7
94120.7
94183.1
94252.6
94323.8
94403.2
94461.2
94514.9
94591.1
94671
94732.1
94788.6
94852.4
94924
94995.9
95071.3
95147.1
95213.4
95280.9
95341.8
95404.6
95487.2
95563
95623.9
95678.4
95732.9
95791.7
95858.5
95931.4
96002.2
96067
96125.1
96187.6
96252.4
96310.7
96376.2
96478
96570.7
96633.1
96695.5
96786.9
96879.7
96950
97024.2
97116.8
97212.5
97287.7
97350.1
97415
97494.4
97585.8
97666
97744.9
97817.9
97880.9
97951.4
98032.5
98110.2
98182.4
98254.1
98325.9
98404.2
98466.3
98513.7
98566.8
98633.8
98705.6
98782.9
98873.7
98958.9
99041.6
99122.5
99208.8
99324
99459.7
99557.1
99636
99712.2
99787
99863.1
99938.8
100013
100081
100156
100252
100332
100396
100466
100547
100627
100708
100794
100898
100993
101062
101125
101191
101257
101306
77545.4
77546.4
77548.7
77551.7
77555.4
77559.4
77564.5
77571.1
77578.8
77588.6
77599.8
77611.2
77620.7
77630.3
77642.6
77657.8
77671.4
77684
77700.4
77718.6
77733.9
77751.9
77773.2
77796.4
77821
77843.6
77861.3
77880.5
77907.4
77930.1
77954
77984.2
78016.5
78043.1
78068.5
78098.5
78130.3
78165.1
78196.2
78222.9
78251.6
78281.8
78315.3
78351.6
78382.6
78415.1
78452.2
78487.4
78518.8
78549
78584.7
78624.3
78661.8
78699
78742.2
78787.7
78829.9
78873.6
78919.2
78957.3
78998.1
79043.3
79080.8
79118.4
79164.7
79211.7
79251.3
79287.6
79329.8
79385.2
79435.7
79475.9
79518.6
79577.1
79630.2
79676.2
79724.5
79781
79841.6
79892.1
79939.4
79992.6
80042.7
80088.6
80136.4
80189.4
80238.6
80278.4
80322.7
80381.9
80449.5
80508.4
80558.2
80613.7
80674.5
80733.1
80793.8
80846.7
80896.7
80954.8
81019
81077.9
81128.8
81186.4
81255.1
81319.2
81391.4
81460
81511.3
81570.3
81643.2
81705.6
81773
81833.9
81899.9
81972.6
82035.1
82087.7
82142.7
82195.5
82250.1
82319.7
82388.1
82435
82482.1
82561.6
82642.8
82702.7
82754.9
82814.4
82894.6
82970.1
83027.9
83080.8
83134.9
83194.5
83253.7
83324.9
83437
83521.9
83589.5
83662.5
83742.7
83802.4
83859.8
83935.9
84021.2
84092.5
84164.9
84244.6
84312.9
84391.1
84451.9
84505.2
84581.2
84676
84770.1
84847.4
84917.2
84969.2
85017.4
85084.9
85165.9
85227
85292
85384.7
85474.5
85528.6
85577.2
85646.1
85738.1
85811.1
85876.6
85955.2
86053.2
86146
86222.8
86298.5
86381.5
86452.7
86511.9
86567.9
86620.2
86672.7
86726.6
86795.2
86893.2
86972.2
87033.9
87085.4
87140.7
87202
87241.9
87279.4
87328.3
87385.5
87437.6
87480.2
87520.1
87572.5
87631.5
87681.3
87725.4
87769.5
87816.5
87860
87908.3
87976.6
88039.1
88099.4
88167.2
88224.5
88280.1
88339
88403.2
88460.3
88508.7
88559.8
88618.9
88691.8
88764.7
88828.2
88886.7
88942.2
89002.8
89078
89145.5
89210
89283.9
89357.2
89437.8
89509.2
89571.8
89644.7
89723.6
89796.6
89865.4
89930.9
90004.6
90090.2
90172.5
90256.2
90330.4
90384.7
90435.5
90487.8
90551.4
90609.6
90666.1
90731.2
90791.3
90846.5
90909.6
90972.1
91026.7
91093.6
91158
91210.5
91271.1
91335.6
91406.1
91491.2
91557.4
91605.1
91654.4
91710
91765.9
91817.7
91867.8
91932
92007.3
92092.5
92172.5
92236.2
92302.2
92375.3
92443.8
92513.4
92577.1
92649.6
92732.7
92802.4
92864.4
92927.9
92999.3
93055.8
93115
93188.5
93265.2
93350.9
93406.6
93447.7
93493.3
93565
93650.3
93725.1
93780
93836.9
93887.5
93931.7
93982.2
94047.4
94115.9
94185
94249.7
94313.8
94380.2
94442.9
94504.9
94581.4
94671
94737.7
94794.4
94849.2
94912.7
94995.2
95072.8
95145.6
95210.2
95274.2
95337.5
95399.4
95478.2
95557.4
95616.8
95673.4
95728.3
95786
95863.2
95943.7
95999.9
96053.7
96120.8
96183.6
96246.5
96307.3
96376.3
96481.7
96570.7
96637.5
96706.3
96789.3
96880.9
96950.7
97023.6
97117.5
97212.6
97282.6
97345
97416.7
97491.4
97573.9
97669.5
97750.3
97813.8
97874
97944.2
98024.5
98107
98188.7
98254.3
98314.5
98381.9
98451.6
98512.5
98573.4
98639.4
98703.3
98774.2
98866.3
98953.7
99036.5
99118.5
99208.9
99321.6
99448.6
99559.3
99638.5
99710.8
99793.3
99877.4
99947
100012
100088
100165
100235
100308
100383
100460
100544
100625
100706
100797
100905
100981
101042
101116
101197
101264
101307
77549.7
77550.4
77552.3
77555.3
77559.2
77562.9
77567.7
77574.7
77583.1
77593.5
77603.5
77613.7
77623.7
77634.1
77647.3
77662.3
77675.4
77688.3
77706.5
77725.8
77742.5
77759.3
77777.5
77799.1
77822.2
77844.1
77863.6
77886
77910.9
77934.2
77960.7
77990
78020.2
78046.1
78072.4
78104.7
78137.4
78175.5
78202.1
78224.4
78251.2
78285.4
78321.2
78354.9
78385.9
78419.6
78453.8
78488.8
78519.8
78549.7
78588.6
78634.2
78668.2
78702
78748.4
78793.5
78836.1
78882.1
78924.9
78961
79000.8
79045
79083.7
79122.4
79162.9
79204.8
79250.2
79289.5
79330.1
79384.4
79435.8
79478.7
79525.4
79581.6
79629.7
79673.4
79726.5
79791.3
79850.9
79896.3
79940.4
79992.8
80043.4
80090.5
80141.1
80196.5
80243.5
80283.7
80328.4
80384.9
80450.6
80510.4
80565.1
80624.1
80682.7
80736.7
80796.7
80850.8
80899.4
80956.7
81022.2
81076.4
81127.3
81191.9
81255
81319.3
81391.7
81459.1
81522.8
81602.1
81657.6
81711
81774.3
81832.3
81900.1
81971.8
82030.7
82086
82146.1
82197.4
82252.1
82320.5
82383.2
82436.5
82491.3
82557.1
82635.2
82704.6
82766.9
82835
82900.8
82964
83023.3
83079.8
83138
83196.1
83259.2
83346
83444.1
83521.5
83584.1
83652.4
83739.8
83810.7
83879.7
83956
84027.4
84099
84180.1
84250.4
84315.7
84397
84459.8
84520.4
84591
84667.3
84759.6
84842.8
84920.4
84977.6
85031.9
85095.4
85156.7
85218.5
85294.3
85387.4
85476.5
85538.5
85592.5
85650.6
85725.3
85807.3
85880.4
85967.5
86069
86151.6
86228.3
86316.2
86415.5
86464.2
86510.9
86561
86609.4
86662.8
86721
86794.9
86883.1
86947.4
87008.3
87059.6
87109.4
87167.4
87215.5
87261.4
87311.5
87363.3
87417.3
87465.2
87507.5
87557.9
87620
87672.3
87717.2
87764.3
87813
87857.4
87904.5
87965.4
88029.3
88093.3
88157.5
88212.4
88270
88337.5
88405.1
88457.8
88508.4
88562.1
88622.1
88697.6
88769
88825.9
88882.5
88949.6
89015.4
89085.7
89151.2
89215.3
89287.5
89361
89432.9
89502.1
89578.1
89658.8
89729.2
89793.5
89859.7
89921.3
89988.5
90079.2
90161.6
90243.5
90318
90372.3
90421.1
90469.8
90527.6
90595.3
90656.5
90717.8
90780
90833.5
90893
90963.8
91020.7
91090.7
91156.2
91204.5
91255
91316.2
91389.6
91474.4
91544.1
91603.7
91667.5
91711.2
91754.5
91810.4
91868.5
91946.7
92011.2
92077.5
92153.2
92220.8
92298
92372.6
92444.4
92512
92574.3
92648.2
92730
92802.9
92862.5
92921
92985.4
93050.2
93117.7
93193.6
93271.3
93339.2
93400.5
93452.5
93501.9
93569.2
93647.4
93711.4
93763.3
93817.4
93876.3
93926.2
93976.9
94030.2
94092.1
94169.4
94245.8
94314
94371.4
94428.1
94496.2
94573.1
94662.3
94734
94796.3
94849.3
94907.5
94987.8
95062
95136.8
95208.6
95270.4
95332.9
95396.5
95465.4
95543.5
95609
95670.1
95730.9
95790.1
95858
95939.3
95998.3
96049.8
96114.2
96175.8
96233.4
96300.9
96388.7
96492.6
96580.4
96657.8
96725.4
96794.6
96880.8
96948.2
97016
97107.9
97204.6
97280
97348.3
97418.8
97486
97555.9
97645.6
97746.8
97815.3
97876.4
97947.8
98018.8
98099.2
98191
98256.8
98313.6
98370.7
98431
98502.7
98569.6
98636.2
98706.4
98782.8
98861.7
98938.4
99019.3
99112.8
99225.2
99343.4
99444.7
99544.3
99637.7
99718.1
99797.9
99870.3
99940.4
100010
100089
100171
100230
100290
100371
100453
100539
100626
100707
100794
100892
100971
101036
101110
101191
101256
101304
77554
77554.9
77556
77559.1
77562.7
77566.3
77571.9
77579.2
77588.2
77598.2
77607.8
77617.9
77628.1
77639.5
77652.1
77666.2
77681.3
77695.1
77714
77733.5
77749.9
77763
77778.5
77802.6
77824.8
77846.5
77870.1
77893.4
77916.2
77940.9
77967.9
77993.1
78020.3
78050.6
78082.1
78112.1
78140.2
78173.8
78206.6
78230.7
78256.6
78293.1
78328
78360.5
78392.7
78425.6
78456.4
78489
78519.5
78550.5
78592.7
78640.1
78673.3
78707.2
78753.6
78796.6
78840.2
78888.7
78929.4
78965.6
79006.9
79048.2
79086.3
79125.6
79161.6
79198.3
79245.7
79291.1
79335.2
79391.2
79443.2
79487.9
79534.1
79583.9
79631.4
79677
79732
79791.9
79846.4
79895.8
79947
80001.7
80047.1
80090.9
80143.5
80200.2
80248.1
80290.2
80335.1
80392.8
80453.3
80509.6
80568.8
80631
80696.3
80749.5
80802.6
80852.6
80900
80957.9
81023.7
81076
81127.6
81199.1
81258.6
81318.9
81388.6
81456.4
81529.6
81605.9
81665.5
81727.2
81778
81826.5
81895.9
81972.6
82033.4
82085.4
82142.5
82200.6
82262.3
82325.9
82382.2
82436.8
82495.4
82558.2
82631.9
82705.7
82774.7
82840.6
82901.5
82963.6
83025.4
83085.4
83146
83203.1
83272.3
83364.8
83435.4
83499.6
83579.6
83669.7
83760.9
83826.7
83890.9
83960
84029.1
84109.2
84196.4
84255.9
84315
84401.7
84469.8
84538.6
84599.2
84661.2
84759.2
84846.5
84920.9
84976.8
85032.3
85101.7
85162.6
85222.2
85296.4
85390.6
85473.6
85541.4
85605.9
85663
85728.6
85814.2
85890.6
85972.2
86073.8
86157.9