/*--------------------------------*- C++ -*----------------------------------*\
  =========                 |
  \\      /  F ield         | OpenFOAM: The Open Source CFD Toolbox
   \\    /   O peration     | Website:  https://openfoam.org
    \\  /    A nd           | Version:  7
     \\/     M anipulation  |
\*---------------------------------------------------------------------------*/
FoamFile
{
    version     2.0;
    format      ascii;
    class       surfaceScalarField;
    location    "4000";
    object      phi;
}
// * * * * * * * * * * * * * * * * * * * * * * * * * * * * * * * * * * * * * //

dimensions      [0 3 -1 0 0 0 0];

internalField   nonuniform List<scalar> 
319200
(
-1.0681e-16
-1.16913e-16
-2.69739e-16
-7.62449e-17
-4.22029e-16
-9.4229e-17
-6.00866e-16
-8.73024e-17
-7.43181e-16
-1.49957e-16
-8.45014e-16
-1.47091e-16
-9.13392e-16
-1.81954e-16
-1.03085e-15
-7.62391e-17
-1.28897e-15
2.86646e-17
-1.50332e-15
-5.28427e-17
-1.66562e-15
-9.57379e-17
-1.87359e-15
-3.41094e-17
-1.8938e-15
-2.50409e-16
-1.60488e-15
-5.53767e-16
-1.40576e-15
-4.1025e-16
-1.44106e-15
-1.83694e-16
-1.41761e-15
-2.18557e-16
-1.66338e-15
4.94341e-17
-2.09168e-15
2.03501e-16
-2.4522e-15
1.40359e-16
-2.74797e-15
8.39551e-17
-3.11115e-15
1.36893e-16
-3.66523e-15
3.18795e-16
-4.18669e-15
2.77622e-16
-4.44765e-15
4.25092e-17
-4.28298e-15
-4.19154e-16
-3.84897e-15
-6.87744e-16
-3.60988e-15
-4.69181e-16
-3.50938e-15
-3.32016e-16
-3.60593e-15
-9.56607e-17
-4.08963e-15
2.86821e-16
-4.73462e-15
4.29268e-16
-4.99696e-15
2.53515e-17
-4.96865e-15
-2.34621e-16
-5.0091e-15
-1.57237e-16
-5.17849e-15
-5.45229e-17
-5.55103e-15
1.4545e-16
-5.30146e-15
-4.91723e-16
-4.40506e-15
-1.07404e-15
-4.21378e-15
-3.80376e-16
-4.56895e-15
1.67332e-16
-4.90641e-15
1.51672e-16
-5.07225e-15
-4.95364e-17
-5.03244e-15
-2.29284e-16
-5.13155e-15
-1.14301e-16
-5.30344e-15
-3.85608e-17
-5.2502e-15
-2.30684e-16
-4.97265e-15
-4.33093e-16
-4.67149e-15
-4.76835e-16
-5.21574e-15
3.87914e-16
-6.61744e-15
1.21425e-15
-7.49802e-15
6.63479e-16
-7.10469e-15
-5.92334e-16
-6.93893e-15
-3.51738e-16
-6.83972e-15
-3.0673e-16
-6.22556e-15
-7.74065e-16
-5.34203e-15
-1.06699e-15
-4.75576e-15
-7.28892e-16
-5.23539e-15
3.35231e-16
-6.57387e-15
1.18106e-15
-6.84675e-15
6.78529e-17
-6.04075e-15
-9.65551e-16
-5.81855e-15
-3.7742e-16
-5.85662e-15
-1.08118e-16
-6.50555e-15
5.11596e-16
-7.3256e-15
6.42169e-16
-7.07297e-15
-4.15682e-16
-5.66396e-15
-1.57731e-15
-4.37898e-15
-1.41116e-15
-5.60696e-15
1.1158e-15
-7.08814e-15
1.30212e-15
-7.65491e-15
4.25001e-16
-8.10346e-15
2.77688e-16
-7.95973e-15
-2.89045e-16
-7.81995e-15
-2.89241e-16
-8.0067e-15
4.77065e-17
-8.30451e-15
1.51237e-16
-8.57997e-15
1.42148e-16
-8.92363e-15
1.93429e-16
-9.35805e-15
2.99918e-16
-1.002e-14
5.12182e-16
-9.80551e-15
-3.69927e-16
-8.80311e-15
-1.13817e-15
-7.5082e-15
-1.42479e-15
-6.34281e-15
-1.29651e-15
-6.17856e-15
-2.91354e-16
-6.41251e-15
1.08046e-16
-6.92004e-15
3.94183e-16
-7.62757e-15
5.85724e-16
-7.92331e-15
1.63106e-16
-8.90341e-15
8.70507e-16
-1.01474e-14
1.10575e-15
-1.03906e-14
1.06551e-16
-1.00665e-14
-4.54702e-16
-9.25833e-15
-9.2779e-16
-8.40511e-15
-9.56225e-16
-7.88927e-15
-6.2845e-16
-7.27558e-15
-7.18701e-16
-6.92343e-15
-4.57255e-16
-6.82242e-15
-1.95462e-16
-6.81938e-15
-1.08924e-16
-7.40639e-15
5.00626e-16
-7.13937e-15
-3.796e-16
-6.47396e-15
-7.64289e-16
-7.17857e-15
6.1273e-16
-7.72749e-15
4.4042e-16
-8.15465e-15
3.39164e-16
-9.13169e-15
8.71822e-16
-9.58828e-15
3.49377e-16
-9.8632e-15
1.75461e-16
-9.9849e-15
1.78827e-17
-1.03445e-14
2.77683e-16
-1.04092e-14
-3.50807e-17
-9.47181e-15
-1.02304e-15
-8.92764e-15
-6.26988e-16
-8.54445e-15
-4.70892e-16
-8.4373e-15
-1.86298e-16
-9.01678e-15
4.92507e-16
-8.97345e-15
-1.36544e-16
-8.32622e-15
-7.31046e-16
-8.47634e-15
7.08459e-17
-9.55387e-15
1.00297e-15
-1.10893e-14
1.45336e-15
-1.25368e-14
1.36353e-15
-1.37473e-14
1.12533e-15
-1.37571e-14
-8.10229e-17
-1.24023e-14
-1.44018e-15
-1.15103e-14
-9.62358e-16
-1.14285e-14
-1.55604e-16
-1.12536e-14
-2.48691e-16
-1.0748e-14
-5.7268e-16
-1.04953e-14
-3.14673e-16
-1.14381e-14
8.72659e-16
-1.2013e-14
4.93488e-16
-1.13501e-14
-7.36215e-16
-9.57595e-15
-1.84291e-15
-8.66944e-15
-9.67217e-16
-9.61889e-15
8.85198e-16
-9.68482e-15
8.79373e-18
-9.96139e-15
2.2515e-16
-9.7971e-15
-2.27436e-16
-8.89933e-15
-9.6273e-16
-8.98191e-15
3.66074e-17
-1.03327e-14
1.2912e-15
-1.12514e-14
8.52009e-16
-1.13434e-14
3.39926e-17
-1.11765e-14
-2.21846e-16
-1.06609e-14
-5.68644e-16
-9.4392e-15
-1.27206e-15
-7.85412e-15
-1.62961e-15
-7.85046e-15
-4.71681e-17
-8.91722e-15
1.01883e-15
-8.96009e-15
6.66382e-19
-8.74429e-15
-2.65403e-16
-9.13713e-15
3.53142e-16
-1.04115e-14
1.22771e-15
-1.17571e-14
1.30134e-15
-1.27274e-14
9.23389e-16
-1.24075e-14
-3.62255e-16
-1.13665e-14
-1.08282e-15
-1.04035e-14
-1.00214e-15
-1.03189e-14
-1.24772e-16
-1.12981e-14
9.42076e-16
-1.15489e-14
2.10473e-16
-1.11256e-14
-4.53912e-16
-1.03955e-14
-7.66456e-16
-9.40119e-15
-1.0298e-15
-9.11981e-15
-3.13466e-16
-9.56867e-15
4.15674e-16
-1.13468e-14
1.74759e-15
-1.35197e-14
2.13707e-15
-1.41921e-14
6.40582e-16
-1.41262e-14
-9.22497e-17
-1.37398e-14
-4.16001e-16
-1.2457e-14
-1.30905e-15
-1.12777e-14
-1.20309e-15
-1.20746e-14
7.72257e-16
-1.3745e-14
1.64612e-15
-1.41758e-14
4.0472e-16
-1.301e-14
-1.18956e-15
-1.26439e-14
-3.83704e-16
-1.13427e-14
-1.32149e-15
-9.30968e-15
-2.04986e-15
-7.77649e-15
-1.54854e-15
-6.92177e-15
-8.6978e-16
-6.99979e-15
6.32137e-17
-7.17976e-15
1.65449e-16
-7.1047e-15
-8.84947e-17
-7.2882e-15
1.7077e-16
-8.59444e-15
1.29206e-15
-1.02923e-14
1.68431e-15
-1.13285e-14
1.02373e-15
-1.07709e-14
-5.69759e-16
-9.21294e-15
-1.56938e-15
-7.24494e-15
-1.97785e-15
-7.30528e-15
5.3586e-17
-9.40092e-15
2.08707e-15
-1.11404e-14
1.72981e-15
-1.1806e-14
6.6135e-16
-1.1451e-14
-3.52646e-16
-1.06676e-14
-7.83581e-16
-9.93237e-15
-7.36683e-16
-9.49593e-15
-4.37779e-16
-9.24666e-15
-2.50248e-16
-1.00158e-14
7.68796e-16
-1.11446e-14
1.1297e-15
-1.15216e-14
3.80477e-16
-1.19057e-14
3.88629e-16
-1.19332e-14
3.16044e-17
-1.20228e-14
9.40029e-17
-1.20261e-14
8.3839e-18
-1.15947e-14
-4.25544e-16
-1.1561e-14
-2.76888e-17
-1.20775e-14
5.22817e-16
-1.18511e-14
-2.19051e-16
-1.14287e-14
-4.14584e-16
-1.25377e-14
1.11658e-15
-1.42241e-14
1.69605e-15
-1.44673e-14
2.5602e-16
-1.40955e-14
-3.58015e-16
-1.29328e-14
-1.14869e-15
-1.08375e-14
-2.08288e-15
-9.38808e-15
-1.43997e-15
-8.76705e-15
-6.11641e-16
-8.26375e-15
-4.92666e-16
-8.01573e-15
-2.3557e-16
-7.56369e-15
-4.36887e-16
-7.37429e-15
-1.77025e-16
-7.28574e-15
-7.24578e-17
-6.89643e-15
-3.74293e-16
-7.07215e-15
1.87564e-16
-6.94126e-15
-1.15026e-16
-7.01803e-15
9.2384e-17
-7.90593e-15
9.07133e-16
-8.77628e-15
8.89909e-16
-9.37163e-15
6.1628e-16
-9.60512e-15
2.52422e-16
-9.85769e-15
2.75088e-16
-9.95812e-15
1.1989e-16
-9.91298e-15
-2.25257e-17
-9.44996e-15
-4.42732e-16
-8.33409e-15
-1.09668e-15
-7.46608e-15
-8.46521e-16
-7.77215e-15
3.25991e-16
-8.20146e-15
4.51854e-16
-9.28771e-15
1.11077e-15
-1.19387e-14
2.68413e-15
-1.54054e-14
3.50715e-15
-1.67372e-14
1.38883e-15
-1.53054e-14
-1.36319e-15
-1.22554e-14
-2.98061e-15
-8.72036e-15
-3.49527e-15
-7.3041e-15
-1.38423e-15
-7.57138e-15
2.98198e-16
-8.43359e-15
8.94994e-16
-9.00049e-15
6.03124e-16
-8.50244e-15
-4.63959e-16
-9.73594e-15
1.26033e-15
-1.29018e-14
3.19746e-15
-1.47352e-14
1.88399e-15
-1.31094e-14
-1.56012e-15
-1.06297e-14
-2.43028e-15
-8.83442e-15
-1.75803e-15
-7.99547e-15
-8.10199e-16
-8.19356e-15
2.2871e-16
-8.79971e-15
6.42976e-16
-8.99612e-15
2.33631e-16
-9.38917e-15
4.20839e-16
-1.04886e-14
1.1349e-15
-1.04463e-14
1.00706e-17
-9.22227e-15
-1.17814e-15
-9.05075e-15
-1.30791e-16
-9.34656e-15
3.37993e-16
-9.08917e-15
-2.19717e-16
-8.84899e-15
-2.07488e-16
-8.70327e-15
-1.1381e-16
-9.24916e-15
5.83797e-16
-9.76354e-15
5.68287e-16
-9.24341e-15
-4.76451e-16
-8.75472e-15
-4.48386e-16
-8.52489e-15
-1.94141e-16
-8.80906e-15
3.27367e-16
-8.91822e-15
1.57473e-16
-8.85462e-15
-9.56784e-18
-9.23589e-15
4.35365e-16
-1.07042e-14
1.51892e-15
-1.22038e-14
1.55333e-15
-1.29933e-14
8.34186e-16
-1.27916e-14
-1.56486e-16
-1.05698e-14
-2.17591e-15
-8.12926e-15
-2.39789e-15
-7.15478e-15
-9.43735e-16
-7.53168e-15
4.13754e-16
-8.46191e-15
9.68849e-16
-9.38879e-15
9.66769e-16
-9.5421e-15
1.95392e-16
-8.62793e-15
-8.72018e-16
-8.0059e-15
-5.86946e-16
-8.1456e-15
1.92702e-16
-9.41162e-15
1.33075e-15
-1.14218e-14
2.10086e-15
-1.2949e-14
1.65404e-15
-1.30626e-14
2.33772e-16
-1.20237e-14
-9.46433e-16
-1.11395e-14
-8.05207e-16
-1.09082e-14
-1.61311e-16
-1.14418e-14
5.96911e-16
-1.19721e-14
6.02939e-16
-1.26961e-14
8.00582e-16
-1.33023e-14
6.78103e-16
-1.2373e-14
-8.60006e-16
-1.14458e-14
-8.72342e-16
-1.12717e-14
-1.22322e-16
-1.12139e-14
3.48842e-18
-1.18326e-14
6.92665e-16
-1.27169e-14
9.67735e-16
-1.22201e-14
-4.18843e-16
-1.13617e-14
-7.96287e-16
-1.08107e-14
-5.04063e-16
-1.01177e-14
-6.46496e-16
-9.93931e-15
-1.36535e-16
-1.03956e-14
4.99211e-16
-1.11039e-14
7.56938e-16
-1.22494e-14
1.21393e-15
-1.30847e-14
9.25045e-16
-1.28834e-14
-1.02499e-16
-1.14832e-14
-1.3083e-15
-1.03912e-14
-1.01472e-15
-1.01459e-14
-1.70933e-16
-9.13485e-15
-9.3835e-16
-9.03012e-15
-3.6044e-17
-1.00564e-14
1.09686e-15
-1.03128e-14
3.27519e-16
-1.12718e-14
1.02679e-15
-1.25547e-14
1.35066e-15
-1.33287e-14
8.41878e-16
-1.46255e-14
1.36194e-15
-1.62656e-14
1.71031e-15
-1.5273e-14
-9.06653e-16
-1.22991e-14
-2.8876e-15
-1.10554e-14
-1.1815e-15
-1.06498e-14
-3.46242e-16
-1.0531e-14
-5.37484e-17
-1.11414e-14
6.71467e-16
-1.05974e-14
-4.73978e-16
-9.63202e-15
-8.97503e-16
-1.06075e-14
1.0449e-15
-1.19335e-14
1.39785e-15
-1.24713e-14
6.11583e-16
-1.23009e-14
-1.00765e-16
-1.18241e-14
-4.11863e-16
-1.12999e-14
-4.65339e-16
-1.0431e-14
-8.07547e-16
-1.01119e-14
-2.58021e-16
-1.03076e-14
2.61743e-16
-9.95603e-15
-2.87911e-16
-9.50049e-15
-3.90497e-16
-9.33514e-15
-1.00523e-16
-9.37511e-15
1.01745e-16
-9.19181e-15
-1.29227e-16
-8.98006e-15
-1.60474e-16
-8.95655e-15
2.83452e-17
-9.12385e-15
2.24203e-16
-9.64143e-15
5.72364e-16
-1.09483e-14
1.37178e-15
-1.15919e-14
7.12793e-16
-1.32245e-14
1.69575e-15
-1.42131e-14
1.06361e-15
-1.28449e-14
-1.29152e-15
-1.17047e-14
-1.07431e-15
-1.26083e-14
9.65227e-16
-1.47804e-14
2.2379e-15
-1.7296e-14
2.58383e-15
-1.75912e-14
3.75761e-16
-1.65161e-14
-1.00885e-15
-1.49011e-14
-1.54001e-15
-1.21719e-14
-2.66701e-15
-1.01759e-14
-1.9342e-15
-9.08117e-15
-1.03823e-15
-8.58261e-15
-4.41786e-16
-8.683e-15
1.58504e-16
-8.53047e-15
-9.56914e-17
-9.85655e-15
1.38242e-15
-1.23273e-14
2.5342e-15
-1.35478e-14
1.28601e-15
-1.3866e-14
3.84264e-16
-1.3694e-14
-1.03088e-16
-1.27854e-14
-8.40912e-16
-1.18422e-14
-8.80545e-16
-1.2065e-14
2.85746e-16
-1.23851e-14
3.86737e-16
-1.25918e-14
2.72527e-16
-1.33124e-14
7.94615e-16
-1.37697e-14
5.32156e-16
-1.46929e-14
1.00257e-15
-1.56518e-14
1.06483e-15
-1.50995e-14
-4.53826e-16
-1.58991e-14
8.80422e-16
-1.6795e-14
1.01627e-15
-2.31887e-16
-1.62919e-16
-2.59932e-16
-2.65178e-16
-2.00332e-16
-3.32829e-16
-2.51952e-16
-4.41987e-16
-2.18973e-16
-5.88752e-16
-2.39288e-16
-8.25948e-16
-1.6045e-16
-1.04668e-15
-2.35272e-16
-1.16738e-15
-1.97439e-16
-1.29954e-15
-8.26726e-17
-1.44006e-15
-1.58586e-16
-1.57506e-15
-2.09372e-16
-1.67033e-15
-1.62675e-16
-1.84153e-15
-3.16818e-16
-2.02333e-15
-6.23647e-16
-2.00353e-15
-6.8356e-16
-2.05339e-15
-3.40087e-16
-2.56544e-15
8.61774e-17
-3.07016e-15
2.75877e-16
-3.02458e-15
-1.1303e-16
-2.85016e-15
-2.82078e-16
-2.88511e-15
-9.55471e-17
-3.22456e-15
2.45862e-16
-3.43079e-15
2.94795e-16
-3.26123e-15
-1.18853e-16
-3.404e-15
-4.16127e-20
-4.24078e-15
1.89242e-16
-4.75091e-15
-4.53156e-16
-4.56946e-15
-8.95329e-16
-4.58937e-15
-5.24529e-16
-4.7728e-15
-1.37339e-16
-4.36457e-15
-3.32799e-16
-3.82426e-15
-3.14569e-16
-3.56424e-15
-4.47517e-16
-3.68223e-15
-3.06527e-16
-4.242e-15
2.26814e-16
-4.75847e-15
2.40882e-16
-4.63595e-15
-2.06009e-16
-4.83008e-15
-4.49412e-16
-5.4039e-15
-7.16625e-16
-5.13795e-15
-8.6561e-16
-4.65222e-15
-5.08628e-16
-4.73206e-15
5.87018e-17
-4.96687e-15
-2.02314e-17
-5.18378e-15
-1.91816e-16
-5.7429e-15
2.32075e-16
-5.94413e-15
-5.85673e-17
-5.51902e-15
-8.30641e-16
-5.46277e-15
-6.56914e-16
-5.69732e-15
-4.30319e-16
-5.68529e-15
1.87368e-16
-5.44788e-15
8.04107e-16
-5.8092e-15
8.34453e-16
-6.66971e-15
9.86805e-17
-6.52506e-15
-6.93718e-16
-6.01383e-15
-9.56009e-16
-6.05557e-15
-9.07421e-16
-5.8907e-15
-1.40428e-15
-5.68875e-15
-1.08388e-15
-5.74197e-15
2.25184e-16
-5.58869e-15
8.63704e-16
-5.54496e-15
-1.40915e-16
-5.72647e-15
-9.51405e-16
-5.89329e-15
-3.58498e-16
-6.30405e-15
1.54751e-16
-5.97089e-15
1.72146e-17
-5.80817e-15
3.25246e-16
-6.99787e-15
6.30916e-16
-8.9695e-15
2.16906e-16
-1.05553e-14
7.46891e-20
-1.03781e-14
7.60771e-16
-8.84654e-15
-4.01429e-16
-7.37214e-15
-1.20538e-15
-6.73818e-15
-4.91524e-16
-6.84329e-15
-3.33554e-16
-7.15281e-15
-1.24996e-16
-7.38503e-15
1.33828e-16
-7.1846e-15
-1.81684e-16
-7.40705e-15
2.33096e-16
-8.44911e-15
1.10258e-15
-8.7314e-15
4.30486e-16
-8.15584e-15
-2.08894e-16
-8.36325e-15
-2.98394e-16
-9.36826e-15
-2.69135e-16
-1.06997e-14
-2.28083e-16
-1.07962e-14
-1.35582e-15
-9.31445e-15
-1.9263e-15
-7.96885e-15
-1.35701e-15
-8.26762e-15
5.6769e-16
-9.03985e-15
1.22974e-15
-9.98161e-15
9.68986e-16
-1.0307e-14
1.05501e-15
-1.03613e-14
1.03284e-15
-1.032e-14
-7.37165e-17
-9.62473e-15
-1.27813e-15
-9.66978e-15
-9.92744e-16
-9.77456e-15
-9.72074e-16
-9.64563e-15
-8.68924e-16
-9.17598e-15
-1.30312e-15
-8.46022e-15
-1.28408e-15
-8.49936e-15
-2.56167e-16
-8.56483e-15
-1.5627e-16
-8.28824e-15
1.22061e-16
-9.61074e-15
8.49232e-16
-1.02904e-14
-2.06769e-16
-9.43643e-15
-3.49647e-16
-1.01028e-14
1.00891e-15
-1.11766e-14
1.29993e-15
-1.06398e-14
2.22091e-16
-9.72585e-15
-6.64094e-16
-9.01313e-15
-6.37101e-16
-8.15221e-15
-9.37877e-16
-7.44083e-15
-5.15459e-16
-7.74931e-15
1.86659e-16
-8.5434e-15
-3.13028e-16
-9.05159e-15
-2.05737e-16
-9.38948e-15
-2.20841e-16
-9.48779e-15
-1.77845e-16
-9.76306e-15
6.74371e-16
-1.10557e-14
1.06182e-15
-1.19896e-14
1.093e-16
-1.10504e-14
-9.59229e-16
-9.57475e-15
-5.51691e-16
-8.7626e-15
5.63622e-16
-8.17233e-15
6.96603e-16
-7.87112e-15
7.48152e-16
-8.30812e-15
2.78599e-16
-9.17591e-15
-6.46649e-16
-9.83953e-15
-3.68112e-16
-9.72116e-15
-3.47961e-16
-9.21044e-15
-8.27981e-16
-9.32852e-15
-5.19741e-16
-1.18558e-14
2.15615e-15
-1.34648e-14
2.40167e-15
-1.27105e-14
-3.39206e-16
-1.25876e-14
-9.27523e-16
-1.44569e-14
-3.11346e-17
-1.37241e-14
-1.77372e-15
-1.11004e-14
-1.79875e-15
-1.11045e-14
-4.23199e-17
-1.15396e-14
6.01661e-16
-1.18702e-14
3.99858e-17
-1.21707e-14
-7.26017e-16
-1.21142e-14
-8.06781e-17
-1.07731e-14
-1.10755e-16
-9.61801e-15
-3.63287e-16
-9.90966e-15
2.7545e-16
-1.03626e-14
1.77143e-16
-1.02126e-14
-7.68705e-16
-1.0456e-14
-1.07591e-15
-1.20826e-14
-4.7831e-17
-1.19027e-14
-2.84024e-16
-1.00964e-14
-8.3118e-16
-9.66071e-15
-4.78904e-16
-1.01182e-14
1.44791e-16
-1.11019e-14
1.28954e-15
-1.08776e-14
9.53331e-16
-1.03778e-14
7.59886e-16
-1.04867e-14
9.88111e-16
-1.11557e-14
2.66583e-16
-1.1992e-14
-2.90726e-16
-1.23924e-14
-6.44062e-16
-1.18192e-14
-7.41044e-16
-1.08366e-14
-7.81678e-17
-1.09942e-14
3.33205e-16
-1.18772e-14
3.94731e-16
-1.26196e-14
-6.04466e-17
-1.22277e-14
-1.45977e-15
-1.11105e-14
-1.46412e-15
-1.01323e-14
-5.97695e-16
-9.29476e-15
8.76314e-16
-8.83738e-15
1.64864e-15
-9.64694e-15
1.42307e-15
-1.23182e-14
2.55381e-15
-1.37754e-14
1.01019e-15
-1.32309e-14
-1.87986e-15
-1.23003e-14
-2.1589e-15
-1.09493e-14
-6.0325e-16
-1.00524e-14
7.26685e-16
-9.61733e-15
-5.27073e-17
-1.00111e-14
-8.16023e-16
-1.05363e-14
1.22667e-16
-1.05983e-14
-1.27849e-15
-9.93e-15
-2.73466e-15
-1.02035e-14
-1.2892e-15
-1.02936e-14
-7.96554e-16
-9.72662e-15
-5.19027e-16
-9.77413e-15
1.98424e-16
-1.12979e-14
1.42033e-15
-1.42015e-14
3.05495e-15
-1.56922e-14
2.76156e-15
-1.38431e-14
-1.85917e-16
-1.07697e-14
-2.06068e-15
-9.97961e-15
-1.36678e-15
-1.05107e-14
-1.04529e-15
-1.15029e-14
-9.94365e-16
-1.21144e-14
6.54242e-16
-1.17639e-14
1.72524e-15
-1.17859e-14
1.74547e-15
-1.17281e-14
6.01904e-16
-1.16956e-14
-3.87532e-16
-1.15505e-14
-9.30941e-16
-1.18666e-14
-4.22575e-16
-1.37209e-14
1.41509e-15
-1.66176e-14
2.64568e-15
-1.70648e-14
1.21661e-15
-1.46125e-14
-1.32043e-15
-1.24542e-14
-1.77464e-15
-1.19724e-14
-8.99663e-17
-1.22493e-14
3.11501e-16
-1.15228e-14
-6.28702e-16
-1.07738e-14
-7.36406e-16
-1.16758e-14
4.81165e-16
-1.22054e-14
5.07228e-16
-1.1407e-14
-2.69754e-16
-1.15532e-14
-6.63888e-17
-1.21758e-14
2.15105e-16
-1.18314e-14
7.80202e-16
-1.089e-14
7.64266e-16
-9.9051e-15
-7.19027e-16
-9.03953e-15
-1.21425e-15
-9.24326e-15
-9.36332e-16
-1.07892e-14
-5.28934e-16
-1.20261e-14
-1.94205e-16
-1.27572e-14
1.29794e-16
-1.29161e-14
-3.21157e-16
-1.22568e-14
-8.80223e-16
-1.11915e-14
-1.48718e-15
-1.00974e-14
-1.25767e-15
-1.00227e-14
-1.31347e-16
-1.05498e-14
1.67922e-16
-1.11834e-14
8.36916e-16
-1.2632e-14
1.35037e-15
-1.25543e-14
3.61218e-17
-1.03428e-14
-1.2821e-15
-9.40619e-15
-2.98685e-17
-1.01979e-14
1.42755e-15
-1.10107e-14
1.08705e-15
-1.08282e-14
1.15096e-16
-1.00349e-14
-6.5432e-16
-9.76689e-15
-2.69862e-16
-1.03087e-14
1.1811e-16
-1.11272e-14
-2.59281e-16
-1.10914e-14
-8.60574e-16
-1.07226e-14
-2.03869e-17
-1.2285e-14
2.03718e-15
-1.38938e-14
2.75676e-15
-1.43659e-14
3.20116e-15
-1.33493e-14
2.54961e-15
-1.20034e-14
1.01033e-16
-1.14084e-14
-1.90665e-15
-1.17847e-14
-2.56927e-15
-1.31646e-14
-2.08754e-15
-1.2755e-14
-1.75923e-15
-1.1537e-14
-8.83915e-16
-1.14355e-14
8.28208e-16
-1.1258e-14
4.58484e-16
-1.20226e-14
3.30844e-16
-1.28057e-14
2.07627e-15
-1.15914e-14
2.02675e-15
-9.78701e-15
1.29696e-16
-9.84489e-15
-1.46095e-15
-1.08385e-14
-1.40603e-15
-1.15708e-14
-9.97028e-16
-1.18534e-14
-4.9668e-16
-1.07347e-14
-8.54429e-16
-9.2012e-15
-8.53149e-16
-9.85103e-15
9.12776e-16
-1.20179e-14
2.61975e-15
-1.24252e-14
1.58886e-15
-1.15622e-14
-7.98786e-16
-1.20777e-14
-6.21131e-16
-1.16877e-14
-4.8009e-16
-1.01488e-14
-1.15944e-15
-9.80468e-15
-5.29788e-16
-1.04305e-14
4.51345e-16
-1.10092e-14
5.00835e-16
-1.07668e-14
3.8709e-16
-9.9669e-15
-1.78502e-16
-9.71237e-15
-6.89413e-16
-1.02979e-14
1.73671e-16
-1.07127e-14
2.64861e-16
-1.13598e-14
1.025e-15
-1.23242e-14
1.17757e-15
-1.23958e-14
1.20713e-16
-1.12781e-14
-6.26938e-16
-1.00565e-14
3.46439e-16
-9.44602e-15
9.85722e-16
-9.45622e-15
8.83627e-16
-1.01821e-14
6.08601e-16
-1.09266e-14
-1.39064e-15
-1.06592e-14
-2.63168e-15
-1.03553e-14
-1.21185e-15
-9.10693e-15
-7.97477e-16
-7.51622e-15
-5.88159e-16
-7.228e-15
7.05674e-16
-8.6952e-15
1.69476e-15
-1.02927e-14
7.6259e-16
-1.10564e-14
2.22136e-16
-1.30462e-14
2.25593e-15
-1.37246e-14
2.11681e-15
-1.23465e-14
8.65043e-16
-1.06605e-14
8.11807e-17
-9.65222e-15
-6.92308e-16
-9.92797e-15
-6.04907e-16
-1.07533e-14
7.63142e-17
-1.20333e-14
1.18356e-15
-1.28258e-14
1.4524e-15
-1.21849e-14
2.28716e-17
-1.127e-14
-5.98993e-17
-1.08332e-14
2.92346e-16
-1.10962e-14
-5.47998e-16
-1.19773e-14
5.8755e-17
-1.29278e-14
8.85507e-16
-1.31357e-14
2.74307e-16
-1.15463e-14
-8.28842e-16
-9.55863e-15
-9.54608e-16
-9.77987e-15
-1.43677e-16
-1.06705e-14
1.37829e-16
-1.09883e-14
-1.43047e-16
-1.10272e-14
-5.66444e-16
-1.12784e-14
1.56989e-16
-1.30087e-14
2.27821e-15
-1.55867e-14
3.40083e-15
-1.55968e-14
1.32167e-15
-1.35673e-14
-1.00408e-15
-1.35666e-14
-3.33986e-17
-1.47184e-14
-9.88741e-17
-1.44416e-14
-1.22353e-15
-1.34606e-14
-1.08032e-15
-1.30469e-14
-1.28669e-15
-1.17291e-14
-1.29088e-15
-1.07163e-14
1.48212e-16
-1.12972e-14
9.68403e-16
-1.16409e-14
1.4313e-15
-1.13424e-14
1.11525e-15
-1.15073e-14
1.06763e-15
-1.1779e-14
1.69322e-15
-1.12773e-14
1.27194e-15
-1.18165e-14
-3.0402e-16
-1.34753e-14
-1.17075e-15
-1.39759e-14
-6.22398e-16
-1.26035e-14
-1.65551e-15
-1.08607e-14
-1.73897e-15
-1.03327e-14
2.05661e-16
-1.0615e-14
-1.22471e-16
-1.04847e-14
-9.60948e-16
-9.94421e-15
5.70464e-16
-1.01268e-14
1.64608e-15
-1.02377e-14
7.84434e-16
-9.95471e-15
-3.23363e-16
-1.0142e-14
-1.66967e-16
-1.04113e-14
-1.40429e-16
-1.08806e-14
-2.81875e-16
-1.07486e-14
-3.30011e-16
-9.42399e-15
-1.0044e-15
-8.59114e-15
-1.06627e-15
-8.22238e-15
-7.06307e-16
-8.23877e-15
-2.86781e-17
-8.8082e-15
7.24273e-16
-9.41407e-15
5.28961e-16
-9.59525e-15
7.2629e-17
-9.35392e-15
-1.58583e-16
-9.51835e-15
4.45592e-16
-1.07148e-14
1.82888e-15
-1.20767e-14
2.80404e-15
-1.24369e-14
1.14324e-15
-1.18209e-14
1.14582e-15
-1.06771e-14
-1.27251e-17
-1.0264e-14
-1.64578e-15
-1.00679e-14
-1.21591e-15
-9.92457e-15
8.78195e-16
-9.85544e-15
2.22365e-15
-9.76131e-15
2.54681e-15
-1.04172e-14
1.08931e-15
-1.11245e-14
-2.38994e-16
-1.22279e-14
-3.77213e-16
-1.38429e-14
-9.89723e-16
-1.31801e-14
-2.53358e-15
-1.18125e-14
-2.34928e-15
-1.18524e-14
-3.41753e-16
-1.19675e-14
3.39948e-16
-1.19959e-14
-1.7217e-17
-1.12209e-14
6.73296e-16
-9.92975e-15
1.30211e-15
-1.03994e-14
1.80726e-15
-1.0363e-14
4.11321e-16
-9.60878e-15
-7.98747e-16
-1.02642e-14
-1.29133e-16
-1.17444e-14
6.60555e-16
-1.22447e-14
8.52447e-16
-1.23109e-14
5.09767e-16
-1.30805e-14
1.10643e-15
-1.30568e-14
8.39842e-16
-1.27709e-14
3.10295e-16
-1.32787e-14
1.58242e-15
-1.29058e-14
7.83624e-16
-1.22296e-14
-1.05125e-15
-1.12363e-14
-1.34562e-17
-1.1025e-14
8.91379e-16
3.43073e-16
-1.35209e-16
-3.40757e-16
-2.48877e-16
-2.86289e-16
-3.88564e-16
-3.52458e-16
-5.21296e-16
-2.81807e-16
-6.8522e-16
-3.26931e-16
-8.22281e-16
-2.3288e-16
-1.09693e-15
-2.02628e-16
-1.32169e-15
-2.31823e-16
-1.55956e-15
-6.72922e-17
-1.96353e-15
-2.08231e-17
-2.22084e-15
-2.31467e-16
-2.14434e-15
-4.88099e-16
-2.20121e-15
-4.92406e-16
-2.6881e-15
-3.98067e-16
-3.17475e-15
-4.73705e-16
-3.40031e-15
-3.54491e-16
-3.25848e-15
-3.22084e-16
-2.84479e-15
-3.832e-16
-2.73966e-15
-4.43363e-16
-2.8525e-15
-4.23043e-16
-2.84273e-15
-3.35418e-16
-2.71278e-15
-1.05644e-16
-2.55987e-15
-5.83881e-17
-2.48015e-15
-3.9011e-16
-2.70284e-15
2.81878e-17
-2.95167e-15
2.36329e-16
-3.34903e-15
-2.63964e-16
-4.15466e-15
-3.02684e-16
-4.53177e-15
-3.94012e-16
-4.30871e-15
-5.69245e-16
-4.45203e-15
-4.00745e-16
-4.44543e-15
-5.43225e-16
-4.21948e-15
-8.8686e-16
-3.88498e-15
-8.51985e-16
-3.71012e-15
-1.24034e-16
-3.81822e-15
1.54129e-16
-3.76701e-15
-4.58594e-16
-3.77571e-15
-6.21065e-16
-3.95312e-15
-7.19725e-16
-4.3787e-15
-6.32648e-16
-4.88767e-15
-2.01597e-16
-5.26924e-15
2.41143e-16
-5.73257e-15
2.45488e-16
-6.22404e-15
1.04062e-16
-5.63415e-15
-5.78522e-16
-4.76526e-15
-1.10056e-15
-4.84305e-15
-9.22071e-16
-5.42344e-15
-2.46812e-16
-6.26599e-15
2.15981e-16
-6.01808e-15
-2.74029e-16
-5.0596e-15
-3.35368e-16
-4.74913e-15
3.59013e-16
-5.07117e-15
2.53056e-16
-5.86939e-15
-7.31369e-17
-6.93154e-15
-7.87401e-17
-8.13654e-15
1.15331e-16
-9.11913e-15
-6.10488e-16
-9.38815e-15
-9.94064e-16
-8.12262e-15
-1.23018e-15
-6.32665e-15
-1.0826e-15
-6.08654e-15
-5.412e-16
-6.7803e-15
-4.22766e-16
-6.98106e-15
-3.38985e-16
-6.53387e-15
-4.3812e-16
-6.32705e-15
-3.42929e-16
-5.67048e-15
-5.02172e-16
-4.81978e-15
-3.61396e-16
-4.71065e-15
-2.84969e-17
-5.223e-15
3.84452e-16
-5.54619e-15
9.36348e-16
-6.55251e-15
4.78773e-16
-7.16401e-15
-7.53226e-16
-6.41084e-15
-1.39722e-15
-5.86877e-15
-9.9827e-16
-6.60385e-15
4.73385e-16
-8.07027e-15
1.44851e-15
-9.33373e-15
9.30652e-16
-1.03102e-14
1.05071e-15
-9.69189e-15
3.26839e-16
-8.89239e-15
-5.05943e-16
-9.1274e-15
-1.16136e-16
-9.40822e-15
-1.61886e-16
-8.98521e-15
-8.34018e-16
-8.17115e-15
-1.16104e-15
-8.14228e-15
-1.51669e-15
-9.05023e-15
-1.14446e-15
-9.57202e-15
-9.75352e-16
-8.61548e-15
-5.26283e-16
-7.52134e-15
1.77995e-17
-7.72882e-15
1.0635e-15
-7.31793e-15
5.12036e-16
-6.13357e-15
-2.65458e-16
-6.13347e-15
-1.76558e-16
-6.45493e-15
-1.07179e-15
-6.2468e-15
-1.29895e-15
-6.85284e-15
-4.63576e-16
-8.17288e-15
3.39046e-16
-8.7415e-15
-8.50328e-16
-8.20041e-15
-1.93303e-15
-7.77587e-15
-7.82941e-16
-8.61094e-15
5.76296e-16
-8.92417e-15
3.27774e-16
-8.7364e-15
5.64952e-16
-9.67822e-15
6.28578e-16
-9.94539e-15
-1.95865e-16
-9.0291e-15
-1.28381e-17
-8.43826e-15
6.11171e-16
-8.54699e-15
2.39431e-16
-9.37373e-15
6.44926e-17
-9.64415e-15
-4.7207e-16
-9.22385e-15
-1.45225e-15
-8.16639e-15
-1.66481e-15
-7.61268e-15
-4.53798e-16
-8.36695e-15
3.61235e-16
-9.16811e-15
5.06658e-16
-9.21792e-15
-2.55628e-16
-8.74095e-15
-7.44847e-16
-7.95874e-15
-2.00517e-16
-7.43395e-15
4.49742e-16
-7.29959e-15
-1.06507e-16
-7.71554e-15
-6.21257e-16
-7.99916e-15
-3.47264e-16
-7.40004e-15
-1.17938e-16
-6.53516e-15
-2.429e-16
-6.35716e-15
4.99284e-16
-6.96099e-15
8.11762e-16
-8.17071e-15
4.93807e-16
-8.87182e-15
2.59559e-16
-8.96073e-15
-3.32849e-16
-9.84862e-15
-5.75542e-18
-1.10418e-14
6.0449e-16
-1.06086e-14
1.64879e-15
-9.37478e-15
1.09527e-15
-9.61425e-15
-1.64191e-16
-1.03568e-14
-2.4776e-16
-1.07599e-14
3.10185e-16
-1.20016e-14
-5.96673e-16
-1.24779e-14
-1.38744e-15
-1.25038e-14
-7.58598e-17
-1.36522e-14
1.68996e-15
-1.58631e-14
2.18498e-15
-1.58847e-14
-7.71923e-16
-1.39309e-14
-2.0925e-15
-1.28987e-14
-1.20266e-15
-1.14726e-14
-1.85191e-15
-1.05923e-14
-6.59941e-16
-1.10217e-14
5.53348e-16
-1.12731e-14
-5.68614e-16
-1.11741e-14
-1.22394e-15
-1.13978e-14
1.27093e-16
-1.19383e-14
2.03938e-16
-1.27631e-14
-5.39358e-17
-1.48444e-14
1.55423e-15
-1.5227e-14
4.72757e-16
-1.28528e-14
-1.13588e-15
-1.10612e-14
-8.78748e-16
-1.02187e-14
-1.28136e-16
-9.28914e-15
1.59489e-17
-8.3838e-15
-6.78067e-16
-8.24426e-15
-4.68045e-16
-9.34262e-15
4.17723e-16
-1.03577e-14
2.32978e-16
-1.06731e-14
1.97874e-16
-1.10491e-14
6.73838e-16
-1.07933e-14
1.04819e-16
-1.02444e-14
-6.42415e-16
-1.0738e-14
-9.98976e-16
-1.1827e-14
-4.08801e-16
-1.29199e-14
4.59556e-16
-1.33596e-14
1.2787e-15
-1.27104e-14
9.64289e-16
-1.0867e-14
-4.48914e-16
-8.09426e-15
-2.4563e-16
-7.22831e-15
1.20702e-16
-9.60808e-15
4.78901e-16
-1.19639e-14
1.73062e-16
-1.17728e-14
-8.20346e-16
-9.95897e-15
-1.11207e-15
-8.61228e-15
-1.42021e-15
-8.00123e-15
-1.44722e-15
-7.64523e-15
-2.51818e-16
-9.02548e-15
8.53533e-17
-1.07879e-14
-9.88374e-16
-1.10344e-14
-1.05966e-15
-1.1698e-14
-1.48799e-16
-1.38732e-14
1.63805e-15
-1.66714e-14
2.97612e-15
-1.85199e-14
3.24641e-15
-1.7371e-14
1.88194e-15
-1.30712e-14
-1.55931e-15
-9.92903e-15
-3.3313e-15
-9.23155e-15
-2.76416e-15
-1.03104e-14
-2.93959e-16
-1.21347e-14
7.7052e-16
-1.37505e-14
6.10622e-16
-1.35359e-14
4.27908e-16
-1.24841e-14
6.62543e-16
-1.20332e-14
1.28584e-15
-1.2011e-14
5.74049e-16
-1.22816e-14
-1.20597e-16
-1.27885e-14
-4.26955e-16
-1.32013e-14
-1.19392e-17
-1.28825e-14
1.09467e-15
-1.1963e-14
1.72523e-15
-1.12797e-14
5.33194e-16
-1.19938e-14
-6.05217e-16
-1.26452e-14
-1.12187e-15
-1.23361e-14
-3.9661e-16
-1.10206e-14
-1.00135e-15
-1.03442e-14
-1.30171e-15
-1.10347e-14
-4.20816e-17
-1.14619e-14
9.12728e-16
-1.09864e-14
3.66391e-17
-1.10972e-14
-1.53509e-16
-1.12164e-14
5.87695e-17
-1.0993e-14
-1.46894e-18
-1.02916e-14
8.65668e-17
-9.48746e-15
-3.16686e-17
-9.83378e-15
-3.64708e-16
-1.09216e-14
-1.18571e-16
-1.1407e-14
-4.42478e-16
-1.14229e-14
-5.0363e-16
-1.17854e-14
1.79383e-16
-1.18977e-14
2.53956e-16
-1.17242e-14
-4.82239e-16
-1.14329e-14
-1.1584e-15
-1.19961e-14
-9.11255e-16
-1.22717e-14
-9.67946e-16
-1.10016e-14
-1.38595e-15
-9.78584e-15
-1.03292e-15
-9.92703e-15
9.92969e-16
-1.04352e-14
1.87539e-15
-1.08067e-14
4.26213e-16
-1.22445e-14
1.7229e-16
-1.24557e-14
2.00403e-16
-1.05156e-14
-4.90996e-16
-9.6066e-15
1.96677e-16
-1.06536e-14
1.18047e-15
-1.27259e-14
1.43763e-15
-1.44008e-14
1.42764e-15
-1.47734e-14
5.12445e-16
-1.45901e-14
-4.22194e-16
-1.45236e-14
-9.05232e-16
-1.42896e-14
-2.30051e-16
-1.37636e-14
1.54425e-15
-1.34594e-14
2.49302e-15
-1.25534e-14
2.35393e-15
-1.02168e-14
3.03663e-16
-8.87495e-15
-1.17495e-15
-9.11726e-15
-1.62839e-15
-9.935e-15
-1.72528e-15
-1.09113e-14
-1.08128e-15
-1.11395e-14
-1.4971e-15
-1.15511e-14
-4.38057e-16
-1.13565e-14
6.64757e-16
-1.08617e-14
-6.24464e-18
-1.1143e-14
6.43086e-16
-1.08965e-14
1.86514e-15
-1.00058e-14
1.17506e-15
-9.85889e-15
1.8482e-17
-1.06895e-14
-5.99951e-16
-1.11993e-14
-8.66529e-16
-1.17137e-14
-4.51727e-16
-1.21677e-14
-1.02769e-17
-1.22398e-14
-7.48403e-16
-1.15364e-14
-1.5238e-15
-1.01972e-14
-3.9345e-16
-8.78806e-15
1.24915e-15
-7.6689e-15
5.10002e-16
-8.8023e-15
3.72905e-16
-1.12199e-14
1.83161e-15
-1.24913e-14
8.31137e-16
-1.25897e-14
-1.01978e-15
-1.28717e-14
-2.11823e-16
-1.28385e-14
4.54533e-16
-1.34367e-14
1.13927e-15
-1.35981e-14
5.95627e-16
-1.27796e-14
-9.44469e-16
-1.36558e-14
2.30169e-16
-1.39433e-14
5.06155e-16
-1.37008e-14
7.21238e-17
-1.24644e-14
-1.58912e-16
-1.04264e-14
-8.08536e-16
-1.00937e-14
-1.63981e-16
-1.12776e-14
5.98413e-16
-1.14772e-14
5.85774e-16
-1.08324e-14
3.81514e-16
-1.03993e-14
4.8942e-16
-1.12749e-14
1.52337e-15
-1.36117e-14
9.85872e-16
-1.38549e-14
-2.35034e-15
-1.22934e-14
-2.73751e-15
-1.27273e-14
-3.30601e-16
-1.42042e-14
9.30233e-16
-1.53456e-14
1.90728e-15
-1.53422e-14
1.7661e-15
-1.50746e-14
5.52593e-16
-1.61479e-14
1.36298e-15
-1.45443e-14
7.6604e-16
-1.15598e-14
-7.32247e-16
-9.93908e-15
-6.48873e-16
-9.67173e-15
-1.1406e-16
-1.18752e-14
1.56913e-15
-1.43872e-14
1.96215e-15
-1.51909e-14
9.38187e-16
-1.38827e-14
-6.7737e-17
-1.1772e-14
-6.07105e-16
-1.10829e-14
-6.18123e-16
-1.10611e-14
-3.4672e-17
-1.03962e-14
-3.25101e-16
-9.97974e-15
-9.16102e-16
-1.00784e-14
2.08295e-16
-1.00391e-14
9.00626e-16
-9.90255e-15
1.95826e-16
-1.04463e-14
-2.28218e-16
-1.17266e-14
3.76587e-16
-1.20781e-14
2.53765e-16
-1.0926e-14
-9.67781e-16
-1.07314e-14
-2.91515e-16
-1.24184e-14
1.16635e-15
-1.41097e-14
1.89991e-15
-1.38221e-14
2.05665e-15
-1.14904e-14
1.15645e-15
-9.52399e-15
-5.70342e-16
-9.38528e-15
-1.07788e-15
-9.3418e-15
-2.33855e-17
-9.43356e-15
4.81497e-17
-1.06304e-14
3.55738e-17
-1.22839e-14
6.34812e-16
-1.33234e-14
-1.89501e-16
-1.24405e-14
-2.11577e-15
-1.045e-14
-1.78309e-15
-9.65194e-15
2.24929e-16
-8.99603e-15
8.27456e-16
-9.04779e-15
1.21785e-15
-9.56744e-15
1.63553e-15
-1.00883e-14
2.26247e-15
-1.01313e-14
1.36567e-15
-1.04156e-14
3.0155e-17
-1.0543e-14
-9.95159e-16
-1.05078e-14
-6.0909e-16
-1.19772e-14
-1.37563e-16
-1.21917e-14
-1.47209e-15
-1.09795e-14
-9.49629e-16
-1.16888e-14
6.45533e-16
-1.25555e-14
-3.22158e-17
-1.10725e-14
-8.43573e-16
-9.04949e-15
-3.07979e-16
-8.92874e-15
7.2195e-16
-1.02989e-14
1.09985e-15
-1.17786e-14
1.36836e-15
-1.28421e-14
9.81536e-16
-1.25179e-14
-5.43346e-16
-1.10607e-14
-1.72538e-15
-1.0944e-14
-1.06415e-15
-1.13368e-14
-6.21365e-16
-1.09282e-14
-1.0591e-15