/*--------------------------------*- C++ -*----------------------------------*\
  =========                 |
  \\      /  F ield         | OpenFOAM: The Open Source CFD Toolbox
   \\    /   O peration     | Website:  https://openfoam.org
    \\  /    A nd           | Version:  7
     \\/     M anipulation  |
\*---------------------------------------------------------------------------*/
FoamFile
{
    version     2.0;
    format      ascii;
    class       volScalarField;
    location    "4000";
    object      rho;
}
// * * * * * * * * * * * * * * * * * * * * * * * * * * * * * * * * * * * * * //

dimensions      [1 -3 0 0 0 0 0];

internalField   nonuniform List<scalar> 
160000
(
22.5817
22.5809
18.1437
18.0879
16.2801
16.5477
22.4943
28.1317
21.7463
20.739
19.3255
18.2555
18.482
18.4993
18.499
20.8036
22.7807
22.7798
23.5076
23.5069
23.5062
17.8543
17.8537
19.4023
22.4547
17.4104
17.4099
17.4093
18.5754
21.7411
19.8288
19.8277
22.1089
22.1073
22.1077
18.0325
18.0321
18.0317
20.6121
22.4296
22.4306
22.4294
17.4956
17.4953
17.4949
17.4946
24.2486
24.7069
24.7053
24.7062
18.799
18.3929
18.3921
18.3935
18.391
20.6655
23.4882
23.4888
20.2619
20.1539
20.1535
20.7988
21.1514
21.1515
20.6599
20.6573
20.6597
20.6572
20.6573
17.6493
17.6489
17.6485
17.648
18.1672
21.411
22.3904
22.3895
22.3904
22.3896
22.3907
22.3897
22.3905
22.3898
21.1128
19.7171
19.7174
19.7171
19.7173
20.0491
20.0472
19.4659
19.4647
21.3589
21.6059
21.6064
20.6118
21.7879
21.7872
21.7885
21.7869
21.7886
21.4281
21.4256
21.4275
19.4263
19.4264
19.4265
19.4265
20.0235
23.2546
23.2601
23.2553
23.2571
23.256
21.8378
21.8388
20.9516
19.5644
22.1454
24.3785
24.3789
22.5308
22.5313
22.5315
22.5321
22.5452
22.5459
22.4231
21.5707
21.5733
21.6812
21.2891
20.4896
20.4858
20.4905
20.4867
20.4915
20.5367
20.5402
19.6279
19.6284
20.775
20.6712
20.673
20.6691
20.6741
22.5735
22.6065
22.604
22.6052
20.0303
20.0309
20.0293
20.0314
19.5604
19.5619
21.2817
22.6703
22.6707
22.6629
19.1892
18.7481
18.7487
20.4984
20.4984
20.3684
20.3683
18.5373
18.5375
17.9907
17.9913
24.3289
24.3295
24.2748
24.2745
20.2846
20.2844
20.2858
20.2852
22.1098
22.1087
23.1674
23.4012
22.1245
21.9886
21.9894
21.9881
21.9898
18.1315
15.8858
15.8868
14.4312
14.4312
17.0758
22.0204
22.0213
9.48369
9.4862
11.2521
34.6044
34.5671
34.5957
34.5688
23.9056
14.7775
14.7794
14.7782
19.0413
23.1346
23.1356
23.136
23.1375
23.1391
23.1408
23.1424
23.142
21.8151
18.6916
18.694
21.3708
23.1667
23.1666
23.1664
21.4758
20.7711
20.7718
22.4422
22.9574
23.1547
25.8521
24.2227
23.3249
22.4123
22.4124
22.4125
22.4132
19.6458
19.6465
19.6462
20.2614
22.664
22.6635
23.2755
25.4447
25.446
20.8444
12.3619
6.93305
6.93116
6.93399
8.28791
28.4719
28.4606
21.7499
15.653
15.6557
17.4642
17.4644
14.8242
14.8221
14.825
18.4995
18.5047
18.4354
18.4349
22.4525
23.8329
23.8337
18.7799
18.7817
18.7829
18.7826
21.4615
25.5977
24.2782
18.6774
18.6778
18.6782
28.0811
28.7052
26.7805
17.4107
15.7077
15.7099
17.7673
18.9078
18.9066
18.9054
18.0577
19.1577
22.6951
22.6949
25.2127
30.0479
31.5721
31.5748
35.4577
27.75
17.985
7.246
5.00444
5.00352
16.5472
26.0411
26.003
26.0355
25.9924
15.2851
9.85762
9.61946
10.2818
15.7477
15.4389
15.438
15.4395
15.7072
19.1637
19.1648
19.166
19.1666
20.9194
20.4916
16.3848
16.3838
16.3755
16.3813
16.3754
19.5155
19.2887
19.2864
17.4049
15.4533
15.4547
15.7436
15.6763
15.6779
15.1802
13.2159
13.2161
13.2163
14.0452
14.3254
14.3247
15.6001
18.5639
18.5689
19.6307
24.2314
24.2181
24.2352
24.2185
21.749
19.0576
19.0575
19.8909
22.6159
21.6286
21.6286
23.8225
25.5869
24.6735
23.3986
23.3994
23.3984
23.3996
23.952
23.9966
23.998
24.0079
24.0083
22.2878
21.0992
18.995
18.996
18.9464
18.9471
20.1961
20.1959
21.328
22.9295
24.5748
24.5749
23.9314
23.9307
23.93
23.5885
23.1571
23.1563
23.111
20.9084
20.9088
18.6088
17.2409
14.4112
8.2964
7.16249
6.73461
5.09129
5.09212
5.80003
19.3509
19.3499
26.004
18.0981
17.2325
17.1256
17.48
20.2148
20.1209
20.732
21.3345
21.2778
19.7698
18.4998
21.7809
22.5402
22.5397
18.9877
18.9868
18.986
20.3636
18.2923
22.4564
22.4559
22.455
17.4104
17.4099
21.1716
21.3478
22.2211
22.2201
19.4705
19.4698
22.1083
22.1067
19.5953
20.8477
18.0319
18.4281
22.4311
22.4292
22.43
19.5382
17.4953
17.4949
19.2721
24.2497
19.0385
20.1493
24.7046
20.727
18.3936
20.9548
23.9277
23.928
20.5115
23.4891
21.4118
20.1541
20.1537
20.1533
21.1419
21.1419
19.6489
20.4971
20.6586
18.5706
18.5704
18.5697
20.7664
20.7663
20.7663
18.3285
18.1879
18.6647
22.3894
22.3904
22.3655
20.6288
20.6286
20.6286
20.6284
20.3689
20.3687
20.3687
20.3773
20.3778
19.4651
19.4631
19.4654
19.4631
21.1325
21.6056
21.6062
20.1573
20.3676
21.7869
21.7887
21.7874
20.8834
21.377
23.2982
20.6437
20.6436
20.6438
19.4266
19.4267
21.3418
23.2542
23.2582
23.255
22.1788
21.267
21.2639
21.3531
21.2416
19.5629
19.5638
19.9916
24.3785
24.3789
24.3792
24.0166
24.0168
22.6185
22.1222
22.5457
21.6818
21.6825
21.6818
21.6826
20.4898
20.4861
23.4511
24.425
22.0064
22.173
22.1764
19.7437
19.6279
19.8011
21.1395
21.3574
22.412
22.4573
22.4577
22.605
22.6034
22.6046
19.7085
20.0696
20.0699
19.5603
19.5588
19.5613
19.5593
22.3588
22.6701
19.3893
18.7464
18.7469
18.7474
21.9661
22.1994
20.0006
20.0011
20.1162
18.8785
17.4687
17.99
21.1165
25.1745
20.2056
20.2067
21.4775
21.7769
22.972
22.9724
23.2987
23.3995
23.4021
23.4008
23.4034
22.1246
22.3647
23.6096
23.6115
13.6545
6.6321
6.17771
6.18006
24.4504
56.5312
49.0627
22.0245
9.48333
9.48598
9.48414
22.97
34.5637
34.5737
31.3915
21.2145
15.276
14.779
14.778
19.6218
23.1317
23.1336
21.3856
21.4272
21.4531
20.5349
20.9882
23.3695
21.1243
18.6921
18.6935
22.9229
23.168
23.1679
21.5275
20.7701
20.7705
20.7712
20.7712
25.639
24.9508
25.1823
27.0979
27.099
25.392
25.3922
25.3923
25.3924
18.1363
18.1367
19.4084
21.0212
21.3401
22.6651
22.8437
27.8191
27.821
16.5325
9.2009
6.86429
6.92598
38.021
37.9866
38.0237
37.9854
18.8005
15.0088
15.7077
18.6711
17.465
14.8248
14.8218
19.4117
23.0059
23.0059
18.1908
18.1907
21.138
23.8332
23.834
18.7766
18.7786
19.2198
22.4225
20.2454
22.4773
25.6021
21.2408
18.6774
18.6777
19.297
28.7046
28.707
18.4819
15.708
15.7095
17.5447
18.9104
18.9094
18.9082
18.1537
17.8724
17.8728
20.3119
23.2566
29.8073
39.4269
39.6187
48.0755
48.0868
26.822
6.26141
5.00541
5.00412
25.7363
26.0339
26.0123
25.2299
12.1303
9.61155
9.61156
13.636
16.8406
19.1048
18.2319
16.0531
18.6959
19.1601
19.1613
19.1628
17.5302
17.5306
23.1753
21.7303
16.969
16.3888
16.382
21.268
33.0051
33.0228
19.5184
16.7816
17.7016
16.0459
15.9526
18.6405
17.6969
17.5604
18.6728
17.848
17.9206
19.5995
18.0948
15.5431
18.2049
23.6314
20.285
18.6037
22.4723
24.2255
24.2136
24.2193
22.7559
20.0757
18.7872
18.7864
21.128
24.4555
24.4557
23.9645
22.5796
25.0712
25.5868
25.587
25.2977
23.9858
23.3995
23.3986
23.4162
24.8477
25.3094
25.4761
21.8005
20.9931
20.9933
22.0053
20.0336
19.8142
19.0161
19.0167
22.1837
22.2803
22.4133
24.5748
23.7901
25.7536
26.4282
23.9307
24.0225
24.6106
22.9201
22.9204
24.296
24.2975
22.4765
22.6252
20.0277
12.5789
11.5142
6.70662
5.19701
5.09168
5.80103
19.3509
20.8486
26.0043
25.6209
25.6203
20.0686
20.7207
22.1657
19.9851
19.9844
21.7336
21.733
19.8453
20.2993
21.7812
21.729
22.5394
22.5384
18.9867
18.9859
18.9849
22.1293
22.4339
21.1313
21.1309
22.6915
22.6911
21.9868
22.2216
22.2207
18.9412
19.5933
21.0014
22.1072
21.1729
20.0865
20.9323
22.2214
21.6327
19.8375
19.4967
19.496
19.4955
18.2842
21.4736
21.4735
19.0388
19.0385
19.0382
20.6066
20.7264
19.5203
18.9527
18.9523
18.9522
20.1154
23.4883
23.49
23.4879
23.4883
19.1352
19.0097
19.0096
19.6489
18.2627
20.3873
20.387
20.3863
18.5669
20.4695
19.6733
19.6731
19.6732
19.6733
18.0183
18.0196
18.0174
18.0197
21.9452
22.1009
22.0983
22.0996
22.0985
22.0988
21.7774
19.6196
19.6195
20.7218
20.7215
19.4638
19.4656
21.0499
20.1584
20.1575
20.158
17.813
17.8128
17.812
21.603
20.8834
19.5279
23.2979
23.2641
20.6439
20.6438
20.7879
23.4171
21.1162
20.7819
20.7821
20.7821
22.1633
22.1636
21.2637
21.909
21.9095
19.3021
19.5833
21.5147
22.4196
19.7084
18.4329
18.434
21.5696
22.0216
21.847
20.092
20.0924
20.0928
20.7633
19.9774
23.0744
24.9041
24.9048
24.4253
22.6775
21.0554
21.0554
21.0559
19.6279
20.0782
23.5503
23.5505
20.0951
20.0939
21.1872
21.1562
22.5344
22.6032
19.559
19.5586
19.5599
19.5593
19.806
21.8048
21.8058
19.6378
21.1723
21.7827
21.7108
18.7469
18.7474
19.5307
23.1585
23.1562
23.1578
21.6269
17.4671
17.4682
17.4692
17.5002
25.6914
25.6903
25.689
21.9365
21.4869
21.4875
21.4881
22.9452
23.1679
23.2922
22.6511
23.3486
23.3493
22.142
14.5009
8.20614
6.17704
6.17495
6.17741
33.4462
81.7754
77.6325
30.1894
13.5982
9.48603
9.48603
10.4982
17.885
26.4255
23.5363
19.0806
16.1138
15.6338
18.6816
24.9915
26.2558
22.5821
19.259
19.2593
21.3044
20.4472
20.4483
22.9545
23.915
21.1463
20.0384
23.0058
24.7363
23.1694
21.0303
20.857
20.8555
24.4494
27.7779
27.7792
27.3674
23.9191
27.2973
27.2986
24.5738
25.1978
25.3917
22.6997
18.202
18.2014
21.3943
19.8543
19.8548
22.2136
29.3303
29.3317
28.3598
17.5746
10.4479
6.86299
6.86004
9.54487
37.9858
38.0349
38.0017
20.8323
14.808
14.8082
18.1077
18.6715
16.5825
14.8237
17.2083
23.0086
23.0083
18.3625
18.1903
21.9563
23.8352
23.834
20.1065
18.7745
23.958
23.9598
22.4233
20.2448
22.598
27.9958
25.4195
19.46
18.6778
18.6781
25.1714
21.7487
18.5731
18.9156
18.9144
18.9131
18.9119
18.3865
18.3865
20.6937
21.5076
21.9021
25.1394
25.6441
25.2453
15.8361
13.075
17.8567
33.4234
14.4555
5.00605
5.00524
16.5044
26.0222
26.0084
19.2971
12.4081
12.4083
17.4748
20.8685
20.7956
20.1749
21.0872
21.154
19.8333
18.7584
19.0615
18.6607
17.2348
18.5664
24.6189
24.6192
18.7613
16.9721
17.5567
33.0255
33.0046
33.0253
22.9081
15.7204
15.7214
16.9669
17.0353
18.8604
22.5713
22.5722
22.5112
23.9969
24.9513
26.7876
29.4956
30.6635
31.9318
31.9326
28.2537
27.7543
27.7581
23.9953
19.168
19.1701
22.7151
20.236
17.964
19.3471
20.8422
24.4553
24.4555
24.2586
22.5329
22.5331
22.9732
25.5869
24.0088
23.5099
23.5104
23.6117
25.396
25.3964
22.1777
24.0248
25.9592
25.7705
26.7605
31.2155
32.0818
29.5848
23.1843
19.5461
19.9352
20.7602
19.7495
22.316
23.3841
23.7891
25.1098
26.4281
26.4285
24.308
24.6095
26.1786
26.1775
25.4609
20.3615
22.5904
22.6249
21.069
17.6806
12.8623
6.38299
5.19666
5.22294
5.99665
19.8134
21.6031
23.1235
22.9682
23.0414
23.0405
21.6123
22.1656
19.9849
20.23
20.2292
20.3707
20.3698
19.3029
19.3019
19.3009
19.0106
19.3471
18.9868
20.3478
18.9549
18.9541
18.9533
19.1691
23.0696
23.0691
20.9373
22.2221
22.2212
17.2751
17.2744
17.2741
17.6484
18.2591
18.6293
23.5066
23.5059
22.7507
19.4985
19.4979
19.4969
21.2677
18.8038
18.2839
20.0175
20.4863
20.4858
20.4852
20.3292
18.9582
18.9578
18.9574
18.9525
18.9521
18.9942
19.5197
18.7007
18.7006
17.4846
17.4839
17.4829
19.1967
19.4894
18.2628
18.2628
18.9137
19.4116
17.6718
18.5525
23.7708
23.7716
19.0607
18.2354
18.2348
18.234
20.692
20.6935
21.9889
21.9911
18.4795
18.4804
18.4793
18.6551
18.6556
18.6574
19.6191
20.8265
20.825
20.6432
20.6415
20.3183
20.3853
20.3854
20.3855
18.56
18.5602
18.5604
17.222
17.2221
17.9191
18.986
15.9063
20.9894
21.5879
21.7716
24.839
25.5661
23.6534
22.884
22.8839
20.2347
20.8554
22.1634
20.2266
19.3015
19.3018
19.3019
19.6746
21.5306
21.5317
18.8439
18.4343
18.4333
18.2304
18.2305
19.7711
21.0453
21.0458
20.4012
20.7638
19.9772
20.9851
21.7377
21.6719
21.3209
23.0795
23.3617
23.3626
20.3646
20.3645
25.8892
23.5517
20.0946
20.0911
20.0956
20.0918
20.9547
22.533
20.1722
20.433
21.1804
21.181
21.1814
19.4004
19.4011
19.4014
19.402
21.6231
21.7831
20.0349
21.6581
23.1543
23.1579
23.1556
23.0879
17.9818
16.4746
16.4729
25.456
31.6531
31.6541
28.7119
22.8763
22.8725
22.8769
22.8734
22.875
22.8462
20.3939
20.3952
21.0505
22.5188
20.4033
19.9982
15.1809
9.01846
6.17676
6.173
6.17759
39.3188
82.0792
81.8066
28.5878
20.1433
21.7192
21.243
16.2382
14.8058
17.0486
19.225
19.3282
15.1845
16.9103
17.3811
21.6154
26.3121
26.258
21.0035
20.7581
21.5677
21.5682
20.4477
20.4477
22.9952
24.7341
24.7364
24.7354
24.7371
24.7367
22.4373
21.2694
22.1693
24.1182
27.3817
27.7788
26.9233
24.1937
23.4281
23.5354
22.087
21.0976
22.1864
20.7944
18.675
18.577
23.5689
25.4075
29.3687
28.8204
25.3554
26.6306
25.7638
19.2399
10.6209
6.86272
6.85953
6.86385
14.6229
38.0363
38.0032
22.5131
14.3123
15.5817
17.4603
17.7411
18.6665
18.3218
19.4165
23.0098
23.0094
22.9636
18.9953
18.7973
21.2915
23.8353
22.2742
17.4102
14.712
18.775
23.4498
28.0049
27.9975
28.0073
27.9968
22.0994
18.6773
18.6775
19.1841
28.2579
27.9187
24.487
20.5857
18.2719
17.632
17.6325
18.8988
18.8992
18.6988
19.6804
25.7087
25.7076
21.682
14.1807
13.0717
13.0683
13.0754
33.7086
57.067
31.306
20.1936
18.3707
16.9687
21.2259
19.2899
19.9851
24.574
26.6534
27.4935
25.6047
22.7288
22.5288
22.1402
21.412
22.1461
21.7843
18.6584
17.2356
19.1447
20.1385
17.9397
16.9796
16.9754
25.6251
33.0031
30.0632
18.558
16.9766
17.3996
19.9455
19.9463
19.702
19.2023
20.9203
22.5263
22.8197
30.1711
32.2851
33.9215
33.9214
33.9215
33.9216
30.7055
27.5596
23.3509
23.1037
23.1026
23.0121
18.1959
16.8044
16.8052
17.7091
19.3928
20.4253
21.2036
22.0527
22.6416
22.5762
22.5331
22.5332
23.6057
25.1764
25.1771
23.9127
20.3383
19.681
18.7075
18.9746
22.9211
30.934
33.1526
33.1542
33.089
32.0797
29.3312
23.6932
21.5491
21.3528
19.9386
19.75
19.9202
24.5296
23.7901
23.7908
25.595
26.4284
26.4285
25.1252
25.1974
19.6356
19.6349
19.9466
19.9913
19.9902
20.0592
20.0608
16.4625
11.5277
7.59346
5.99863
5.99715
21.5256
24.3534
23.0399
21.532
20.8602
20.9286
19.4017
19.4007
19.4
19.3988
19.9952
19.4481
19.4473
19.4462
21.5121
18.9896
18.9879
18.9879
18.9862
20.774
20.7728
19.7547
18.9532
18.9524
18.9518
17.7516
17.7509
17.7502
17.7493
19.9571
20.4087
20.4074
20.4073
20.4062
18.0442
18.0444
18.0426
18.0442
22.8358
25.344
20.342
21.9478
21.9472
19.9237
19.1678
19.1674
19.167
19.1665
19.9017
19.9015
19.4257
19.4817
19.4816
18.9519
18.9516
18.9512
18.9506
20.404
20.4039
18.7799
17.0092
17.0089
19.9384
21.7672
21.7653
21.765
21.7643
17.6718
17.6707
17.6727
17.687
19.7368
22.1653
20.2889
19.012
20.5366
18.6034
18.6034
20.1335
20.1332
20.1328
18.4798
20.3302
22.2948
22.2948
22.2951
22.295
19.9407
19.2627
19.2626
19.2628
17.7863
17.2079
17.2079
16.3487
16.3498
18.56
18.5601
18.5602
17.9203
18.4675
15.9063
15.9065
15.9066
20.6416
29.9251
29.926
26.6357
21.902
21.5159
20.2351
19.3273
19.3284
21.6627
21.6632
21.664
19.3018
19.3019
20.5953
19.3024
19.3026
19.5308
18.2715
18.2302
20.324
20.3239
20.1176
17.053
16.8145
17.4242
16.3651
19.55
19.5488
19.6638
16.1077
20.4603
25.1845
21.7205
21.719
24.8124
25.8901
24.1165
24.1155
22.2177
20.6063
21.3693
21.3691
20.1717
20.1722
20.486
20.4345
19.1802
19.18
20.2409
22.516
22.5176
22.5171
22.3608
16.4865
16.1827
16.1845
16.1822
16.1844
17.2496
20.0326
16.6612
16.6625
16.473
16.591
31.6526
31.6539
28.577
26.0578
22.5034
22.5039
22.5045
22.5051
22.0273
20.8011
20.3934
20.3957
20.3958
20.4038
15.8744
6.96898
6.17948
6.17277
63.618
82.0992
82.1686
82.0876
30.7713
16.6742
17.5539
22.8228
22.8234
18.2322
17.4402
17.6917
17.7083
19.3276
14.3873
14.3877
17.9144
24.8076
26.3122
26.3128
24.1275
22.2425
21.5681
20.4473
20.4472
21.207
24.733
24.7357
23.4383
21.3225
21.9637
23.1055
24.9452
24.946
24.947
21.7707
21.1689
22.8319
22.5626
21.2136
20.4918
20.0547
18.1366
16.8109
16.8121
17.4406
18.6754
17.8601
27.1559
31.4241
31.1613
25.5628
25.3548
27.241
27.2474
15.7228
6.86307
6.85987
6.86417
15.5687
37.9945
37.9861
22.8699
14.1442
14.1445
18.4581
19.4256
19.1999
20.0412
21.5806
22.1783
23.0104
23.0102
21.0606
18.7917
16.5227
16.0574
16.0591
14.7845
15.3651
13.7311
14.03
28.0092
27.9969
28.0086
27.9981
20.6787
18.6781
18.6771
24.8755
31.0788
31.0794
27.4979
20.7454
17.9273
17.9277
19.85
19.4503
18.6737
18.6742
18.6745
24.3397
26.6241
25.4604
17.7213
13.0713
13.0658
13.0746
14.4906
62.3718
62.3752
40.754
19.33
17.4991
13.357
17.1684
22.5774
27.5001
27.493
27.4996
27.4938
25.9288
25.3578
24.6747
22.6544
24.4695
31.2353
31.2357
31.2362
30.6487
26.122
20.5052
16.9861
16.9829
18.1398
21.8465
24.4072
20.1004
17.1017
16.9762
17.3512
16.5431
16.5425
17.2009
15.1356
12.4216
16.2875
18.7373
24.6567
29.6387
33.0258
33.9212
33.9212
29.4345
26.9697
26.9683
26.9673
25.6038
22.7596
18.7191
18.1939
18.4328
21.3117
21.7377
22.6882
22.7766
22.773
22.7747
22.2783
22.2666
22.8138
22.813
22.9455
24.0166
22.392
17.3619
12.5251
10.8161
9.65581
13.8833
17.1822
25.9663
33.154
31.7718
31.3828
31.3835
31.9062
30.5267
23.5501
25.6968
26.8247
24.5844
23.6572
24.5288
25.3208
25.946
25.9463
23.7802
22.5386
23.6854
26.4242
26.425
21.6192
19.0933
19.0932
20.449
20.4473
18.1044
17.8179
15.2578
11.3337
5.74746
5.74802
19.2471
23.4518
20.8344
20.2887
19.7013
20.3844
19.5208
19.9607
19.3996
19.3991
19.7871
19.4482
19.4473
20.6023
21.512
21.5112
21.5105
19.1691
19.1338
20.1308
20.1305
20.4028
20.402
18.9526
18.9865
20.6629
18.321
18.7462
16.4531
16.4526
19.7938
20.4079
20.4065
20.4065
18.0442
18.043
18.044
18.0412
22.1342
25.3438
25.0765
24.0142
21.214
19.1685
19.1679
20.8572
20.857
20.0319
18.9543
19.5982
19.5964
18.953
18.9523
18.9521
18.9515
19.025
20.9903
20.9901
19.494
19.494
19.4935
16.5745
16.6785
21.7667
21.7671
21.7652
21.7647
18.4032
17.6717
17.6696
23.8289
26.2208
26.2222
24.2996
19.0125
20.5379
20.5379
20.5378
19.7019
18.3128
18.3139
18.4783
20.3321
18.8947
18.8948
20.8384
21.5915
21.5916
21.5917
21.5917
19.2391
17.3421
17.3417
19.0888
17.722
17.7217
15.4835
14.1949
14.195
18.5802
20.6744
15.9063
15.9065
20.9161
30.2794
29.9108
23.4918
21.2015
21.2017
21.5156
21.5158
21.5161
18.551
18.5516
19.6019
21.6641
21.6643
19.3018
19.3021
19.3024
19.3021
23.3706
22.9083
21.1058
21.1063
20.2491
18.7471
17.1414
15.7206
15.7205
16.3236
19.658
19.6595
19.6619
16.1077
16.1081
28.5678
31.0656
29.5234
28.1369
26.1101
21.7011
20.1859
21.8352
21.836
19.7511
19.7528
20.6091
21.4268
21.4275
20.1839
19.1795
19.1802
19.1805
21.0754
22.5165
19.5292
17.2728
16.1833
16.184
16.1823
16.184
16.1827
15.4429
18.5008
18.3361
21.1403
16.473
20.756
29.3648
29.2468
25.1493
24.0567
24.0576
25.8821
25.2515
23.3167
22.2126
20.801
21.6066
21.6059
19.3236
10.0388
3.53259
2.29072
9.58046
82.197
82.1008
82.1823
82.1012
27.8525
17.1813
16.6741
20.136
22.8236
22.8234
18.6462
17.4691
17.5759
16.6193
16.6199
14.3873
14.3877
19.6053
26.3116
26.3122
26.3128
24.7798
22.7828
21.2952
20.4469
20.666
22.8234
23.8102
23.5604
21.6048
20.3106
20.3094
20.3117
20.3101
22.0884
22.0861
20.817
20.8175
21.646
22.4287
22.0652
19.4103
18.6462
18.6464
18.6464
17.0405
14.8643
16.1835
17.8579
25.509
31.4243
25.5446
22.9333
27.9707
31.0775
19.6224
9.5464
9.54497
23.4361
23.8
23.81
21.8952
17.6954
14.4761
14.3446
17.2924
18.753
19.8419
20.8198
21.4793
23.0472
23.8918
23.892
19.9182
17.2948
17.2957
17.2923
17.2948
16.3194
12.5134
13.7597
13.7312
21.2695
27.9951
28.003
27.9975
22.7463
18.6798
18.6782
26.9495
31.0792
31.0798
27.267
20.9279
20.2834
20.2828
23.6587
23.792
23.7925
23.576
22.1842
22.4422
26.6139
26.6246
22.5846
13.0739
13.0655
13.0738
13.0795
33.968
33.9781
19.0105
14.5962
11.1079
11.574
13.155
16.0504
22.7536
27.4926
27.5019
27.4935
27.1526
23.997
23.3445
22.1737
20.7419
20.7421
20.7409
29.5662
26.4389
21.7094
21.3266
21.1982
21.5083
20.3949
19.1928
18.3454
16.9362
16.9079
16.9081
20.1194
20.1214
17.1996
15.25
15.2512
15.0081
12.422
14.0706
17.3141
21.312
28.1963
33.9194
33.9209
30.4746
28.2914
32.7471
32.7523
27.3969
24.1573
24.1569
22.0761
19.7555
20.5956
23.857
25.3932
24.0856
22.7233
22.727
22.7731
22.3614
20.8724
20.8725
21.8255
21.5187
19.0388
16.4484
13.4308
10.4906
10.2713
9.65624
11.5493
14.8589
22.4202
30.5349
36.4817
36.4823
33.44
36.0039
36.0046
35.1819
33.2296
27.8436
21.2602
18.5366
18.537
20.2452
19.8073
19.8068
20.6123
22.5389
23.6498
26.3522
25.379
26.1236
26.1244
23.7426
22.9563
20.4315
18.1049
18.2884
18.2896
13.9712
7.54507
6.48117
22.3021
20.1406
19.7029
19.702
19.7011
22.0556
22.0547
21.4067
20.7019
21.9915
19.9358
19.8739
21.076
21.0751
20.1412
21.1189
19.2887
20.5149
19.1342
20.5321
21.5826
21.582
19.0402
18.9527
20.6273
20.663
19.1566
19.3795
16.5264
17.498
20.4088
20.407
20.4074
20.4061
18.0442
18.0444
18.0423
24.2103
24.2084
22.0882
24.6874
24.687
23.5322
20.4709
22.1453
22.1446
19.0544
19.0539
18.9545
18.9534
18.9536
18.9525
18.9527
18.952
19.3549
19.8339
20.9903
20.9901
20.6027
19.5513
16.5746
16.5741
21.6056
21.7672
21.7654
21.3835
21.7636
17.6708
17.6697
17.6717
17.6684
18.9523
23.3631
24.3136
24.3141
23.2164
19.4787
20.0178
20.0462
20.0483
20.0463
20.0471
18.8946
18.8947
18.8948
20.8282
21.3507
19.0832
18.3272
18.3272
18.3274
17.3424
19.4464
20.0498
20.0509
15.4011
15.4011
18.7694
18.7694
18.5794
20.7956
15.9063
15.9065
20.888
30.2794
30.2797
30.2801
21.7688
20.4335
20.4337
20.434
19.0636
19.0643
21.6637
21.6643
21.6645
19.3022
19.3019
21.3598
23.8358
23.8363
23.8367
21.8855
19.1611
19.1611
19.1611
19.1613
18.8689
17.5474
16.3292
17.015
19.3302
16.838
18.8106
16.1077
16.1081
22.5633
33.3184
33.3193
30.8687
24.2159
21.0035
20.1854
20.1865
20.1863
21.7215
21.7188
21.7193
19.4951
19.1793
19.1792
19.1797
19.1795
19.1801
22.4386
22.5162
18.9587
16.5655
16.1874
18.0307
22.0015
21.9973
21.9108
15.1122
15.1131
20.0031
21.141
16.4736
17.0466
30.2817
30.847
30.8485
24.708
24.0578
25.8853
25.8828
25.0449
24.0807
24.0805
23.7113
18.3635
10.3272
3.63256
2.28985
2.28833
8.70287
82.1029
82.181
82.1026
33.0474
20.084
17.827
16.6742
17.1501
22.8228
22.8242
21.8318
18.5808
18.5804
18.58
18.5795
14.3873
14.3877
18.5528
21.6916
23.0483
25.8497
25.8485
24.5387
20.7278
20.7276
22.0524
21.6971
19.8116
21.2068
21.9347
20.5822
20.3111
20.31
21.2275
22.9007
22.0759
22.0761
22.0241
21.6475
21.6498
23.5495
23.5499
21.7475
17.6779
16.5259
16.0326
14.8639
19.0795
18.2716
21.3481
19.5361
15.0836
15.0875
18.8289
31.2883
26.9306
21.0497
22.2291
23.7994
23.8126
23.8008
16.8564
14.2141
14.2148
16.7062
19.234
21.2584
21.2596
20.8393
20.5937
22.395
23.8914
23.8923
23.4942
23.6301
23.8767
20.0251
14.2793
13.7163
12.5134
15.4845
13.7323
18.7168
24.021
23.8017
25.8585
25.5158
22.5404
23.0494
30.5278
31.0792
31.0798
25.6108
23.0442
22.8672
21.7426
19.9262
19.3031
19.3035
19.5143
20.0112
21.0406
24.4178
25.9643
18.1535
13.0672
13.0742
13.0637
24.1802
33.9637
17.3381
10.7393
10.8617
11.0668
14.3156
15.3876
18.6103
23.0756
25.1468
27.493
27.4954
26.57
23.4035
23.401
26.1137
25.2941
21.6735
20.1194
19.1045
19.3888
21.7196
24.363
25.5166
25.517
23.2684
21.9641
22.9495
21.6898
19.6173
19.034
18.2985
16.9478
15.7364
15.3745
15.3736
15.3727
13.0629
16.6672
17.4388
20.2934
26.9303
33.9192
33.9197
28.0493
26.5175
32.752
32.7525
30.8443
25.1626
21.9147
20.3395
19.525
19.49
19.49
25.3934
25.3934
25.344
22.7503
21.7357
21.5839
23.7818
23.7824
23.6907
21.9075
21.5484
21.4568
19.2107
13.7408
10.981
9.73046
14.3644
16.564
24.1097
32.6496
32.649
32.7151
32.7159
32.7168
34.6722
36.2351
27.7124
23.7752
23.7705
23.7738
22.8382
20.6876
20.7177
24.9692
24.9695
23.1449
23.1455
23.1462
24.1183
22.7788
19.0499
19.05
20.8599
20.8589
19.0632
18.4252
15.458
12.204
6.94418
6.94363
19.4799
20.1409
19.314
21.281
21.2804
20.0859
20.0848
20.0837
21.9261
21.9917
21.9093
19.427
19.426
19.4251
19.4242
19.289
19.2884
21.723
21.7222
20.5321
21.5372
20.5057
20.5048
21.2519
21.1235
20.1574
20.1547
20.1548
17.808
19.2616
20.2013
19.0076
18.7507
18.7498
18.7487
24.497
24.4971
22.4564
21.7998
22.0878
21.0515
21.0506
21.0499
20.2512
22.145
22.1462
22.1442
22.1449
22.1436
22.1435
20.4322
20.432
20.4315
18.9525
18.978
18.9004
18.9
18.8996
18.8227
18.8223
18.8219
17.9618
19.3628
20.3487
18.8929
17.6726
17.6725
17.6708
21.2123
24.4845
27.2547
27.2547
27.2548
24.0343
19.4783
19.4784
19.4783
21.2639
19.6485
19.0375
18.9245
18.9247
19.2874
20.4013
20.4014
20.2745
19.0836
19.0833
21.0012
19.7116
17.4012
17.343
17.9316
19.0263
20.0509
20.0511
19.3786
17.64
18.5966
21.2119
21.2115
15.9063
23.3535
23.3546
22.2141
22.1179
21.8281
21.7687
21.9837
21.9835
21.9831
21.433
19.8688
19.227
19.2277
19.2284
21.4328
21.8659
21.8654
20.2589
20.2589
20.2596
20.3683
20.7741
20.774
20.775
18.4437
17.3724
17.3726
17.3724
19.4247
16.3668
16.3673
16.3676
21.8111
29.3462
29.8418
33.2105
30.8436
22.6184
21.7927
22.0571
22.0605
22.058
22.0604
22.0588
21.4644
19.4953
19.4951
21.1127
21.1136
19.5089
19.1795
19.1795
20.2905
22.1791
20.5682
20.9737
20.6556
20.9721
21.9967
21.9976
17.6034
16.7474
21.7703
22.4719
21.1418
17.8137
29.9883
30.846
30.8478
24.7104
24.709
29.2266
29.2259
22.9789
21.6275
21.6285
23.5792
15.1338
7.09567
2.90308
2.28964
2.28868
2.29016
9.46137
82.1466
76.6159
24.9715
18.2574
21.7046
21.904
20.1624
17.1526
17.3336
20.8472
21.6433
18.7161
15.8863
15.8868
15.8874
15.6429
21.2104
21.5677
21.5683
21.5698
21.5685
21.5718
23.5707
24.2796
24.2792
22.0539
19.6226
19.623
20.6969
21.9345
22.1219
23.2863
23.3719
23.3711
23.3731
23.3723
21.911
21.9105
22.6741
24.0908
24.092
22.0215
22.1225
22.1237
21.186
16.4118
14.8643
19.3613
25.3551
25.3578
18.0003
15.0796
18.4703
30.3067
31.5815
25.7245
21.8149
18.7037
17.9082
17.909
18.0572
16.4561
15.3391
16.5581
18.0069
19.0128
19.9565
19.9573
19.958
19.9588
21.3397
23.4967
23.7448
23.8798
23.8774
23.8791
18.338
13.5545
13.5557
15.0623
15.6833
15.1289
17.9098
18.3272
22.4142
25.8577
25.8577
25.2299
25.1282
27.5497
29.6197
28.1321
24.5596
22.8751
22.876
22.1564
21.1474
21.1476
20.964
18.4934
18.5687
24.2381
26.3875
26.3889
16.9868
13.0739
13.0676
13.0776
23.5172
27.4864
13.2875
10.7383
11.7781
14.1219
16.5775
20.0421
28.4528
28.4525
25.1702
24.9943
24.9931
24.9951
28.2667
28.4195
28.4205
24.4363
19.948
18.2665
18.2672
18.2674
22.718
22.0859
21.3308
21.3315
21.3314
23.6958
24.3023
24.3032
22.0938
19.7533
18.8015
19.8267
19.8274
17.7241
13.5088
13.6451
19.5182
22.1405
22.1372
25.0731
28.1527
33.9189
33.919
30.2065
26.19
25.7475
25.1659
21.4066
19.0501
19.0181
19.0195
19.0186
22.1315
25.5363
25.5357
25.1314
24.4624
21.5832
20.3645
20.3629
23.7822
23.7824
23.5089
21.5857
20.6426
21.1432
21.1443
20.4838
16.9859
14.7332
17.4172
23.9546
33.6492
35.3245
35.3262
32.7158
33.6202
36.5046
36.5048
36.5049
31.6715
24.9968
23.2105
22.3208
21.232
20.7333
25.9834
25.9838
24.1068
26.9522
26.9524
26.9526
25.8794
23.9156
25.3189
25.3193
23.9181
20.1419
20.1389
20.5658
13.9298
7.35152
5.92264
5.92338
19.1107
19.385
19.3137
20.7314
20.7304
21.2742
21.1216
20.0835
19.555
19.3014
20.2529
20.6763
20.6755
20.6746
19.2897
19.2888
19.2878
21.1638
20.6171
22.098
22.0975
20.5059
21.7629
21.7625
20.9609
20.9592
20.9594
19.8461
17.8351
20.2363
21.5696
21.568
21.5681
21.5669
18.7493
18.7492
18.7489
18.7484
20.4691
23.7989
23.7985
21.9861
19.7969
19.7965
19.798
20.6641
21.7942
19.5077
19.5076
19.5059
19.8666
18.957
18.9566
18.9562
18.9734
18.9007
18.9002
18.8998
19.3385
19.3385
19.0274
17.6715
17.6711
21.7794
21.7795
21.7804
21.7792
17.6724
17.6715
17.6733
17.6692
25.1086
25.2458
22.5625
22.5625
22.5623
22.5622
21.5643
19.0385
19.0377
22.104
22.1039
21.3728
19.8662
19.8661
19.3566
19.3562
20.3786
21.8032
21.8032
21.7631
17.8171
18.8297
19.6837
20.0509
20.0511
18.7561
17.6409
21.2117
21.2125
21.2119
15.9075
15.9077
22.745
26.393
26.3935
22.3011
22.1265
22.1266
20.4397
18.4934
18.4948
18.4936
18.8358
21.8657
21.8648
21.8678
21.8655
20.3756
20.3747
21.8184
21.8183
21.521
20.0725
20.0234
20.7739
20.7748
20.344
17.3908
16.7434
22.9422
22.9417
22.9415
22.9404
20.8299
20.8306
20.8297
25.6022
24.8732
21.7773
21.7778
22.0581
22.0576
22.0601
21.0985
20.3447
20.3448
20.3444
22.0979
20.6334
20.6335
20.6337
20.4393
19.1792
19.1788
22.0658
22.0661
22.0664
21.742
17.3367
16.2375
16.2377
17.764
22.4685
22.4713
22.4741
22.4783
17.8171
17.8183
21.6924
29.7434
30.5283
30.5295
30.1685
25.477
22.9381
22.9397
22.9387
15.0655
5.44604
2.67153
2.28962
2.28864
2.3836
7.07535
44.7193
66.285
26.0609
15.4756
15.4755
18.6748
21.9036
21.8316
21.324
21.0101
20.499
20.4997
20.5002
20.5007
18.0031
18.003
15.6442
16.1185
22.1185
21.6264
21.5688
21.5712
21.5691
21.5732
24.2122
24.2798
21.3657
21.3531
21.3528
21.3528
20.8125
19.7841
19.7847
19.7853
21.9935
23.3717
22.9099
24.0901
24.0924
24.0914
24.0925
20.6565
20.0077
20.0072
19.8685
16.8364
16.8384
16.3765
19.368
14.1939
14.194
14.1943
14.8899
29.1416
31.9852
31.986
31.9867
27.0671
20.6698
17.9062
17.9216
20.953
21.7732
21.0672
19.6603
19.2316
18.9489
19.0545
21.1051
22.2313
22.6439
22.642
19.6836
18.3294
18.325
20.2412
19.8716
16.2174
14.1664
15.4987
15.1843
15.6833
15.1298
16.1673
25.5316
25.5321
25.4611
23.2857
23.2877
23.2896
25.945
29.0963
25.6599
21.574
20.5012
21.2465
20.689
19.0823
18.1448
17.9192
18.4917
21.3296
25.806
26.3394
18.972
13.9508
13.946
21.3625
22.5385
22.5457
15.102
11.834
11.8343
14.9489
14.8481
16.869
16.9488
22.4926
28.4548
28.453
28.4547
25.0965
24.9942
24.9961
26.2819
28.42
28.4209
23.5855
19.744
20.3238
23.9133
24.3442
24.3446
24.345
23.3364
22.3828
21.5939
21.899
23.0838
22.8635
21.3766
20.9812
20.3487
19.1047
16.5035
13.5096
13.9956
13.9946
17.177
18.6369
21.3233
30.1151
33.1004
28.5744
25.1542
23.6492
23.6519
24.1858
22.3676
22.0709
27.6447
27.6495
27.645
24.8134
22.8232
21.4104
21.4086
24.4608
24.4605
21.7704
18.1024
18.0193
18.0191
18.1675
20.1123
20.3327
19.7974
19.1658
19.1657
19.1696
15.8748
20.1651
22.5433
27.7956
31.2088
35.3695
36.5037
36.504
36.5046
35.0171
30.5817
30.8908
30.739
27.4791
23.8866
22.8861
21.8833
21.0011
21.6828
22.0468
23.0308
26.6839
26.1561
25.5254
24.1717
21.0005
21.0004
22.655
21.5917
20.5662
20.5653
15.9688
12.0065
8.387
6.112
24.826
19.8382
19.3139
19.3127
21.4959
21.6553
20.0381
20.1912
20.1904
19.3017
19.3006
19.3
19.2989
19.2984
19.5369
19.5364
19.2754
19.7779
19.2738
19.2732
19.2725
21.8336
21.9209
20.4792
20.9811
20.9804
19.5824
19.0353
20.4935
21.0065
19.2811
19.2817
19.2799
20.1215
18.7497
18.7494
21.9916
22.837
20.4732
22.8484
23.7985
21.6443
20.3917
21.4944
21.4941
19.5085
19.5068
19.5079
19.506
20.5207
20.5192
18.9572
19.1655
20.1094
18.9015
18.9009
19.944
19.9043
18.4943
18.494
18.4937
18.3521
17.1136
17.1135
17.1728
21.7814
21.3507
17.6724
22.1675
22.167
21.3284
22.8027
25.2456
25.2457
21.209
20.7726
20.0519
19.3522
19.3514
22.3523
22.3525
20.8614
20.5417
20.5415
21.5287
21.5291
19.3566
19.357
21.3319
21.8033
21.3949
21.3949
21.3947
20.8882
17.5427
16.23
16.23
16.2303
18.1746
21.817
19.5326
18.3927
27.185
27.1856
25.0746
25.2961
25.296
23.9141
20.7375
18.4942
18.4945
18.4932
18.4946
18.4933
20.4126
20.9473