/*--------------------------------*- C++ -*----------------------------------*\
  =========                 |
  \\      /  F ield         | OpenFOAM: The Open Source CFD Toolbox
   \\    /   O peration     | Website:  https://openfoam.org
    \\  /    A nd           | Version:  7
     \\/     M anipulation  |
\*---------------------------------------------------------------------------*/
FoamFile
{
    version     2.0;
    format      ascii;
    class       volScalarField;
    location    "4000";
    object      rho1;
}
// * * * * * * * * * * * * * * * * * * * * * * * * * * * * * * * * * * * * * //

dimensions      [1 -3 0 0 0 0 0];

internalField   nonuniform List<scalar> 
160000
(
989.386
989.349
989.313
989.277
989.241
989.205
989.17
989.137
989.105
989.071
989.038
989.007
988.975
988.943
988.913
988.884
988.856
988.828
988.8
988.772
988.745
988.719
988.694
988.669
988.646
988.622
988.598
988.575
988.553
988.531
988.511
988.491
988.471
988.451
988.433
988.415
988.397
988.379
988.362
988.347
988.331
988.316
988.301
988.287
988.274
988.26
988.247
988.235
988.224
988.213
988.202
988.192
988.182
988.173
988.164
988.156
988.148
988.14
988.134
988.128
988.121
988.116
988.111
988.106
988.102
988.098
988.095
988.092
988.089
988.087
988.086
988.084
988.083
988.083
988.083
988.083
988.084
988.085
988.086
988.088
988.091
988.093
988.096
988.1
988.104
988.108
988.112
988.117
988.122
988.128
988.133
988.139
988.146
988.153
988.16
988.168
988.175
988.183
988.192
988.2
988.209
988.218
988.227
988.237
988.247
988.258
988.268
988.279
988.291
988.302
988.314
988.326
988.338
988.35
988.363
988.375
988.389
988.402
988.416
988.43
988.445
988.459
988.473
988.488
988.503
988.519
988.535
988.55
988.566
988.582
988.598
988.613
988.63
988.647
988.665
988.682
988.699
988.716
988.734
988.75
988.768
988.786
988.804
988.822
988.841
988.861
988.879
988.898
988.917
988.936
988.954
988.973
988.992
989.012
989.032
989.051
989.072
989.092
989.112
989.133
989.153
989.174
989.194
989.215
989.236
989.256
989.277
989.298
989.318
989.339
989.36
989.382
989.403
989.424
989.445
989.466
989.486
989.508
989.529
989.552
989.573
989.594
989.616
989.638
989.659
989.682
989.705
989.728
989.751
989.775
989.8
989.824
989.845
989.867
989.888
989.909
989.93
989.954
989.982
990.007
990.029
990.05
990.07
990.09
990.11
990.131
990.154
990.177
990.199
990.22
990.241
990.261
990.282
990.302
990.323
990.343
990.363
990.383
990.404
990.426
990.447
990.468
990.487
990.506
990.526
990.546
990.566
990.587
990.607
990.627
990.647
990.666
990.686
990.707
990.727
990.747
990.766
990.786
990.805
990.824
990.843
990.861
990.88
990.899
990.918
990.938
990.959
990.982
991.006
991.031
991.055
991.075
991.092
991.109
991.126
991.144
991.161
991.178
991.194
991.212
991.233
991.253
991.271
991.287
991.303
991.32
991.337
991.354
991.37
991.389
991.407
991.424
991.441
991.457
991.473
991.488
991.503
991.52
991.537
991.553
991.568
991.583
991.599
991.615
991.631
991.647
991.662
991.676
991.69
991.705
991.719
991.732
991.746
991.76
991.774
991.788
991.803
991.816
991.83
991.845
991.861
991.88
991.898
991.913
991.926
991.938
991.95
991.962
991.974
991.986
991.997
992.009
992.02
992.031
992.042
992.055
992.067
992.078
992.088
992.098
992.108
992.118
992.128
992.139
992.151
992.163
992.175
992.185
992.195
992.205
992.214
992.223
992.233
992.242
992.251
992.259
992.268
992.276
992.285
992.294
992.302
992.309
992.317
992.324
992.332
992.339
992.347
992.354
992.362
992.369
992.376
992.382
992.388
992.395
992.401
992.407
992.413
992.419
992.425
992.43
992.435
992.441
992.446
992.451
992.456
992.461
992.466
992.47
992.475
992.479
992.483
992.487
992.49
992.494
992.498
992.501
992.504
992.507
992.51
992.513
992.515
992.518
992.52
992.522
992.524
992.526
992.528
992.53
992.531
992.533
992.534
992.535
992.536
992.537
992.538
992.538
992.539
992.539
992.54
992.54
989.385
989.348
989.312
989.276
989.241
989.206
989.171
989.137
989.104
989.071
989.038
989.006
988.975
988.944
988.913
988.884
988.856
988.828
988.799
988.771
988.745
988.719
988.694
988.669
988.645
988.623
988.599
988.575
988.553
988.531
988.511
988.491
988.471
988.451
988.433
988.415
988.396
988.379
988.363
988.347
988.331
988.316
988.301
988.287
988.274
988.26
988.247
988.236
988.224
988.213
988.202
988.192
988.182
988.173
988.164
988.156
988.148
988.14
988.134
988.127
988.121
988.116
988.111
988.106
988.102
988.098
988.095
988.092
988.089
988.087
988.085
988.084
988.083
988.083
988.083
988.083
988.084
988.085
988.086
988.088
988.091
988.093
988.096
988.1
988.103
988.108
988.112
988.117
988.122
988.128
988.133
988.14
988.146
988.153
988.16
988.168
988.175
988.183
988.192
988.2
988.209
988.218
988.227
988.237
988.248
988.258
988.268
988.279
988.291
988.302
988.314
988.326
988.338
988.35
988.363
988.375
988.388
988.402
988.416
988.43
988.445
988.459
988.474
988.488
988.503
988.519
988.535
988.55
988.566
988.582
988.598
988.613
988.63
988.648
988.665
988.682
988.699
988.717
988.733
988.75
988.768
988.786
988.804
988.823
988.842
988.861
988.879
988.898
988.917
988.935
988.954
988.974
988.992
989.012
989.032
989.052
989.072
989.092
989.112
989.133
989.153
989.174
989.195
989.215
989.235
989.256
989.277
989.298
989.319
989.34
989.361
989.382
989.403
989.424
989.445
989.465
989.487
989.508
989.53
989.551
989.573
989.594
989.616
989.637
989.659
989.682
989.704
989.727
989.751
989.776
989.803
989.826
989.847
989.867
989.887
989.908
989.931
989.957
989.983
990.007
990.028
990.049
990.069
990.09
990.11
990.132
990.155
990.177
990.199
990.219
990.24
990.261
990.282
990.302
990.323
990.343
990.363
990.384
990.405
990.426
990.447
990.467
990.486
990.506
990.526
990.546
990.567
990.587
990.607
990.627
990.647
990.666
990.686
990.707
990.727
990.747
990.766
990.786
990.805
990.824
990.843
990.861
990.88
990.899
990.917
990.937
990.96
990.985
991.01
991.033
991.054
991.073
991.091
991.109
991.126
991.144
991.161
991.178
991.195
991.214
991.234
991.252
991.269
991.286
991.303
991.32
991.337
991.354
991.371
991.389
991.408
991.424
991.441
991.457
991.473
991.488
991.503
991.52
991.537
991.553
991.568
991.584
991.599
991.616
991.632
991.647
991.662
991.676
991.69
991.704
991.718
991.732
991.746
991.76
991.774
991.789
991.803
991.817
991.83
991.845
991.865
991.883
991.898
991.912
991.925
991.938
991.95
991.962
991.974
991.985
991.997
992.008
992.019
992.031
992.043
992.055
992.067
992.078
992.088
992.098
992.108
992.118
992.128
992.14
992.152
992.164
992.174
992.185
992.195
992.205
992.214
992.223
992.233
992.242
992.251
992.259
992.268
992.276
992.285
992.293
992.301
992.309
992.317
992.324
992.332
992.34
992.347
992.355
992.362
992.369
992.375
992.382
992.388
992.395
992.401
992.407
992.413
992.419
992.425
992.43
992.435
992.441
992.446
992.451
992.456
992.461
992.466
992.47
992.475
992.479
992.483
992.487
992.491
992.494
992.498
992.501
992.504
992.507
992.51
992.513
992.515
992.518
992.52
992.522
992.524
992.526
992.528
992.53
992.531
992.533
992.534
992.535
992.536
992.537
992.538
992.538
992.539
992.539
992.54
992.54
989.386
989.349
989.312
989.276
989.241
989.205
989.171
989.137
989.104
989.071
989.038
989.006
988.976
988.945
988.914
988.884
988.856
988.827
988.799
988.771
988.744
988.719
988.693
988.669
988.645
988.622
988.599
988.576
988.553
988.531
988.511
988.491
988.471
988.451
988.432
988.414
988.396
988.379
988.363
988.347
988.331
988.316
988.301
988.287
988.273
988.26
988.247
988.236
988.224
988.213
988.202
988.192
988.182
988.173
988.164
988.156
988.148
988.141
988.134
988.127
988.121
988.116
988.111
988.106
988.102
988.098
988.095
988.092
988.089
988.087
988.085
988.084
988.083
988.083
988.083
988.083
988.084
988.085
988.086
988.088
988.091
988.093
988.096
988.1
988.103
988.108
988.112
988.117
988.122
988.128
988.133
988.14
988.146
988.153
988.16
988.167
988.175
988.183
988.191
988.2
988.209
988.218
988.228
988.237
988.248
988.258
988.269
988.279
988.291
988.302
988.314
988.326
988.338
988.35
988.363
988.375
988.388
988.402
988.416
988.43
988.445
988.459
988.474
988.488
988.503
988.519
988.534
988.55
988.566
988.582
988.597
988.614
988.631
988.648
988.665
988.682
988.699
988.716
988.733
988.75
988.768
988.786
988.804
988.823
988.842
988.861
988.879
988.898
988.917
988.935
988.954
988.973
988.992
989.012
989.032
989.052
989.072
989.092
989.112
989.133
989.153
989.174
989.195
989.215
989.236
989.256
989.277
989.298
989.319
989.34
989.362
989.382
989.403
989.424
989.444
989.465
989.486
989.508
989.529
989.551
989.572
989.594
989.615
989.636
989.659
989.681
989.704
989.728
989.752
989.78
989.806
989.827
989.847
989.867
989.887
989.909
989.933
989.958
989.983
990.005
990.027
990.048
990.069
990.09
990.111
990.133
990.155
990.177
990.198
990.219
990.24
990.261
990.281
990.302
990.323
990.343
990.364
990.384
990.405
990.426
990.446
990.466
990.486
990.506
990.526
990.546
990.567
990.587
990.607
990.627
990.647
990.667
990.687
990.707
990.727
990.747
990.767
990.786
990.805
990.824
990.843
990.861
990.88
990.898
990.917
990.938
990.961
990.99
991.014
991.035
991.054
991.072
991.09
991.108
991.126
991.143
991.16
991.178
991.196
991.215
991.234
991.251
991.268
991.285
991.303
991.32
991.337
991.354
991.372
991.39
991.407
991.424
991.441
991.457
991.472
991.488
991.504
991.521
991.537
991.553
991.568
991.584
991.6
991.616
991.631
991.646
991.661
991.676
991.69
991.704
991.718
991.732
991.745
991.759
991.774
991.789
991.805
991.818
991.832
991.85
991.868
991.884
991.898
991.912
991.924
991.937
991.949
991.961
991.973
991.985
991.996
992.008
992.02
992.031
992.043
992.055
992.066
992.077
992.087
992.098
992.108
992.118
992.13
992.141
992.153
992.164
992.174
992.184
992.194
992.204
992.214
992.223
992.233
992.242
992.251
992.259
992.268
992.276
992.285
992.293
992.301
992.309
992.317
992.324
992.332
992.34
992.347
992.355
992.362
992.369
992.375
992.382
992.388
992.395
992.401
992.407
992.413
992.419
992.425
992.43
992.435
992.441
992.446
992.451
992.456
992.461
992.466
992.471
992.475
992.479
992.483
992.487
992.491
992.494
992.498
992.501
992.504
992.507
992.51
992.513
992.515
992.518
992.52
992.522
992.525
992.526
992.528
992.53
992.531
992.533
992.534
992.535
992.536
992.537
992.538
992.538
992.539
992.539
992.54
992.54
989.386
989.349
989.312
989.276
989.24
989.205
989.171
989.136
989.103
989.07
989.038
989.007
988.976
988.945
988.914
988.885
988.856
988.827
988.799
988.771
988.745
988.718
988.693
988.669
988.645
988.621
988.599
988.576
988.553
988.532
988.511
988.491
988.471
988.451
988.432
988.414
988.396
988.38
988.363
988.347
988.331
988.315
988.301
988.287
988.273
988.26
988.248
988.236
988.224
988.213
988.202
988.191
988.182
988.173
988.164
988.156
988.148
988.141
988.134
988.127
988.121
988.116
988.111
988.106
988.102
988.098
988.095
988.092
988.089
988.087
988.085
988.084
988.083
988.083
988.083
988.083
988.084
988.085
988.086
988.088
988.091
988.093
988.096
988.1
988.103
988.108
988.112
988.117
988.122
988.128
988.134
988.14
988.146
988.153
988.16
988.167
988.175
988.183
988.191
988.2
988.209
988.218
988.228
988.237
988.248
988.258
988.269
988.28
988.291
988.302
988.314
988.326
988.338
988.35
988.363
988.375
988.388
988.402
988.416
988.43
988.445
988.459
988.474
988.488
988.503
988.519
988.535
988.55
988.566
988.582
988.598
988.614
988.631
988.648
988.665
988.682
988.699
988.716
988.733
988.751
988.768
988.786
988.804
988.822
988.841
988.86
988.879
988.898
988.916
988.935
988.954
988.973
988.993
989.012
989.032
989.052
989.072
989.092
989.112
989.132
989.153
989.174
989.195
989.216
989.236
989.256
989.277
989.298
989.319
989.341
989.362
989.382
989.402
989.423
989.444
989.465
989.486
989.507
989.528
989.55
989.572
989.593
989.614
989.636
989.658
989.682
989.706
989.731
989.759
989.785
989.807
989.827
989.847
989.867
989.889
989.911
989.934
989.957
989.981
990.004
990.026
990.048
990.069
990.09
990.112
990.133
990.155
990.176
990.197
990.218
990.239
990.26
990.281
990.302
990.323
990.343
990.364
990.384
990.405
990.425
990.445
990.466
990.486
990.506
990.526
990.547
990.567
990.587
990.607
990.627
990.647
990.667
990.687
990.707
990.727
990.747
990.767
990.786
990.805
990.824
990.843
990.861
990.879
990.898
990.918
990.94
990.967
990.994
991.015
991.034
991.053
991.071
991.089
991.107
991.125
991.143
991.16
991.178
991.197
991.215
991.233
991.25
991.267
991.285
991.302
991.32
991.337
991.354
991.372
991.391
991.408
991.425
991.441
991.457
991.472
991.488
991.504
991.521
991.537
991.553
991.569
991.584
991.6
991.616
991.631
991.646
991.661
991.675
991.69
991.704
991.718
991.731
991.744
991.758
991.774
991.792
991.808
991.821
991.835
991.851
991.868
991.883
991.898
991.911
991.924
991.936
991.949
991.961
991.973
991.984
991.996
992.008
992.02
992.032
992.043
992.055
992.066
992.077
992.087
992.098
992.108
992.119
992.131
992.142
992.153
992.164
992.174
992.184
992.194
992.204
992.214
992.223
992.232
992.242
992.251
992.259
992.268
992.277
992.285
992.293
992.301
992.309
992.317
992.324
992.332
992.34
992.347
992.355
992.362
992.368
992.375
992.382
992.388
992.395
992.401
992.407
992.413
992.419
992.424
992.43
992.435
992.441
992.446
992.451
992.456
992.461
992.466
992.471
992.475
992.479
992.483
992.487
992.491
992.494
992.498
992.501
992.504
992.507
992.51
992.513
992.515
992.518
992.52
992.522
992.525
992.526
992.528
992.53
992.531
992.533
992.534
992.535
992.536
992.537
992.538
992.538
992.539
992.539
992.54
992.54
989.386
989.349
989.312
989.276
989.24
989.204
989.17
989.136
989.102
989.07
989.038
989.007
988.977
988.944
988.914
988.885
988.856
988.827
988.799
988.771
988.744
988.718
988.693
988.669
988.645
988.622
988.599
988.576
988.553
988.532
988.511
988.491
988.471
988.452
988.432
988.414
988.397
988.38
988.363
988.346
988.331
988.316
988.301
988.287
988.274
988.26
988.248
988.236
988.224
988.213
988.202
988.191
988.182
988.173
988.164
988.156
988.148
988.141
988.134
988.127
988.121
988.116
988.111
988.106
988.102
988.098
988.095
988.092
988.089
988.087
988.085
988.084
988.083
988.083
988.083
988.083
988.084
988.085
988.086
988.088
988.091
988.093
988.096
988.1
988.103
988.108
988.112
988.117
988.122
988.128
988.134
988.14
988.146
988.153
988.16
988.167
988.175
988.183
988.191
988.2
988.209
988.218
988.228
988.238
988.248
988.258
988.269
988.279
988.29
988.302
988.314
988.325
988.337
988.35
988.363
988.376
988.388
988.402
988.416
988.43
988.445
988.459
988.473
988.488
988.503
988.519
988.535
988.55
988.566
988.582
988.598
988.614
988.631
988.648
988.665
988.682
988.699
988.716
988.733
988.751
988.768
988.786
988.804
988.823
988.841
988.86
988.879
988.897
988.916
988.935
988.954
988.973
988.993
989.012
989.032
989.052
989.072
989.092
989.112
989.132
989.153
989.174
989.195
989.216
989.236
989.256
989.277
989.299
989.32
989.341
989.361
989.382
989.402
989.423
989.444
989.465
989.486
989.507
989.528
989.549
989.57
989.592
989.613
989.635
989.659
989.684
989.712
989.738
989.762
989.785
989.806
989.826
989.847
989.868
989.89
989.912
989.934
989.957
989.98
990.002
990.025
990.047
990.069
990.09
990.112
990.133
990.154
990.175
990.196
990.217
990.238
990.26
990.281
990.302
990.323
990.343
990.363
990.384
990.405
990.425
990.446
990.466
990.486
990.506
990.527
990.547
990.567
990.587
990.607
990.627
990.647
990.667
990.687
990.707
990.727
990.747
990.767
990.786
990.805
990.824
990.843
990.861
990.88
990.899
990.921
990.946
990.972
990.995
991.015
991.033
991.052
991.07
991.088
991.106
991.124
991.142
991.16
991.178
991.196
991.215
991.232
991.25
991.267
991.284
991.302
991.319
991.337
991.354
991.373
991.392
991.409
991.425
991.441
991.456
991.472
991.488
991.505
991.521
991.538
991.553
991.569
991.584
991.6
991.615
991.631
991.645
991.66
991.675
991.689
991.703
991.717
991.73
991.744
991.759
991.777
991.795
991.81
991.823
991.837
991.852
991.868
991.883
991.897
991.91
991.923
991.936
991.948
991.96
991.972
991.984
991.996
992.008
992.02
992.032
992.043
992.055
992.066
992.076
992.087
992.098
992.109
992.12
992.132
992.142
992.153
992.163
992.174
992.184
992.194
992.204
992.213
992.223
992.232
992.242
992.251
992.26
992.268
992.277
992.285
992.293
992.301
992.309
992.317
992.324
992.332
992.34
992.347
992.354
992.361
992.368
992.375
992.382
992.388
992.395
992.401
992.407
992.413
992.419
992.424
992.43
992.435
992.441
992.446
992.451
992.456
992.461
992.466
992.471
992.475
992.479
992.483
992.487
992.491
992.494
992.498
992.501
992.504
992.507
992.51
992.513
992.515
992.518
992.52
992.522
992.525
992.526
992.528
992.53
992.532
992.533
992.534
992.535
992.536
992.537
992.538
992.539
992.539
992.539
992.54
992.54
989.386
989.35
989.313
989.276
989.24
989.204
989.169
989.135
989.103
989.071
989.038
989.007
988.976
988.944
988.914
988.884
988.855
988.827
988.8
988.772
988.745
988.718
988.693
988.669
988.645
988.621
988.599
988.576
988.554
988.532
988.51
988.49
988.471
988.452
988.432
988.414
988.397
988.38
988.363
988.346
988.331
988.315
988.301
988.287
988.274
988.26
988.248
988.236
988.224
988.213
988.202
988.191
988.182
988.173
988.164
988.156
988.148
988.141
988.134
988.127
988.121
988.116
988.111
988.106
988.102
988.098
988.095
988.092
988.089
988.087
988.085
988.084
988.083
988.083
988.083
988.083
988.084
988.085
988.086
988.088
988.091
988.093
988.096
988.1
988.103
988.108
988.112
988.117
988.122
988.128
988.133
988.139
988.146
988.153
988.16
988.167
988.175
988.183
988.191
988.2
988.209
988.218
988.228
988.238
988.248
988.258
988.269
988.279
988.29
988.302
988.314
988.325
988.337
988.35
988.363
988.376
988.388
988.402
988.416
988.43
988.445
988.459
988.473
988.488
988.504
988.519
988.534
988.55
988.566
988.582
988.598
988.614
988.631
988.648
988.665
988.682
988.7
988.716
988.733
988.751
988.768
988.786
988.804
988.823
988.841
988.86
988.879
988.897
988.916
988.935
988.954
988.973
988.993
989.013
989.033
989.052
989.072
989.091
989.111
989.132
989.153
989.175
989.196
989.216
989.237
989.257
989.278
989.299
989.32
989.341
989.361
989.381
989.402
989.423
989.444
989.464
989.485
989.506
989.527
989.548
989.569
989.59
989.612
989.634
989.66
989.691
989.719
989.742
989.764
989.785
989.805
989.826
989.847
989.869
989.89
989.912
989.934
989.956
989.979
990.002
990.024
990.046
990.068
990.09
990.111
990.133
990.154
990.175
990.196
990.217
990.238
990.259
990.281
990.302
990.322
990.343
990.363
990.384
990.404
990.425
990.446
990.466
990.486
990.506
990.526
990.547
990.567
990.587
990.607
990.627
990.647
990.667
990.687
990.707
990.728
990.748
990.767
990.786
990.805
990.825
990.844
990.863
990.882
990.903
990.926
990.949
990.972
990.993
991.013
991.032
991.051
991.069
991.087
991.105
991.123
991.142
991.16
991.178
991.196
991.214
991.231
991.249
991.267
991.284
991.302
991.319
991.337
991.356
991.375
991.392
991.409
991.425
991.44
991.456
991.472
991.488
991.505
991.521
991.537
991.553
991.569
991.584
991.6
991.615
991.63
991.645
991.66
991.675
991.689
991.703
991.716
991.73
991.745
991.761
991.78
991.797
991.811
991.824
991.838
991.853
991.868
991.882
991.896
991.91
991.923
991.935
991.948
991.96
991.972
991.983
991.995
992.007
992.02
992.032
992.043
992.055
992.066
992.076
992.087
992.098
992.109
992.121
992.132
992.142
992.153
992.163
992.173
992.183
992.193
992.204
992.213
992.223
992.232
992.241
992.251
992.26
992.268
992.277
992.285
992.293
992.301
992.309
992.317
992.324
992.332
992.34
992.347
992.354
992.361
992.368
992.375
992.382
992.388
992.395
992.401
992.407
992.413
992.419
992.424
992.43
992.435
992.441
992.446
992.451
992.456
992.461
992.466
992.471
992.475
992.479
992.483
992.487
992.491
992.494
992.498
992.501
992.504
992.507
992.51
992.513
992.515
992.518
992.52
992.522
992.525
992.526
992.528
992.53
992.532
992.533
992.534
992.535
992.536
992.537
992.538
992.539
992.539
992.539
992.54
992.54
989.386
989.35
989.313
989.277
989.241
989.204
989.169
989.135
989.102
989.07
989.038
989.007
988.975
988.944
988.914
988.884
988.855
988.827
988.8
988.773
988.745
988.718
988.693
988.669
988.645
988.621
988.598
988.576
988.554
988.532
988.51
988.49
988.471
988.452
988.433
988.414
988.396
988.379
988.363
988.347
988.331
988.315
988.301
988.287
988.273
988.26
988.248
988.236
988.224
988.213
988.202
988.192
988.182
988.173
988.164
988.156
988.148
988.141
988.134
988.127
988.121
988.116
988.111
988.106
988.102
988.098
988.095
988.092
988.089
988.087
988.085
988.084
988.083
988.083
988.083
988.083
988.084
988.085
988.086
988.088
988.091
988.093
988.096
988.1
988.103
988.108
988.112
988.117
988.122
988.128
988.133
988.139
988.146
988.153
988.16
988.167
988.175
988.183
988.192
988.2
988.209
988.218
988.228
988.238
988.248
988.258
988.269
988.279
988.29
988.302
988.314
988.325
988.337
988.35
988.363
988.376
988.388
988.402
988.416
988.43
988.445
988.459
988.473
988.488
988.504
988.519
988.534
988.55
988.566
988.582
988.598
988.614
988.631
988.647
988.665
988.682
988.7
988.717
988.734
988.751
988.768
988.786
988.804
988.822
988.841
988.86
988.879
988.897
988.916
988.935
988.954
988.973
988.993
989.013
989.033
989.052
989.072
989.091
989.111
989.132
989.154
989.175
989.196
989.216
989.237
989.258
989.278
989.299
989.32
989.341
989.361
989.381
989.402
989.422
989.443
989.464
989.485
989.506
989.526
989.547
989.568
989.589
989.61
989.634
989.665
989.7
989.724
989.744
989.764
989.784
989.805
989.826
989.847
989.869
989.89
989.912
989.934
989.956
989.979
990.001
990.024
990.046
990.068
990.089
990.111
990.132
990.153
990.174
990.196
990.217
990.238
990.259
990.28
990.301
990.322
990.342
990.363
990.384
990.404
990.425
990.445
990.466
990.486
990.506
990.526
990.547
990.567
990.587
990.607
990.627
990.647
990.667
990.687
990.707
990.728
990.748
990.767
990.786
990.806
990.826
990.846
990.865
990.885
990.906
990.928
990.95
990.972
990.992
991.012
991.032
991.05
991.068
991.086
991.105
991.123
991.141
991.159
991.178
991.196
991.213
991.231
991.249
991.266
991.284
991.301
991.319
991.338
991.357
991.375
991.392
991.409
991.424
991.44
991.456
991.472
991.489
991.505
991.521
991.537
991.553
991.568
991.584
991.6
991.615
991.63
991.645
991.66
991.675
991.689
991.703
991.716
991.731
991.746
991.764
991.782
991.797
991.811
991.825
991.839
991.853
991.868
991.882
991.896
991.909
991.922
991.935
991.947
991.959
991.971
991.983
991.995
992.008
992.02
992.031
992.043
992.054
992.065
992.076
992.087
992.098
992.109
992.121
992.132
992.142
992.153
992.163
992.173
992.183
992.193
992.203
992.213
992.223
992.232
992.242
992.251
992.26
992.268
992.277
992.285
992.293
992.301
992.309
992.317
992.324
992.332
992.34
992.347
992.354
992.361
992.368
992.375
992.382
992.388
992.395
992.401
992.407
992.413
992.419
992.424
992.43
992.435
992.441
992.446
992.451
992.456
992.461
992.466
992.471
992.475
992.479
992.483
992.487
992.491
992.494
992.498
992.501
992.504
992.507
992.51
992.513
992.515
992.518
992.52
992.522
992.525
992.526
992.528
992.53
992.532
992.533
992.534
992.535
992.536
992.537
992.538
992.539
992.539
992.539
992.54
992.54
989.386
989.349
989.313
989.277
989.24
989.205
989.17
989.135
989.102
989.069
989.037
989.007
988.975
988.944
988.914
988.885
988.856
988.827
988.799
988.772
988.746
988.719
988.694
988.669
988.645
988.622
988.598
988.575
988.553
988.532
988.51
988.49
988.471
988.451
988.432
988.414
988.396
988.38
988.363
988.347
988.331
988.316
988.301
988.287
988.273
988.26
988.248
988.236
988.224
988.213
988.202
988.192
988.182
988.173
988.164
988.156
988.148
988.141
988.134
988.127
988.121
988.116
988.111
988.106
988.102
988.098
988.095
988.092
988.089
988.087
988.085
988.084
988.083
988.083
988.083
988.083
988.084
988.085
988.086
988.088
988.091
988.093
988.096
988.1
988.103
988.108
988.112
988.117
988.122
988.128
988.133
988.139
988.146
988.153
988.16
988.167
988.175
988.183
988.191
988.2
988.209
988.218
988.228
988.238
988.248
988.258
988.268
988.279
988.29
988.302
988.313
988.325
988.337
988.35
988.362
988.375
988.388
988.402
988.416
988.43
988.445
988.459
988.473
988.488
988.504
988.519
988.534
988.549
988.566
988.582
988.598
988.614
988.63
988.648
988.665
988.683
988.7
988.717
988.734
988.75
988.768
988.786
988.804
988.822
988.841
988.86
988.878
988.897
988.916
988.935
988.954
988.973
988.993
989.013
989.033
989.052
989.072
989.092
989.112
989.132
989.154
989.175
989.196
989.216
989.237
989.258
989.278
989.299
989.32
989.341
989.361
989.381
989.402
989.423
989.443
989.464
989.484
989.505
989.526
989.546
989.567
989.588
989.611
989.639
989.676
989.706
989.726
989.745
989.764
989.784
989.805
989.826
989.847
989.868
989.89
989.912
989.934
989.956
989.978
990.001
990.023
990.046
990.067
990.089
990.11
990.131
990.153
990.174
990.195
990.217
990.238
990.259
990.28
990.3
990.321
990.342
990.363
990.383
990.404
990.425
990.445
990.465
990.486
990.506
990.526
990.547
990.567
990.587
990.607
990.627
990.647
990.667
990.687
990.708
990.729
990.748
990.768
990.787
990.808
990.828
990.847
990.867
990.887
990.908
990.929
990.95
990.971
990.992
991.011
991.031
991.049
991.068
991.086
991.104
991.122
991.141
991.159
991.177
991.195
991.213
991.231
991.249
991.266
991.284
991.302
991.32
991.339
991.357
991.375
991.392
991.408
991.424
991.44
991.456
991.472
991.489
991.505
991.521
991.537
991.553
991.568
991.584
991.599
991.615
991.63
991.645
991.66
991.674
991.689
991.703
991.717
991.732
991.748
991.766
991.782
991.797
991.811
991.825
991.839
991.854
991.868
991.882
991.896
991.909
991.922
991.934
991.947
991.959
991.971
991.983
991.995
992.007
992.019
992.031
992.043
992.054
992.066
992.077
992.087
992.098
992.11
992.121
992.132
992.142
992.153
992.163
992.173
992.183
992.193
992.203
992.213
992.223
992.232
992.241
992.251
992.26
992.268
992.277
992.285
992.293
992.301
992.309
992.317
992.324
992.332
992.34
992.347
992.354
992.361
992.368
992.375
992.381
992.388
992.394
992.401
992.407
992.413
992.419
992.425
992.43
992.435
992.441
992.446
992.451
992.456
992.461
992.466
992.471
992.475
992.479
992.483
992.487
992.491
992.494
992.498
992.501
992.504
992.507
992.51
992.513
992.515
992.518
992.52
992.522
992.524
992.526
992.528
992.53
992.532
992.533
992.534
992.535
992.536
992.537
992.538
992.539
992.539
992.539
992.54
992.54
989.386
989.349
989.313
989.277
989.241
989.205
989.17
989.136
989.102
989.07
989.038
989.006
988.974
988.943
988.913
988.885
988.855
988.827
988.799
988.773
988.746
988.719
988.694
988.669
988.645
988.621
988.598
988.575
988.553
988.532
988.511
988.49
988.471
988.451
988.432
988.414
988.397
988.38
988.363
988.346
988.331
988.316
988.301
988.287
988.273
988.26
988.248
988.236
988.224
988.212
988.202
988.192
988.182
988.173
988.164
988.156
988.148
988.141
988.134
988.127
988.121
988.116
988.111
988.106
988.102
988.098
988.095
988.092
988.089
988.087
988.085
988.084
988.083
988.083
988.083
988.083
988.084
988.085
988.086
988.088
988.091
988.093
988.096
988.1
988.103
988.107
988.112
988.117
988.122
988.128
988.133
988.139
988.146
988.153
988.16
988.167
988.175
988.183
988.191
988.2
988.209
988.218
988.228
988.238
988.248
988.258
988.268
988.279
988.29
988.301
988.313
988.325
988.337
988.35
988.363
988.375
988.389
988.402
988.416
988.43
988.445
988.459
988.473
988.488
988.504
988.519
988.534
988.55
988.566
988.582
988.598
988.614
988.631
988.648
988.665
988.682
988.7
988.717
988.733
988.75
988.768
988.786
988.804
988.823
988.841
988.859
988.878
988.897
988.916
988.935
988.954
988.973
988.993
989.013
989.033
989.053
989.072
989.092
989.112
989.133
989.154
989.175
989.196
989.217
989.238
989.258
989.278
989.298
989.319
989.34
989.361
989.381
989.402
989.423
989.443
989.463
989.484
989.505
989.525
989.546
989.567
989.59
989.618
989.652
989.682
989.705
989.725
989.744
989.764
989.784
989.805
989.826
989.847
989.869
989.89
989.912
989.934
989.956
989.978
990
990.023
990.045
990.067
990.088
990.109
990.131
990.152
990.174
990.195
990.216
990.237
990.258
990.279
990.3
990.321
990.342
990.362
990.383
990.404
990.425
990.445
990.465
990.486
990.506
990.526
990.547
990.567
990.587
990.607
990.627
990.647
990.667
990.688
990.709
990.729
990.749
990.769
990.789
990.81
990.829
990.849
990.868
990.888
990.908
990.929
990.95
990.971
990.991
991.011
991.03
991.049
991.067
991.085
991.104
991.122
991.14
991.158
991.177
991.195
991.213
991.231
991.249
991.267
991.285
991.303
991.321
991.339
991.357
991.374
991.392
991.408
991.424
991.44
991.456
991.472
991.489
991.505
991.521
991.537
991.553
991.568
991.584
991.599
991.614
991.63
991.645
991.66
991.675
991.689
991.703
991.718
991.734
991.75
991.767
991.782
991.797
991.811
991.825
991.84
991.854
991.868
991.882
991.895
991.909
991.921
991.934
991.946
991.959
991.971
991.983
991.995
992.007
992.019
992.031
992.043
992.054
992.065
992.077
992.088
992.099
992.11
992.121
992.132
992.142
992.153
992.163
992.173
992.183
992.193
992.203
992.213
992.223
992.232
992.241
992.251
992.26
992.268
992.277
992.285
992.293
992.301
992.309
992.317
992.324
992.332
992.34
992.347
992.354
992.361
992.368
992.375
992.381
992.388
992.395
992.401
992.407
992.413
992.419
992.425
992.43
992.435
992.441
992.446
992.451
992.456
992.461
992.466
992.471
992.475
992.479
992.483
992.487
992.491
992.494
992.498
992.501
992.504
992.507
992.51
992.513
992.515
992.518
992.52
992.522
992.524
992.526
992.528
992.53
992.532
992.533
992.534
992.535
992.536
992.537
992.538
992.539
992.539
992.539
992.54
992.54
989.386
989.348
989.313
989.277
989.241
989.205
989.17
989.136
989.103
989.07
989.038
989.006
988.974
988.944
988.913
988.884
988.855
988.827
988.8
988.773
988.746
988.719
988.693
988.669
988.645
988.621
988.598
988.575
988.553
988.532
988.511
988.49
988.47
988.451
988.433
988.414
988.396
988.379
988.363
988.347
988.331
988.316
988.301
988.287
988.273
988.26
988.248
988.235
988.224
988.212
988.202
988.192
988.182
988.173
988.164
988.156
988.148
988.141
988.134
988.127
988.121
988.116
988.111
988.106
988.102
988.098
988.094
988.092
988.089
988.087
988.085
988.084
988.083
988.083
988.083
988.083
988.084
988.085
988.086
988.088
988.091
988.093
988.096
988.1
988.103
988.107
988.112
988.117
988.122
988.128
988.133
988.139
988.146
988.153
988.16
988.167
988.175
988.183
988.192
988.2
988.209
988.219
988.228
988.238
988.248
988.258
988.269
988.279
988.29