/*--------------------------------*- C++ -*----------------------------------*\
  =========                 |
  \\      /  F ield         | OpenFOAM: The Open Source CFD Toolbox
   \\    /   O peration     | Website:  https://openfoam.org
    \\  /    A nd           | Version:  7
     \\/     M anipulation  |
\*---------------------------------------------------------------------------*/
FoamFile
{
    version     2.0;
    format      ascii;
    class       volScalarField;
    location    "4000";
    object      rho2;
}
// * * * * * * * * * * * * * * * * * * * * * * * * * * * * * * * * * * * * * //

dimensions      [1 -3 0 0 0 0 0];

internalField   nonuniform List<scalar> 
160000
(
1.10549
1.1052
1.10492
1.10464
1.10436
1.10408
1.10381
1.10355
1.10331
1.10305
1.10279
1.10255
1.10231
1.10207
1.10184
1.10162
1.1014
1.10119
1.10098
1.10077
1.10057
1.10038
1.10019
1.1
1.09983
1.09965
1.09947
1.0993
1.09913
1.09897
1.09882
1.09868
1.09853
1.09838
1.09825
1.09811
1.09798
1.09785
1.09773
1.09761
1.0975
1.09739
1.09728
1.09718
1.09708
1.09698
1.09689
1.0968
1.09672
1.09664
1.09656
1.09649
1.09641
1.09635
1.09628
1.09622
1.09617
1.09611
1.09607
1.09602
1.09598
1.09593
1.0959
1.09586
1.09584
1.09581
1.09578
1.09576
1.09574
1.09573
1.09572
1.09571
1.0957
1.0957
1.0957
1.0957
1.0957
1.09571
1.09572
1.09574
1.09575
1.09577
1.0958
1.09582
1.09585
1.09588
1.09591
1.09594
1.09598
1.09602
1.09606
1.09611
1.09616
1.09621
1.09626
1.09631
1.09637
1.09642
1.09648
1.09655
1.09661
1.09668
1.09674
1.09682
1.09689
1.09697
1.09704
1.09712
1.0972
1.09729
1.09738
1.09746
1.09755
1.09764
1.09773
1.09783
1.09792
1.09802
1.09812
1.09823
1.09834
1.09844
1.09855
1.09866
1.09877
1.09888
1.099
1.09912
1.09923
1.09935
1.09947
1.09959
1.09971
1.09984
1.09997
1.1001
1.10023
1.10036
1.10048
1.10061
1.10074
1.10088
1.10102
1.10115
1.1013
1.10144
1.10158
1.10173
1.10187
1.10201
1.10215
1.1023
1.10244
1.10259
1.10275
1.1029
1.10305
1.10321
1.10337
1.10352
1.10368
1.10384
1.104
1.10416
1.10432
1.10447
1.10464
1.1048
1.10496
1.10513
1.10529
1.10546
1.10562
1.10579
1.10596
1.10612
1.10628
1.10645
1.10662
1.1068
1.10697
1.10714
1.10731
1.10748
1.10766
1.10783
1.10802
1.1082
1.10839
1.10858
1.10879
1.10898
1.10915
1.10932
1.1095
1.10967
1.10984
1.11004
1.11026
1.11047
1.11065
1.11082
1.11099
1.11115
1.11131
1.11149
1.11168
1.11187
1.11205
1.11222
1.1124
1.11257
1.11274
1.11291
1.11308
1.11325
1.11342
1.11359
1.11377
1.11395
1.11413
1.1143
1.11447
1.11463
1.11479
1.11496
1.11514
1.11531
1.11548
1.11566
1.11583
1.11599
1.11616
1.11634
1.11651
1.11669
1.11686
1.11702
1.11719
1.11735
1.11752
1.11768
1.11784
1.11801
1.11817
1.11835
1.11854
1.11874
1.11895
1.11916
1.11938
1.11956
1.11971
1.11986
1.12001
1.12017
1.12032
1.12047
1.12062
1.12078
1.12097
1.12114
1.1213
1.12144
1.12159
1.12174
1.1219
1.12205
1.1222
1.12236
1.12253
1.12269
1.12284
1.12299
1.12313
1.12327
1.12341
1.12356
1.12372
1.12386
1.124
1.12414
1.12429
1.12444
1.12458
1.12473
1.12487
1.125
1.12513
1.12526
1.12539
1.12552
1.12564
1.12578
1.12591
1.12604
1.12618
1.12631
1.12643
1.12657
1.12673
1.1269
1.12707
1.12721
1.12734
1.12745
1.12757
1.12768
1.12779
1.1279
1.12801
1.12812
1.12823
1.12833
1.12844
1.12856
1.12868
1.12879
1.12888
1.12898
1.12907
1.12917
1.12927
1.12937
1.12948
1.1296
1.12971
1.12981
1.12991
1.13
1.1301
1.13019
1.13027
1.13036
1.13045
1.13053
1.13062
1.1307
1.13078
1.13087
1.13094
1.13102
1.13109
1.13116
1.13124
1.13131
1.13139
1.13146
1.13153
1.1316
1.13167
1.13173
1.13179
1.13186
1.13192
1.13198
1.13204
1.13209
1.13215
1.13221
1.13226
1.13231
1.13236
1.13241
1.13246
1.13251
1.13256
1.1326
1.13265
1.13269
1.13273
1.13276
1.1328
1.13284
1.13287
1.1329
1.13294
1.13297
1.13299
1.13302
1.13305
1.13307
1.13309
1.13312
1.13314
1.13316
1.13318
1.13319
1.13321
1.13322
1.13323
1.13325
1.13326
1.13326
1.13327
1.13328
1.13328
1.13329
1.13329
1.13329
1.10549
1.1052
1.10492
1.10464
1.10436
1.10409
1.10382
1.10355
1.1033
1.10305
1.10279
1.10255
1.10232
1.10208
1.10184
1.10162
1.10141
1.10119
1.10098
1.10077
1.10057
1.10038
1.10019
1.1
1.09982
1.09965
1.09948
1.0993
1.09913
1.09898
1.09882
1.09867
1.09853
1.09838
1.09825
1.09811
1.09798
1.09785
1.09773
1.09761
1.0975
1.09739
1.09728
1.09718
1.09708
1.09698
1.09689
1.0968
1.09672
1.09664
1.09656
1.09649
1.09641
1.09635
1.09628
1.09622
1.09617
1.09611
1.09606
1.09602
1.09598
1.09593
1.0959
1.09587
1.09584
1.09581
1.09578
1.09576
1.09574
1.09573
1.09572
1.09571
1.0957
1.0957
1.0957
1.0957
1.0957
1.09571
1.09572
1.09574
1.09575
1.09577
1.0958
1.09582
1.09585
1.09588
1.09591
1.09594
1.09598
1.09602
1.09606
1.09611
1.09616
1.09621
1.09626
1.09631
1.09637
1.09642
1.09648
1.09654
1.09661
1.09668
1.09674
1.09682
1.09689
1.09697
1.09704
1.09712
1.09721
1.09729
1.09738
1.09746
1.09755
1.09764
1.09773
1.09782
1.09792
1.09802
1.09812
1.09823
1.09834
1.09844
1.09855
1.09866
1.09877
1.09888
1.099
1.09911
1.09923
1.09935
1.09947
1.09959
1.09971
1.09984
1.09997
1.1001
1.10022
1.10036
1.10048
1.10061
1.10074
1.10088
1.10102
1.10115
1.1013
1.10144
1.10158
1.10173
1.10187
1.10201
1.10215
1.1023
1.10244
1.10259
1.10275
1.1029
1.10305
1.10321
1.10336
1.10352
1.10368
1.10384
1.104
1.10416
1.10432
1.10447
1.10464
1.1048
1.10496
1.10513
1.1053
1.10546
1.10562
1.10579
1.10595
1.10612
1.10628
1.10645
1.10662
1.1068
1.10696
1.10714
1.10731
1.10748
1.10765
1.10783
1.10802
1.1082
1.10839
1.10859
1.10881
1.109
1.10916
1.10932
1.10949
1.10966
1.10984
1.11006
1.11028
1.11047
1.11064
1.11081
1.11098
1.11115
1.11132
1.1115
1.11169
1.11187
1.11205
1.11222
1.11239
1.11257
1.11274
1.11291
1.11308
1.11325
1.11342
1.11359
1.11377
1.11395
1.11412
1.11429
1.11446
1.11462
1.11479
1.11496
1.11514
1.11531
1.11548
1.11566
1.11583
1.11599
1.11617
1.11634
1.11652
1.11668
1.11685
1.11702
1.11719
1.11735
1.11752
1.11768
1.11784
1.118
1.11817
1.11834
1.11854
1.11876
1.11898
1.11918
1.11937
1.11954
1.1197
1.11985
1.12001
1.12016
1.12032
1.12047
1.12062
1.12079
1.12097
1.12114
1.12129
1.12144
1.12159
1.12174
1.1219
1.12205
1.1222
1.12237
1.12254
1.12269
1.12284
1.12299
1.12313
1.12326
1.12341
1.12356
1.12372
1.12386
1.124
1.12414
1.12429
1.12444
1.12459
1.12473
1.12487
1.125
1.12513
1.12526
1.12539
1.12552
1.12564
1.12578
1.12591
1.12604
1.12618
1.12631
1.12643
1.12658
1.12676
1.12693
1.12708
1.12721
1.12733
1.12745
1.12756
1.12768
1.12779
1.1279
1.12801
1.12812
1.12822
1.12833
1.12845
1.12857
1.12868
1.12878
1.12888
1.12898
1.12907
1.12917
1.12927
1.12938
1.1295
1.12961
1.12971
1.12981
1.12991
1.13
1.13009
1.13018
1.13027
1.13036
1.13045
1.13053
1.13062
1.1307
1.13078
1.13086
1.13094
1.13102
1.13109
1.13116
1.13124
1.13131
1.13139
1.13146
1.13153
1.1316
1.13167
1.13173
1.13179
1.13186
1.13192
1.13198
1.13204
1.13209
1.13215
1.1322
1.13226
1.13231
1.13236
1.13241
1.13246
1.13251
1.13256
1.1326
1.13265
1.13269
1.13273
1.13276
1.1328
1.13284
1.13287
1.1329
1.13294
1.13297
1.13299
1.13302
1.13305
1.13307
1.13309
1.13312
1.13314
1.13316
1.13318
1.13319
1.13321
1.13322
1.13323
1.13325
1.13326
1.13326
1.13327
1.13328
1.13328
1.13329
1.13329
1.13329
1.10549
1.1052
1.10492
1.10463
1.10436
1.10408
1.10382
1.10355
1.1033
1.10305
1.10279
1.10255
1.10232
1.10208
1.10185
1.10162
1.1014
1.10119
1.10098
1.10077
1.10057
1.10037
1.10018
1.1
1.09982
1.09965
1.09948
1.09931
1.09914
1.09898
1.09882
1.09867
1.09853
1.09838
1.09824
1.09811
1.09798
1.09785
1.09774
1.09762
1.0975
1.09739
1.09728
1.09718
1.09708
1.09698
1.09689
1.0968
1.09672
1.09664
1.09656
1.09648
1.09641
1.09635
1.09628
1.09622
1.09617
1.09611
1.09606
1.09602
1.09598
1.09594
1.0959
1.09586
1.09584
1.09581
1.09578
1.09576
1.09574
1.09573
1.09572
1.09571
1.0957
1.0957
1.0957
1.0957
1.0957
1.09571
1.09572
1.09574
1.09575
1.09577
1.0958
1.09582
1.09585
1.09588
1.09591
1.09594
1.09598
1.09602
1.09606
1.09611
1.09616
1.09621
1.09626
1.09631
1.09636
1.09642
1.09648
1.09654
1.09661
1.09668
1.09674
1.09682
1.09689
1.09697
1.09704
1.09712
1.0972
1.09729
1.09738
1.09746
1.09755
1.09764
1.09773
1.09782
1.09792
1.09802
1.09813
1.09823
1.09833
1.09844
1.09855
1.09866
1.09877
1.09888
1.099
1.09911
1.09923
1.09935
1.09947
1.09959
1.09971
1.09984
1.09997
1.1001
1.10022
1.10035
1.10048
1.10061
1.10074
1.10088
1.10102
1.10115
1.1013
1.10144
1.10158
1.10173
1.10187
1.10201
1.10215
1.1023
1.10244
1.10259
1.10275
1.1029
1.10305
1.10321
1.10337
1.10352
1.10368
1.10384
1.104
1.10416
1.10432
1.10448
1.10464
1.1048
1.10496
1.10513
1.1053
1.10546
1.10563
1.10579
1.10595
1.10611
1.10628
1.10645
1.10662
1.10679
1.10696
1.10713
1.1073
1.10747
1.10765
1.10783
1.10802
1.1082
1.1084
1.10863
1.10883
1.109
1.10916
1.10932
1.10949
1.10967
1.10986
1.11007
1.11027
1.11045
1.11063
1.1108
1.11098
1.11115
1.11133
1.11151
1.11169
1.11186
1.11204
1.11222
1.11239
1.11256
1.11273
1.11291
1.11308
1.11325
1.11342
1.1136
1.11377
1.11395
1.11412
1.11429
1.11446
1.11462
1.1148
1.11497
1.11514
1.11531
1.11548
1.11566
1.11583
1.116
1.11617
1.11634
1.11651
1.11669
1.11686
1.11702
1.11719
1.11735
1.11752
1.11768
1.11784
1.118
1.11817
1.11835
1.11855
1.1188
1.11902
1.1192
1.11937
1.11953
1.11969
1.11985
1.12
1.12016
1.12031
1.12047
1.12063
1.1208
1.12097
1.12112
1.12128
1.12143
1.12159
1.12174
1.1219
1.12205
1.12221
1.12238
1.12253
1.12269
1.12284
1.12299
1.12312
1.12326
1.12341
1.12357
1.12372
1.12386
1.124
1.12415
1.1243
1.12444
1.12458
1.12472
1.12486
1.12499
1.12513
1.12526
1.12539
1.12551
1.12564
1.12577
1.1259
1.12605
1.1262
1.12632
1.12645
1.12662
1.12679
1.12694
1.12708
1.1272
1.12732
1.12744
1.12756
1.12767
1.12778
1.1279
1.12801
1.12812
1.12823
1.12834
1.12845
1.12857
1.12867
1.12878
1.12888
1.12897
1.12907
1.12917
1.12928
1.12939
1.1295
1.12961
1.12971
1.12981
1.1299
1.13
1.13009
1.13018
1.13027
1.13036
1.13045
1.13053
1.13062
1.1307
1.13078
1.13086
1.13094
1.13102
1.13109
1.13116
1.13124
1.13131
1.13139
1.13146
1.13153
1.1316
1.13166
1.13173
1.13179
1.13186
1.13192
1.13198
1.13204
1.13209
1.13215
1.1322
1.13226
1.13231
1.13236
1.13241
1.13246
1.13251
1.13256
1.1326
1.13265
1.13269
1.13273
1.13276
1.1328
1.13284
1.13287
1.1329
1.13294
1.13297
1.13299
1.13302
1.13305
1.13307
1.13309
1.13312
1.13314
1.13316
1.13318
1.13319
1.13321
1.13322
1.13323
1.13325
1.13326
1.13326
1.13327
1.13328
1.13328
1.13329
1.13329
1.13329
1.10549
1.1052
1.10492
1.10463
1.10435
1.10408
1.10381
1.10355
1.10329
1.10304
1.10279
1.10255
1.10232
1.10209
1.10185
1.10162
1.1014
1.10119
1.10097
1.10077
1.10057
1.10037
1.10018
1.1
1.09982
1.09965
1.09948
1.0993
1.09914
1.09898
1.09883
1.09868
1.09853
1.09838
1.09824
1.09811
1.09798
1.09786
1.09774
1.09762
1.0975
1.09739
1.09728
1.09718
1.09708
1.09698
1.09689
1.0968
1.09672
1.09664
1.09656
1.09648
1.09641
1.09635
1.09628
1.09622
1.09617
1.09612
1.09607
1.09602
1.09598
1.09594
1.0959
1.09586
1.09584
1.09581
1.09578
1.09576
1.09574
1.09573
1.09572
1.09571
1.0957
1.0957
1.0957
1.0957
1.0957
1.09571
1.09572
1.09574
1.09575
1.09577
1.09579
1.09582
1.09585
1.09588
1.09591
1.09594
1.09598
1.09602
1.09606
1.09611
1.09616
1.0962
1.09626
1.09631
1.09636
1.09642
1.09648
1.09654
1.09661
1.09668
1.09675
1.09682
1.09689
1.09697
1.09705
1.09712
1.0972
1.09729
1.09737
1.09746
1.09755
1.09764
1.09773
1.09782
1.09792
1.09802
1.09813
1.09823
1.09833
1.09844
1.09855
1.09866
1.09877
1.09888
1.099
1.09911
1.09923
1.09935
1.09947
1.09959
1.09972
1.09984
1.09997
1.1001
1.10022
1.10035
1.10048
1.10061
1.10075
1.10088
1.10101
1.10115
1.1013
1.10144
1.10158
1.10172
1.10186
1.10201
1.10215
1.1023
1.10245
1.1026
1.10275
1.1029
1.10305
1.10321
1.10336
1.10352
1.10368
1.10384
1.104
1.10416
1.10432
1.10448
1.10464
1.1048
1.10497
1.10514
1.1053
1.10546
1.10562
1.10578
1.10595
1.10611
1.10628
1.10645
1.10661
1.10678
1.10696
1.10713
1.10729
1.10747
1.10765
1.10784
1.10803
1.10823
1.10845
1.10866
1.10884
1.109
1.10916
1.10933
1.10951
1.10968
1.10987
1.11006
1.11025
1.11044
1.11062
1.1108
1.11097
1.11115
1.11133
1.11151
1.11168
1.11186
1.11203
1.11221
1.11238
1.11256
1.11273
1.11291
1.11308
1.11325
1.11342
1.1136
1.11377
1.11394
1.11411
1.11428
1.11446
1.11463
1.1148
1.11497
1.11514
1.11531
1.11548
1.11566
1.11583
1.116
1.11617
1.11634
1.11652
1.11669
1.11686
1.11702
1.11719
1.11735
1.11752
1.11768
1.11784
1.118
1.11817
1.11837
1.1186
1.11884
1.11903
1.1192
1.11936
1.11952
1.11968
1.11984
1.12
1.12015
1.12031
1.12047
1.12064
1.1208
1.12096
1.12112
1.12127
1.12143
1.12158
1.12174
1.12189
1.12205
1.12222
1.12238
1.12254
1.12269
1.12284
1.12298
1.12312
1.12326
1.12341
1.12357
1.12372
1.12386
1.12401
1.12415
1.1243
1.12444
1.12458
1.12472
1.12486
1.12499
1.12512
1.12526
1.12538
1.12551
1.12563
1.12576
1.12591
1.12608
1.12623
1.12635
1.12648
1.12663
1.12679
1.12694
1.12707
1.12719
1.12732
1.12744
1.12755
1.12767
1.12778
1.12789
1.128
1.12811
1.12823
1.12834
1.12845
1.12856
1.12867
1.12877
1.12887
1.12897
1.12907
1.12918
1.12929
1.1294
1.12951
1.12961
1.12971
1.1298
1.1299
1.13
1.13009
1.13018
1.13027
1.13036
1.13045
1.13053
1.13062
1.1307
1.13078
1.13086
1.13094
1.13102
1.13109
1.13117
1.13124
1.13132
1.13139
1.13146
1.13153
1.1316
1.13166
1.13173
1.13179
1.13186
1.13192
1.13198
1.13204
1.13209
1.13215
1.1322
1.13226
1.13231
1.13236
1.13241
1.13246
1.13251
1.13256
1.1326
1.13265
1.13269
1.13273
1.13277
1.1328
1.13284
1.13287
1.1329
1.13294
1.13296
1.13299
1.13302
1.13305
1.13307
1.13309
1.13312
1.13314
1.13316
1.13318
1.13319
1.13321
1.13322
1.13323
1.13325
1.13326
1.13326
1.13327
1.13328
1.13328
1.13329
1.13329
1.13329
1.10549
1.1052
1.10492
1.10463
1.10435
1.10408
1.10381
1.10355
1.10329
1.10304
1.10279
1.10256
1.10233
1.10208
1.10184
1.10162
1.10141
1.10119
1.10098
1.10077
1.10056
1.10037
1.10018
1.1
1.09982
1.09965
1.09948
1.09931
1.09914
1.09898
1.09882
1.09867
1.09853
1.09838
1.09824
1.09811
1.09798
1.09786
1.09773
1.09761
1.0975
1.09739
1.09728
1.09718
1.09708
1.09698
1.09689
1.09681
1.09672
1.09664
1.09656
1.09648
1.09641
1.09635
1.09628
1.09622
1.09617
1.09611
1.09606
1.09602
1.09598
1.09594
1.0959
1.09586
1.09584
1.09581
1.09578
1.09576
1.09574
1.09573
1.09572
1.09571
1.0957
1.0957
1.0957
1.0957
1.0957
1.09571
1.09572
1.09574
1.09575
1.09577
1.09579
1.09582
1.09585
1.09588
1.09591
1.09594
1.09598
1.09602
1.09606
1.09611
1.09615
1.0962
1.09626
1.09631
1.09636
1.09642
1.09648
1.09654
1.09661
1.09668
1.09675
1.09682
1.09689
1.09697
1.09704
1.09712
1.0972
1.09729
1.09737
1.09746
1.09755
1.09764
1.09773
1.09783
1.09792
1.09802
1.09812
1.09823
1.09833
1.09844
1.09855
1.09866
1.09877
1.09888
1.099
1.09911
1.09923
1.09935
1.09947
1.09959
1.09972
1.09984
1.09997
1.1001
1.10023
1.10035
1.10048
1.10061
1.10075
1.10088
1.10102
1.10116
1.1013
1.10144
1.10158
1.10172
1.10186
1.10201
1.10215
1.1023
1.10245
1.1026
1.10275
1.1029
1.10306
1.10321
1.10336
1.10351
1.10368
1.10384
1.10401
1.10417
1.10432
1.10448
1.10464
1.10481
1.10498
1.10514
1.1053
1.10546
1.10562
1.10578
1.10595
1.10611
1.10628
1.10644
1.10661
1.10678
1.10695
1.10712
1.10729
1.10746
1.10765
1.10785
1.10808
1.10829
1.10848
1.10866
1.10883
1.10899
1.10916
1.10934
1.10951
1.10969
1.10987
1.11006
1.11024
1.11043
1.11061
1.11079
1.11097
1.11115
1.11133
1.1115
1.11168
1.11185
1.11203
1.1122
1.11238
1.11255
1.11273
1.11291
1.11308
1.11325
1.11342
1.1136
1.11377
1.11394
1.11411
1.11428
1.11446
1.11463
1.1148
1.11497
1.11514
1.11531
1.11548
1.11566
1.11583
1.116
1.11617
1.11634
1.11652
1.11669
1.11686
1.11702
1.11719
1.11735
1.11752
1.11768
1.11784
1.11801
1.1182
1.11842
1.11865
1.11885
1.11902
1.11919
1.11935
1.11951
1.11967
1.11983
1.11999
1.12015
1.12031
1.12047
1.12063
1.1208
1.12095
1.12111
1.12127
1.12142
1.12158
1.12174
1.12189
1.12205
1.12223
1.12239
1.12254
1.12269
1.12284
1.12298
1.12312
1.12327
1.12342
1.12357
1.12372
1.12386
1.12401
1.12415
1.12429
1.12444
1.12458
1.12471
1.12485
1.12499
1.12512
1.12525
1.12538
1.1255
1.12563
1.12577
1.12593
1.12611
1.12625
1.12637
1.1265
1.12664
1.12679
1.12693
1.12706
1.12719
1.12731
1.12743
1.12755
1.12766
1.12777
1.12789
1.128
1.12811
1.12823
1.12834
1.12845
1.12856
1.12867
1.12877
1.12887
1.12897
1.12908
1.12919
1.1293
1.1294
1.1295
1.1296
1.1297
1.1298
1.1299
1.12999
1.13009
1.13018
1.13027
1.13036
1.13045
1.13054
1.13062
1.1307
1.13078
1.13086
1.13094
1.13102
1.13109
1.13117
1.13124
1.13132
1.13139
1.13146
1.13153
1.1316
1.13166
1.13173
1.13179
1.13185
1.13192
1.13198
1.13203
1.13209
1.13215
1.1322
1.13226
1.13231
1.13236
1.13241
1.13246
1.13251
1.13256
1.13261
1.13265
1.13269
1.13273
1.13277
1.1328
1.13284
1.13287
1.1329
1.13293
1.13296
1.13299
1.13302
1.13305
1.13307
1.1331
1.13312
1.13314
1.13316
1.13318
1.13319
1.13321
1.13322
1.13323
1.13325
1.13326
1.13326
1.13327
1.13328
1.13328
1.13329
1.13329
1.13329
1.10549
1.10521
1.10492
1.10463
1.10435
1.10407
1.1038
1.10354
1.10329
1.10304
1.1028
1.10256
1.10232
1.10208
1.10185
1.10162
1.1014
1.10119
1.10098
1.10077
1.10057
1.10037
1.10018
1.1
1.09982
1.09964
1.09948
1.09931
1.09914
1.09898
1.09882
1.09867
1.09853
1.09839
1.09824
1.09811
1.09798
1.09786
1.09773
1.09761
1.0975
1.09739
1.09728
1.09718
1.09708
1.09698
1.09689
1.09681
1.09672
1.09664
1.09656
1.09648
1.09641
1.09635
1.09628
1.09622
1.09617
1.09611
1.09607
1.09602
1.09598
1.09594
1.0959
1.09586
1.09584
1.09581
1.09578
1.09576
1.09574
1.09573
1.09572
1.09571
1.0957
1.0957
1.0957
1.0957
1.0957
1.09571
1.09572
1.09574
1.09575
1.09577
1.09579
1.09582
1.09585
1.09588
1.09591
1.09594
1.09598
1.09602
1.09606
1.09611
1.09615
1.0962
1.09626
1.09631
1.09636
1.09642
1.09648
1.09654
1.09661
1.09668
1.09675
1.09682
1.09689
1.09697
1.09704
1.09712
1.0972
1.09729
1.09737
1.09746
1.09755
1.09764
1.09773
1.09783
1.09792
1.09802
1.09812
1.09823
1.09833
1.09844
1.09855
1.09866
1.09877
1.09888
1.099
1.09911
1.09923
1.09935
1.09947
1.09959
1.09972
1.09984
1.09997
1.1001
1.10023
1.10036
1.10048
1.10061
1.10074
1.10088
1.10101
1.10116
1.1013
1.10144
1.10158
1.10172
1.10186
1.10201
1.10215
1.1023
1.10245
1.1026
1.10275
1.1029
1.10305
1.1032
1.10336
1.10352
1.10368
1.10385
1.10401
1.10417
1.10433
1.10448
1.10465
1.10481
1.10498
1.10514
1.1053
1.10545
1.10561
1.10578
1.10595
1.10611
1.10627
1.10644
1.1066
1.10677
1.10694
1.10711
1.10728
1.10746
1.10766
1.10791
1.10813
1.10832
1.10849
1.10866
1.10883
1.10899
1.10917
1.10934
1.10952
1.10969
1.10987
1.11005
1.11024
1.11042
1.11061
1.11079
1.11097
1.11115
1.11133
1.1115
1.11168
1.11185
1.11202
1.1122
1.11237
1.11255
1.11273
1.1129
1.11308
1.11325
1.11342
1.11359
1.11377
1.11394
1.11412
1.11429
1.11446
1.11463
1.1148
1.11497
1.11514
1.11531
1.11548
1.11566
1.11583
1.116
1.11617
1.11634
1.11652
1.1167
1.11686
1.11702
1.11719
1.11736
1.11753
1.11769
1.11786
1.11804
1.11824
1.11845
1.11865
1.11883
1.11901
1.11918
1.11934
1.1195
1.11966
1.11982
1.11999
1.12015
1.12031
1.12047
1.12063
1.12079
1.12095
1.1211
1.12126
1.12142
1.12158
1.12173
1.1219
1.12207
1.12224
1.1224
1.12255
1.12269
1.12283
1.12298
1.12312
1.12327
1.12342
1.12357
1.12372
1.12386
1.12401
1.12415
1.12429
1.12443
1.12457
1.12471
1.12485
1.12499
1.12512
1.12525
1.12537
1.1255
1.12564
1.12579
1.12597
1.12612
1.12625
1.12638
1.12651
1.12665
1.12679
1.12692
1.12706
1.12718
1.12731
1.12743
1.12754
1.12766
1.12777
1.12788
1.128
1.12811
1.12823
1.12834
1.12845
1.12856
1.12867
1.12877
1.12887
1.12898
1.12908
1.12919
1.1293
1.1294
1.1295
1.1296
1.1297
1.1298
1.1299
1.12999
1.13009
1.13018
1.13027
1.13036
1.13045
1.13054
1.13062
1.1307
1.13078
1.13086
1.13094
1.13102
1.13109
1.13117
1.13124
1.13132
1.13139
1.13146
1.13153
1.13159
1.13166
1.13173
1.13179
1.13185
1.13192
1.13198
1.13203
1.13209
1.13215
1.1322
1.13226
1.13231
1.13236
1.13241
1.13246
1.13251
1.13256
1.13261
1.13265
1.13269
1.13273
1.13277
1.1328
1.13284
1.13287
1.1329
1.13293
1.13296
1.13299
1.13302
1.13305
1.13307
1.1331
1.13312
1.13314
1.13316
1.13318
1.13319
1.13321
1.13322
1.13324
1.13325
1.13326
1.13326
1.13327
1.13328
1.13328
1.13329
1.13329
1.13329
1.10549
1.10521
1.10492
1.10464
1.10436
1.10408
1.1038
1.10354
1.10329
1.10304
1.1028
1.10256
1.10232
1.10207
1.10184
1.10162
1.1014
1.10119
1.10098
1.10078
1.10057
1.10037
1.10018
1.1
1.09982
1.09964
1.09947
1.09931
1.09914
1.09898
1.09882
1.09867
1.09853
1.09839
1.09825
1.09811
1.09798
1.09785
1.09773
1.09761
1.0975
1.09739
1.09728
1.09718
1.09708
1.09698
1.09689
1.0968
1.09672
1.09664
1.09656
1.09648
1.09641
1.09635
1.09628
1.09622
1.09617
1.09611
1.09607
1.09602
1.09598
1.09594
1.0959
1.09586
1.09583
1.09581
1.09578
1.09576
1.09574
1.09573
1.09572
1.09571
1.0957
1.0957
1.0957
1.0957
1.0957
1.09571
1.09572
1.09574
1.09575
1.09577
1.09579
1.09582
1.09585
1.09588
1.09591
1.09594
1.09598
1.09602
1.09606
1.09611
1.09615
1.0962
1.09625
1.09631
1.09636
1.09642
1.09648
1.09655
1.09661
1.09668
1.09675
1.09682
1.09689
1.09697
1.09704
1.09712
1.0972
1.09729
1.09737
1.09746
1.09755
1.09764
1.09773
1.09783
1.09792
1.09802
1.09812
1.09823
1.09833
1.09844
1.09855
1.09866
1.09877
1.09888
1.099
1.09911
1.09923
1.09935
1.09947
1.09959
1.09971
1.09984
1.09997
1.1001
1.10023
1.10036
1.10049
1.10061
1.10074
1.10088
1.10101
1.10115
1.1013
1.10144
1.10158
1.10172
1.10186
1.102
1.10215
1.1023
1.10245
1.1026
1.10275
1.1029
1.10305
1.1032
1.10336
1.10352
1.10368
1.10385
1.10401
1.10417
1.10433
1.10449
1.10465
1.10481
1.10498
1.10514
1.1053
1.10545
1.10561
1.10578
1.10594
1.10611
1.10627
1.10643
1.1066
1.10676
1.10693
1.10709
1.10727
1.10745
1.1077
1.10798
1.10818
1.10834
1.1085
1.10866
1.10883
1.10899
1.10917
1.10934
1.10952
1.10969
1.10987
1.11005
1.11023
1.11042
1.1106
1.11079
1.11097
1.11114
1.11132
1.11149
1.11167
1.11185
1.11202
1.1122
1.11237
1.11255
1.11272
1.1129
1.11307
1.11325
1.11342
1.11359
1.11377
1.11394
1.11411
1.11428
1.11445
1.11463
1.1148
1.11497
1.11514
1.11531
1.11548
1.11566
1.11583
1.116
1.11617
1.11635
1.11652
1.1167
1.11686
1.11703
1.1172
1.11738
1.11755
1.11771
1.11788
1.11807
1.11826
1.11846
1.11864
1.11883
1.119
1.11917
1.11933
1.1195
1.11966
1.11982
1.11998
1.12014
1.1203
1.12047
1.12063
1.12079
1.12095
1.1211
1.12126
1.12142
1.12158
1.12174
1.12191
1.12208
1.12224
1.1224
1.12254
1.12269
1.12283
1.12298
1.12312
1.12327
1.12342
1.12357
1.12372
1.12386
1.12401
1.12415
1.12429
1.12443
1.12457
1.12471
1.12485
1.12498
1.12512
1.12525
1.12537
1.12551
1.12565
1.12582
1.12598
1.12612
1.12625
1.12638
1.12652
1.12665
1.12679
1.12692
1.12705
1.12718
1.1273
1.12742
1.12754
1.12765
1.12777
1.12788
1.128
1.12811
1.12823
1.12834
1.12845
1.12856
1.12866
1.12877
1.12887
1.12898
1.12909
1.12919
1.1293
1.1294
1.1295
1.1296
1.1297
1.1298
1.12989
1.12999
1.13009
1.13018
1.13027
1.13036
1.13045
1.13054
1.13062
1.1307
1.13078
1.13086
1.13094
1.13102
1.13109
1.13117
1.13124
1.13132
1.13139
1.13146
1.13153
1.13159
1.13166
1.13173
1.13179
1.13185
1.13192
1.13198
1.13204
1.13209
1.13215
1.1322
1.13226
1.13231
1.13236
1.13241
1.13246
1.13251
1.13256
1.13261
1.13265
1.13269
1.13273
1.13277
1.1328
1.13284
1.13287
1.1329
1.13293
1.13296
1.13299
1.13302
1.13305
1.13307
1.13309
1.13312
1.13314
1.13316
1.13318
1.13319
1.13321
1.13322
1.13324
1.13325
1.13326
1.13327
1.13327
1.13328
1.13328
1.13329
1.13329
1.13329
1.10549
1.1052
1.10492
1.10464
1.10436
1.10408
1.10381
1.10354
1.10328
1.10303
1.10279
1.10255
1.10231
1.10207
1.10184
1.10162
1.10141
1.10119
1.10098
1.10078
1.10057
1.10038
1.10019
1.1
1.09982
1.09965
1.09947
1.0993
1.09914
1.09898
1.09882
1.09867
1.09853
1.09838
1.09824
1.09811
1.09798
1.09786
1.09773
1.09761
1.0975
1.09739
1.09728
1.09718
1.09708
1.09698
1.09689
1.0968
1.09672
1.09664
1.09656
1.09648
1.09641
1.09635
1.09628
1.09622
1.09617
1.09612
1.09607
1.09602
1.09598
1.09594
1.0959
1.09586
1.09583
1.09581
1.09578
1.09576
1.09574
1.09573
1.09572
1.09571
1.0957
1.0957
1.0957
1.0957
1.0957
1.09571
1.09572
1.09574
1.09575
1.09577
1.09579
1.09582
1.09585
1.09588
1.09591
1.09594
1.09598
1.09602
1.09606
1.09611
1.09615
1.0962
1.09625
1.09631
1.09636
1.09642
1.09648
1.09655
1.09661
1.09668
1.09675
1.09682
1.09689
1.09697
1.09704
1.09712
1.0972
1.09729
1.09737
1.09746
1.09755
1.09764
1.09773
1.09782
1.09792
1.09802
1.09812
1.09823
1.09833
1.09844
1.09855
1.09866
1.09877
1.09888
1.099
1.09911
1.09923
1.09935
1.09947
1.09959
1.09971
1.09984
1.09997
1.1001
1.10023
1.10036
1.10048
1.10061
1.10074
1.10088
1.10102
1.10115
1.1013
1.10144
1.10158
1.10172
1.10186
1.10201
1.10215
1.1023
1.10245
1.1026
1.10276
1.1029
1.10305
1.1032
1.10336
1.10352
1.10369
1.10385
1.10401
1.10417
1.10433
1.10449
1.10465
1.10481
1.10497
1.10514
1.10529
1.10545
1.10561
1.10578
1.10594
1.1061
1.10626
1.10643
1.10659
1.10675
1.10692
1.10709
1.10727
1.10749
1.10779
1.10803
1.10819
1.10834
1.1085
1.10866
1.10883
1.109
1.10917
1.10934
1.10951
1.10969
1.10987
1.11005
1.11023
1.11042
1.1106
1.11078
1.11096
1.11114
1.11131
1.11149
1.11167
1.11184
1.11202
1.1122
1.11237
1.11255
1.11272
1.11289
1.11307
1.11324
1.11342
1.11359
1.11376
1.11394
1.11411
1.11428
1.11445
1.11462
1.1148
1.11497
1.11514
1.11531
1.11548
1.11566
1.11583
1.116
1.11617
1.11635
1.11653
1.1167
1.11687
1.11704
1.11722
1.11739
1.11756
1.11773
1.1179
1.11808
1.11827
1.11846
1.11864
1.11882
1.11899
1.11916
1.11933
1.11949
1.11965
1.11981
1.11997
1.12014
1.1203
1.12046
1.12062
1.12078
1.12094
1.1211
1.12126
1.12142
1.12158
1.12174
1.12191
1.12208
1.12224
1.12239
1.12254
1.12269
1.12283
1.12298
1.12312
1.12327
1.12342
1.12357
1.12372
1.12386
1.124
1.12415
1.12429
1.12443
1.12457
1.12471
1.12485
1.12498
1.12512
1.12525
1.12538
1.12552
1.12567
1.12584
1.12599
1.12613
1.12626
1.12639
1.12652
1.12665
1.12679
1.12692
1.12705
1.12718
1.1273
1.12742
1.12753
1.12765
1.12777
1.12788
1.128
1.12811
1.12822
1.12834
1.12845
1.12856
1.12866
1.12877
1.12887
1.12898
1.12909
1.12919
1.1293
1.1294
1.1295
1.1296
1.1297
1.1298
1.12989
1.12999
1.13008
1.13018
1.13027
1.13036
1.13045
1.13054
1.13062
1.1307
1.13078
1.13086
1.13094
1.13102
1.13109
1.13117
1.13124
1.13132
1.13139
1.13146
1.13153
1.13159
1.13166
1.13173
1.13179
1.13185
1.13191
1.13198
1.13204
1.13209
1.13215
1.1322
1.13226
1.13231
1.13236
1.13241
1.13246
1.13251
1.13256
1.13261
1.13265
1.13269
1.13273
1.13277
1.1328
1.13284
1.13287
1.1329
1.13293
1.13296
1.13299
1.13302
1.13305
1.13307
1.13309
1.13312
1.13314
1.13316
1.13318
1.13319
1.13321
1.13322
1.13324
1.13325
1.13326
1.13327
1.13327
1.13328
1.13328
1.13329
1.13329
1.13329
1.10549
1.1052
1.10492
1.10464
1.10436
1.10408
1.10381
1.10354
1.10329
1.10304
1.10279
1.10255
1.10231
1.10207
1.10184
1.10162
1.1014
1.10118
1.10098
1.10078
1.10058
1.10038
1.10019
1.1
1.09982
1.09965
1.09947
1.0993
1.09914
1.09898
1.09882
1.09867
1.09853
1.09838
1.09824
1.09811
1.09798
1.09786
1.09773
1.09761
1.0975
1.09739
1.09728
1.09718
1.09708
1.09698
1.09689
1.0968
1.09672
1.09663
1.09656
1.09648
1.09641
1.09635
1.09628
1.09623
1.09617
1.09612
1.09607
1.09602
1.09598
1.09594
1.0959
1.09586
1.09583
1.09581
1.09578
1.09576
1.09574
1.09573
1.09572
1.09571
1.0957
1.0957
1.0957
1.0957
1.0957
1.09571
1.09572
1.09574
1.09575
1.09577
1.09579
1.09582
1.09585
1.09588
1.09591
1.09594
1.09598
1.09602
1.09606
1.09611
1.09615
1.0962
1.09625
1.09631
1.09636
1.09642
1.09648
1.09655
1.09661
1.09668
1.09675
1.09682
1.09689
1.09697
1.09704
1.09712
1.0972
1.09728
1.09737
1.09746
1.09755
1.09764
1.09773
1.09782
1.09792
1.09802
1.09812
1.09823
1.09833
1.09844
1.09855
1.09866
1.09877
1.09888
1.099
1.09911
1.09923
1.09935
1.09947
1.09959
1.09971
1.09984
1.09997
1.1001
1.10023
1.10036
1.10048
1.10061
1.10074
1.10088
1.10102
1.10115
1.10129
1.10143
1.10157
1.10172
1.10186
1.102
1.10215
1.1023
1.10245
1.1026
1.10275
1.10291
1.10306
1.10321
1.10336
1.10352
1.10368
1.10385
1.10401
1.10417
1.10433
1.10449
1.10465
1.10481
1.10497
1.10513
1.10529
1.10545
1.10562
1.10578
1.10594
1.1061
1.10626
1.10643
1.10659
1.10675
1.10692
1.10711
1.10733
1.10759
1.10784
1.10802
1.10818
1.10833
1.10849
1.10866
1.10883
1.109
1.10917
1.10934
1.10951
1.10969
1.10987
1.11005
1.11023
1.11041
1.1106
1.11078
1.11096
1.11113
1.11131
1.11148
1.11166
1.11184
1.11202
1.11219
1.11237
1.11254
1.11272
1.11289
1.11307
1.11324
1.11341
1.11359
1.11376
1.11394
1.11411
1.11428
1.11445
1.11463
1.1148
1.11497
1.11514
1.11531
1.11548
1.11566
1.11583
1.116
1.11618
1.11636
1.11654
1.11671
1.11688
1.11705
1.11723
1.1174
1.11757
1.11774
1.11791
1.11809
1.11827
1.11845
1.11864
1.11881
1.11899
1.11916
1.11932
1.11948
1.11965
1.11981
1.11997
1.12013
1.1203
1.12046
1.12062
1.12078
1.12094
1.1211
1.12126
1.12142
1.12159
1.12175
1.12191
1.12208
1.12224
1.12239
1.12254
1.12269
1.12283
1.12298
1.12313
1.12328
1.12342
1.12357
1.12372
1.12386
1.124
1.12415
1.12429
1.12443
1.12457
1.12471
1.12485
1.12498
1.12512
1.12525
1.12539
1.12553
1.12569
1.12584
1.12599
1.12612
1.12626
1.12639
1.12652
1.12666
1.12679
1.12692
1.12705
1.12717
1.1273
1.12741
1.12753
1.12765
1.12776
1.12788
1.128
1.12811
1.12822
1.12833
1.12845
1.12856
1.12866
1.12877
1.12888
1.12898
1.12909
1.12919
1.1293
1.1294
1.1295
1.1296
1.1297
1.1298
1.12989
1.12999
1.13008
1.13018
1.13027
1.13036
1.13045
1.13054
1.13062
1.1307
1.13078
1.13086
1.13094
1.13102
1.13109
1.13117
1.13124
1.13131
1.13139
1.13146
1.13152
1.13159
1.13166
1.13173
1.13179
1.13185
1.13192
1.13198
1.13204
1.13209
1.13215
1.1322
1.13226
1.13231
1.13236
1.13241
1.13246
1.13251
1.13256
1.13261
1.13265
1.13269
1.13273
1.13277
1.1328
1.13284
1.13287
1.1329
1.13293
1.13296
1.13299
1.13302
1.13305
1.13307
1.1331
1.13312
1.13314
1.13316
1.13318
1.13319
1.13321
1.13322
1.13324
1.13325
1.13326
1.13327
1.13327
1.13328
1.13328
1.13329
1.13329
1.13329
1.10549
1.1052
1.10492
1.10464
1.10436
1.10408
1.10381
1.10355
1.10329
1.10304
1.10279
1.10255
1.10231
1.10207
1.10184
1.10162
1.1014
1.10119
1.10098
1.10078
1.10058
1.10038
1.10018
1.1
1.09982
1.09964
1.09947
1.0993
1.09914
1.09898
1.09882
1.09867
1.09852
1.09838
1.09825
1.09811
1.09798
1.09785
1.09774
1.09761
1.0975
1.09739
1.09728
1.09718
1.09708
1.09698
1.09689
1.0968
1.09672
1.09663
1.09656
1.09648
1.09641
1.09635
1.09628
1.09622
1.09617
1.09612
1.09607
1.09602
1.09598
1.09594
1.0959
1.09586
1.09583
1.09581
1.09578
1.09576
1.09574
1.09573
1.09572
1.09571
1.0957
1.0957
1.0957
1.0957
1.0957
1.09571
1.09572
1.09574
1.09575
1.09577
1.09579
1.09582
1.09585
1.09588
1.09591
1.09594
1.09598
1.09602
1.09606
1.09611
1.09615
1.0962
1.09625
1.09631
1.09636
1.09642
1.09648
1.09655
1.09661
1.09668
1.09675
1.09682
1.09689
1.09697
1.09704
1.09712
1.0972
1.09728
1.09737
1.09745
1.09754
1.09764
1.09773
1.09783
1.09792
1.09802
1.09812
1.09823
1.09833
1.09844
1.09855
1.09866
1.09877