/*--------------------------------*- C++ -*----------------------------------*\
  =========                 |
  \\      /  F ield         | OpenFOAM: The Open Source CFD Toolbox
   \\    /   O peration     | Website:  https://openfoam.org
    \\  /    A nd           | Version:  7
     \\/     M anipulation  |
\*---------------------------------------------------------------------------*/
FoamFile
{
    version     2.0;
    format      ascii;
    class       volScalarField;
    location    "4000";
    object      T;
}
// * * * * * * * * * * * * * * * * * * * * * * * * * * * * * * * * * * * * * //

dimensions      [0 0 0 1 0 0 0];

internalField   nonuniform List<scalar> 
160000
(
320.046
320.136
320.225
320.312
320.401
320.487
320.572
320.653
320.731
320.811
320.892
320.968
321.043
321.12
321.193
321.262
321.33
321.397
321.464
321.531
321.595
321.656
321.716
321.775
321.832
321.887
321.944
321.999
322.052
322.103
322.15
322.198
322.246
322.292
322.335
322.378
322.42
322.462
322.501
322.538
322.575
322.61
322.644
322.677
322.709
322.741
322.771
322.799
322.825
322.851
322.876
322.9
322.924
322.945
322.966
322.985
323.004
323.021
323.036
323.051
323.065
323.078
323.09
323.101
323.11
323.119
323.127
323.134
323.14
323.145
323.149
323.152
323.154
323.155
323.155
323.155
323.153
323.151
323.147
323.143
323.138
323.131
323.124
323.116
323.108
323.098
323.088
323.077
323.065
323.052
323.039
323.025
323.009
322.993
322.976
322.959
322.942
322.923
322.904
322.884
322.863
322.842
322.82
322.797
322.773
322.749
322.725
322.699
322.673
322.645
322.618
322.59
322.562
322.533
322.504
322.474
322.444
322.412
322.379
322.345
322.311
322.278
322.244
322.209
322.174
322.137
322.099
322.062
322.026
321.988
321.95
321.913
321.875
321.833
321.791
321.75
321.71
321.669
321.628
321.589
321.547
321.503
321.46
321.417
321.371
321.325
321.28
321.235
321.19
321.146
321.101
321.055
321.009
320.962
320.915
320.867
320.819
320.769
320.72
320.67
320.621
320.571
320.521
320.471
320.422
320.373
320.321
320.27
320.22
320.169
320.117
320.064
320.013
319.963
319.91
319.86
319.809
319.757
319.703
319.648
319.596
319.543
319.489
319.436
319.383
319.327
319.271
319.213
319.156
319.095
319.033
318.974
318.92
318.867
318.813
318.761
318.71
318.649
318.579
318.516
318.461
318.408
318.357
318.307
318.256
318.202
318.144
318.086
318.031
317.979
317.926
317.873
317.821
317.769
317.717
317.665
317.614
317.562
317.509
317.453
317.399
317.346
317.296
317.248
317.198
317.146
317.093
317.04
316.988
316.935
316.885
316.835
316.783
316.73
316.678
316.626
316.575
316.524
316.474
316.425
316.375
316.327
316.279
316.229
316.179
316.127
316.071
316.011
315.948
315.882
315.818
315.766
315.72
315.675
315.63
315.584
315.537
315.493
315.45
315.401
315.345
315.292
315.246
315.204
315.161
315.115
315.068
315.024
314.98
314.93
314.88
314.834
314.79
314.746
314.704
314.664
314.623
314.577
314.53
314.487
314.446
314.405
314.363
314.319
314.276
314.233
314.192
314.153
314.115
314.076
314.037
314
313.964
313.925
313.886
313.847
313.807
313.77
313.732
313.692
313.647
313.595
313.545
313.505
313.469
313.435
313.402
313.369
313.336
313.304
313.271
313.24
313.21
313.179
313.146
313.111
313.078
313.046
313.018
312.99
312.963
312.935
312.907
312.877
312.844
312.81
312.778
312.749
312.721
312.693
312.667
312.641
312.615
312.589
312.564
312.54
312.516
312.493
312.469
312.444
312.421
312.4
312.379
312.357
312.336
312.314
312.293
312.272
312.251
312.231
312.212
312.194
312.176
312.158
312.14
312.123
312.106
312.089
312.073
312.057
312.042
312.028
312.013
311.999
311.985
311.97
311.957
311.943
311.93
311.918
311.907
311.896
311.886
311.876
311.866
311.856
311.847
311.838
311.83
311.823
311.815
311.808
311.802
311.795
311.789
311.784
311.778
311.773
311.769
311.765
311.761
311.758
311.755
311.753
311.751
311.749
311.748
311.747
311.746
311.746
320.048
320.138
320.226
320.314
320.401
320.486
320.57
320.653
320.733
320.812
320.892
320.968
321.043
321.117
321.192
321.262
321.329
321.397
321.466
321.533
321.596
321.656
321.717
321.776
321.832
321.886
321.943
321.999
322.052
322.102
322.151
322.199
322.246
322.292
322.335
322.378
322.421
322.461
322.499
322.538
322.575
322.61
322.644
322.677
322.709
322.741
322.771
322.798
322.825
322.851
322.876
322.9
322.923
322.945
322.966
322.985
323.003
323.02
323.036
323.051
323.065
323.078
323.09
323.101
323.11
323.119
323.127
323.134
323.14
323.145
323.149
323.152
323.154
323.155
323.155
323.155
323.153
323.151
323.147
323.143
323.138
323.131
323.124
323.117
323.108
323.098
323.088
323.077
323.065
323.052
323.039
323.024
323.009
322.993
322.976
322.959
322.942
322.923
322.904
322.884
322.863
322.842
322.82
322.797
322.773
322.749
322.725
322.699
322.672
322.645
322.618
322.59
322.562
322.533
322.504
322.474
322.444
322.412
322.379
322.345
322.311
322.278
322.244
322.209
322.173
322.137
322.1
322.063
322.026
321.988
321.951
321.914
321.875
321.833
321.791
321.751
321.711
321.669
321.629
321.589
321.547
321.503
321.46
321.416
321.37
321.325
321.281
321.235
321.191
321.147
321.101
321.054
321.009
320.963
320.915
320.866
320.818
320.769
320.72
320.671
320.622
320.571
320.521
320.471
320.422
320.373
320.321
320.27
320.22
320.168
320.116
320.064
320.014
319.963
319.911
319.86
319.808
319.756
319.703
319.649
319.597
319.544
319.49
319.438
319.384
319.328
319.271
319.214
319.156
319.093
319.027
318.968
318.917
318.867
318.816
318.764
318.708
318.641
318.575
318.517
318.462
318.41
318.359
318.308
318.256
318.2
318.142
318.086
318.032
317.98
317.927
317.874
317.822
317.77
317.717
317.665
317.614
317.561
317.507
317.453
317.4
317.349
317.299
317.249
317.198
317.145
317.092
317.04
316.988
316.936
316.885
316.835
316.782
316.729
316.677
316.626
316.575
316.524
316.474
316.425
316.376
316.328
316.279
316.23
316.18
316.128
316.069
316.003
315.936
315.876
315.82
315.77
315.723
315.676
315.63
315.584
315.539
315.494
315.448
315.397
315.344
315.295
315.25
315.206
315.161
315.114
315.068
315.025
314.979
314.928
314.88
314.835
314.79
314.746
314.705
314.664
314.622
314.576
314.53
314.488
314.447
314.405
314.362
314.318
314.275
314.233
314.193
314.154
314.115
314.076
314.038
314.002
313.964
313.925
313.886
313.847
313.807
313.769
313.732
313.69
313.638
313.587
313.544
313.506
313.471
313.436
313.403
313.37
313.337
313.305
313.273
313.241
313.21
313.178
313.144
313.11
313.078
313.048
313.019
312.991
312.963
312.936
312.907
312.875
312.84
312.808
312.778
312.75
312.721
312.694
312.667
312.641
312.615
312.589
312.564
312.54
312.516
312.492
312.468
312.444
312.422
312.4
312.379
312.357
312.336
312.314
312.293
312.272
312.251
312.231
312.212
312.194
312.176
312.158
312.14
312.123
312.106
312.089
312.073
312.058
312.043
312.028
312.013
311.999
311.984
311.97
311.956
311.943
311.93
311.918
311.907
311.896
311.886
311.876
311.866
311.856
311.847
311.839
311.83
311.823
311.815
311.808
311.802
311.795
311.789
311.784
311.778
311.773
311.769
311.765
311.761
311.758
311.755
311.753
311.751
311.749
311.748
311.747
311.746
311.746
320.047
320.136
320.226
320.314
320.401
320.487
320.57
320.653
320.733
320.812
320.892
320.969
321.042
321.116
321.19
321.262
321.33
321.4
321.466
321.532
321.596
321.658
321.718
321.776
321.832
321.887
321.942
321.997
322.051
322.102
322.15
322.198
322.246
322.292
322.336
322.378
322.421
322.461
322.499
322.537
322.574
322.61
322.644
322.677
322.71
322.741
322.77
322.798
322.825
322.851
322.877
322.901
322.923
322.945
322.965
322.985
323.003
323.02
323.036
323.051
323.065
323.078
323.09
323.101
323.11
323.119
323.127
323.134
323.14
323.145
323.149
323.152
323.154
323.155
323.155
323.155
323.153
323.151
323.147
323.143
323.138
323.131
323.124
323.117
323.108
323.098
323.088
323.077
323.065
323.052
323.038
323.024
323.009
322.993
322.976
322.96
322.942
322.923
322.904
322.884
322.863
322.842
322.82
322.797
322.773
322.749
322.724
322.699
322.673
322.646
322.618
322.59
322.562
322.534
322.504
322.474
322.444
322.412
322.378
322.345
322.312
322.278
322.244
322.209
322.173
322.137
322.1
322.063
322.026
321.989
321.951
321.913
321.873
321.832
321.791
321.751
321.711
321.67
321.629
321.589
321.547
321.503
321.46
321.416
321.371
321.325
321.281
321.236
321.191
321.147
321.101
321.055
321.01
320.962
320.913
320.866
320.818
320.769
320.72
320.671
320.622
320.572
320.521
320.47
320.421
320.372
320.322
320.271
320.219
320.167
320.115
320.063
320.013
319.962
319.912
319.862
319.809
319.756
319.703
319.651
319.598
319.545
319.493
319.439
319.385
319.329
319.271
319.213
319.152
319.082
319.018
318.966
318.917
318.868
318.816
318.761
318.702
318.639
318.577
318.52
318.466
318.412
318.36
318.307
318.253
318.198
318.143
318.088
318.034
317.981
317.928
317.875
317.823
317.77
317.717
317.665
317.613
317.56
317.507
317.454
317.402
317.351
317.3
317.248
317.197
317.144
317.092
317.04
316.988
316.936
316.885
316.834
316.781
316.729
316.678
316.626
316.574
316.524
316.475
316.426
316.376
316.328
316.279
316.231
316.181
316.127
316.065
315.991
315.927
315.872
315.822
315.774
315.726
315.678
315.632
315.585
315.54
315.493
315.445
315.394
315.345
315.298
315.253
315.207
315.161
315.115
315.069
315.024
314.976
314.927
314.88
314.835
314.79
314.747
314.706
314.664
314.621
314.575
314.53
314.488
314.446
314.404
314.36
314.317
314.275
314.234
314.194
314.155
314.116
314.077
314.039
314.002
313.965
313.928
313.888
313.844
313.802
313.766
313.727
313.679
313.628
313.584
313.545
313.508
313.473
313.438
313.404
313.371
313.338
313.306
313.274
313.242
313.209
313.177
313.143
313.111
313.08
313.05
313.021
312.992
312.964
312.935
312.903
312.87
312.838
312.808
312.779
312.751
312.722
312.695
312.668
312.641
312.615
312.589
312.564
312.54
312.516
312.492
312.468
312.445
312.422
312.4
312.379
312.357
312.336
312.314
312.293
312.271
312.251
312.232
312.213
312.195
312.176
312.158
312.14
312.123
312.106
312.09
312.073
312.058
312.043
312.028
312.013
311.999
311.984
311.969
311.956
311.943
311.93
311.918
311.907
311.896
311.886
311.876
311.866
311.856
311.847
311.839
311.831
311.823
311.815
311.808
311.802
311.795
311.789
311.783
311.778
311.773
311.769
311.765
311.761
311.758
311.755
311.753
311.751
311.749
311.748
311.747
311.746
311.746
320.046
320.137
320.226
320.315
320.402
320.488
320.571
320.654
320.735
320.815
320.893
320.967
321.041
321.115
321.189
321.261
321.33
321.399
321.467
321.533
321.596
321.658
321.718
321.775
321.833
321.889
321.942
321.997
322.051
322.101
322.15
322.198
322.245
322.291
322.336
322.379
322.421
322.46
322.498
322.537
322.575
322.611
322.645
322.678
322.71
322.741
322.77
322.798
322.825
322.851
322.877
322.901
322.924
322.945
322.966
322.985
323.003
323.02
323.036
323.051
323.065
323.078
323.09
323.101
323.11
323.119
323.127
323.134
323.14
323.145
323.149
323.152
323.154
323.155
323.155
323.155
323.153
323.151
323.147
323.143
323.138
323.131
323.124
323.117
323.108
323.098
323.088
323.077
323.065
323.052
323.038
323.024
323.009
322.993
322.977
322.96
322.942
322.924
322.905
322.884
322.863
322.842
322.82
322.797
322.773
322.748
322.724
322.699
322.673
322.646
322.619
322.591
322.562
322.534
322.504
322.474
322.444
322.412
322.378
322.345
322.312
322.278
322.244
322.209
322.174
322.137
322.1
322.063
322.026
321.989
321.951
321.912
321.872
321.832
321.791
321.751
321.711
321.67
321.629
321.588
321.546
321.503
321.461
321.416
321.371
321.326
321.28
321.236
321.192
321.147
321.101
321.055
321.009
320.962
320.914
320.866
320.818
320.768
320.72
320.672
320.622
320.571
320.52
320.469
320.421
320.372
320.322
320.27
320.217
320.165
320.114
320.064
320.015
319.964
319.913
319.861
319.809
319.757
319.705
319.653
319.599
319.547
319.495
319.441
319.385
319.327
319.267
319.205
319.136
319.071
319.017
318.967
318.918
318.865
318.811
318.757
318.7
318.64
318.581
318.524
318.468
318.414
318.36
318.307
318.252
318.198
318.144
318.09
318.036
317.983
317.93
317.877
317.824
317.77
317.717
317.665
317.613
317.56
317.508
317.455
317.404
317.352
317.3
317.248
317.196
317.144
317.092
317.04
316.988
316.936
316.885
316.832
316.78
316.729
316.677
316.625
316.574
316.524
316.475
316.425
316.376
316.328
316.28
316.231
316.179
316.121
316.051
315.98
315.923
315.873
315.824
315.776
315.728
315.681
315.634
315.587
315.54
315.493
315.444
315.395
315.347
315.301
315.255
315.208
315.162
315.115
315.07
315.023
314.974
314.926
314.879
314.834
314.79
314.747
314.706
314.664
314.62
314.574
314.53
314.487
314.445
314.403
314.36
314.318
314.276
314.236
314.195
314.156
314.117
314.078
314.041
314.004
313.967
313.929
313.886
313.837
313.793
313.756
313.718
313.674
313.629
313.586
313.547
313.51
313.475
313.44
313.406
313.372
313.34
313.307
313.275
313.242
313.209
313.176
313.143
313.111
313.081
313.051
313.022
312.993
312.963
312.932
312.9
312.868
312.838
312.808
312.78
312.751
312.723
312.696
312.668
312.642
312.615
312.59
312.564
312.54
312.515
312.491
312.468
312.445
312.422
312.4
312.379
312.357
312.335
312.314
312.292
312.272
312.252
312.232
312.213
312.195
312.176
312.158
312.14
312.123
312.106
312.09
312.074
312.058
312.043
312.028
312.013
311.998
311.984
311.969
311.956
311.942
311.93
311.918
311.907
311.896
311.886
311.875
311.866
311.856
311.847
311.839
311.831
311.823
311.815
311.808
311.802
311.795
311.789
311.783
311.778
311.773
311.769
311.765
311.761
311.758
311.755
311.753
311.751
311.749
311.748
311.747
311.746
311.746
320.046
320.136
320.226
320.316
320.403
320.489
320.572
320.654
320.736
320.815
320.892
320.966
321.039
321.117
321.191
321.261
321.33
321.398
321.465
321.533
321.597
321.659
321.718
321.776
321.833
321.888
321.942
321.997
322.05
322.101
322.151
322.199
322.244
322.291
322.337
322.379
322.42
322.46
322.499
322.538
322.575
322.611
322.645
322.678
322.709
322.74
322.769
322.797
322.825
322.852
322.877
322.901
322.924
322.945
322.965
322.985
323.003
323.02
323.036
323.051
323.065
323.078
323.09
323.101
323.11
323.119
323.127
323.134
323.14
323.145
323.149
323.152
323.154
323.155
323.156
323.155
323.153
323.151
323.147
323.143
323.138
323.131
323.125
323.117
323.108
323.098
323.088
323.077
323.065
323.052
323.038
323.024
323.009
322.993
322.977
322.96
322.942
322.923
322.904
322.884
322.863
322.841
322.819
322.796
322.772
322.748
322.724
322.699
322.673
322.646
322.619
322.592
322.563
322.534
322.503
322.474
322.444
322.412
322.379
322.345
322.312
322.278
322.244
322.209
322.173
322.136
322.1
322.064
322.026
321.989
321.951
321.912
321.872
321.832
321.791
321.75
321.71
321.67
321.629
321.588
321.546
321.503
321.46
321.416
321.372
321.326
321.281
321.237
321.192
321.147
321.101
321.055
321.009
320.961
320.913
320.865
320.817
320.769
320.722
320.673
320.622
320.57
320.519
320.468
320.42
320.372
320.321
320.268
320.216
320.164
320.115
320.065
320.015
319.965
319.913
319.862
319.81
319.759
319.707
319.655
319.602
319.549
319.496
319.442
319.384
319.322
319.252
319.187
319.128
319.071
319.019
318.969
318.917
318.863
318.809
318.754
318.699
318.643
318.585
318.527
318.471
318.416
318.361
318.306
318.252
318.198
318.145
318.091
318.038
317.985
317.932
317.878
317.824
317.77
317.717
317.665
317.613
317.561
317.508
317.456
317.403
317.351
317.3
317.247
317.195
317.144
317.092
317.041
316.989
316.936
316.884
316.832
316.78
316.729
316.677
316.624
316.573
316.524
316.475
316.425
316.375
316.327
316.279
316.228
316.171
316.106
316.038
315.978
315.925
315.875
315.827
315.779
315.731
315.683
315.636
315.588
315.541
315.492
315.444
315.396
315.349
315.303
315.256
315.21
315.163
315.116
315.07
315.022
314.971
314.923
314.877
314.833
314.79
314.749
314.707
314.664
314.618
314.573
314.53
314.487
314.445
314.403
314.361
314.319
314.278
314.237
314.197
314.157
314.117
314.079
314.042
314.006
313.968
313.927
313.879
313.829
313.788
313.751
313.713
313.672
313.629
313.588
313.549
313.512
313.476
313.441
313.407
313.374
313.341
313.309
313.276
313.243
313.209
313.176
313.143
313.112
313.081
313.052
313.022
312.992
312.962
312.93
312.898
312.867
312.838
312.809
312.781
312.752
312.724
312.696
312.669
312.642
312.616
312.59
312.564
312.539
312.515
312.491
312.468
312.445
312.422
312.401
312.379
312.357
312.335
312.313
312.293
312.272
312.252
312.233
312.214
312.195
312.177
312.158
312.14
312.123
312.106
312.09
312.074
312.058
312.043
312.028
312.013
311.999
311.984
311.969
311.955
311.942
311.93
311.918
311.907
311.896
311.885
311.875
311.866
311.857
311.848
311.839
311.831
311.823
311.815
311.808
311.801
311.795
311.789
311.783
311.778
311.773
311.769
311.765
311.761
311.758
311.755
311.753
311.751
311.749
311.748
311.747
311.746
311.746
320.045
320.134
320.224
320.315
320.403
320.489
320.574
320.656
320.736
320.813
320.891
320.966
321.041
321.117
321.191
321.262
321.331
321.398
321.464
321.531
321.596
321.659
321.719
321.776
321.833
321.889
321.943
321.996
322.049
322.101
322.152
322.199
322.245
322.291
322.336
322.379
322.42
322.46
322.5
322.538
322.575
322.611
322.645
322.677
322.709
322.74
322.769
322.797
322.825
322.852
322.878
322.901
322.924
322.945
322.966
322.985
323.003
323.02
323.036
323.051
323.065
323.078
323.09
323.101
323.11
323.119
323.127
323.134
323.14
323.145
323.149
323.152
323.154
323.155
323.156
323.155
323.153
323.151
323.147
323.143
323.138
323.131
323.125
323.117
323.108
323.099
323.088
323.077
323.065
323.052
323.039
323.025
323.009
322.993
322.977
322.96
322.942
322.924
322.904
322.884
322.864
322.842
322.819
322.795
322.772
322.748
322.724
322.7
322.673
322.646
322.619
322.591
322.563
322.534
322.504
322.474
322.444
322.413
322.38
322.346
322.312
322.278
322.244
322.209
322.173
322.137
322.1
322.064
322.026
321.988
321.95
321.911
321.872
321.832
321.792
321.75
321.709
321.669
321.629
321.588
321.546
321.504
321.461
321.416
321.371
321.327
321.282
321.237
321.192
321.147
321.102
321.055
321.008
320.96
320.912
320.865
320.818
320.771
320.722
320.673
320.621
320.569
320.518
320.469
320.419
320.369
320.319
320.267
320.215
320.165
320.116
320.066
320.017
319.965
319.913
319.863
319.812
319.761
319.709
319.657
319.605
319.553
319.5
319.445
319.381
319.304
319.234
319.178
319.124
319.072
319.021
318.969
318.916
318.862
318.808
318.754
318.699
318.644
318.587
318.529
318.473
318.417
318.361
318.307
318.253
318.199
318.146
318.093
318.04
317.986
317.933
317.879
317.825
317.771
317.718
317.666
317.614
317.561
317.508
317.455
317.403
317.351
317.3
317.248
317.196
317.144
317.092
317.041
316.989
316.936
316.884
316.832
316.781
316.729
316.675
316.623
316.573
316.524
316.474
316.423
316.373
316.324
316.274
316.218
316.158
316.097
316.037
315.981
315.928
315.878
315.829
315.781
315.733
315.685
315.637
315.589
315.541
315.493
315.445
315.398
315.351
315.304
315.257
315.21
315.164
315.117
315.069
315.019
314.968
314.921
314.877
314.834
314.792
314.75
314.707
314.662
314.617
314.573
314.53
314.488
314.446
314.403
314.361
314.319
314.278
314.237
314.197
314.157
314.118
314.08
314.043
314.006
313.966
313.92
313.87
313.825
313.786
313.749
313.71
313.67
313.629
313.589
313.551
313.513
313.477
313.442
313.408
313.375
313.342
313.31
313.276
313.243
313.209
313.176
313.143
313.112
313.082
313.052
313.022
312.991
312.96
312.929
312.898
312.868
312.838
312.81
312.781
312.753
312.725
312.697
312.669
312.642
312.616
312.59
312.564
312.539
312.515
312.491
312.468
312.445
312.423
312.4
312.378
312.357
312.335
312.314
312.293
312.272
312.253
312.233
312.214
312.195
312.177
312.158
312.14
312.123
312.106
312.09
312.074
312.058
312.043
312.028
312.013
311.998
311.984
311.969
311.955
311.942
311.93
311.918
311.907
311.896
311.885
311.875
311.866
311.857
311.848
311.839
311.831
311.823
311.815
311.808
311.801
311.795
311.789
311.783
311.778
311.773
311.769
311.765
311.761
311.758
311.755
311.753
311.751
311.749
311.747
311.746
311.746
311.745
320.045
320.134
320.223
320.313
320.401
320.489
320.575
320.657
320.737
320.815
320.891
320.966
321.043
321.119
321.191
321.262
321.331
321.398
321.464
321.529
321.595
321.659
321.718
321.775
321.832
321.889
321.944
321.997
322.049
322.101
322.152
322.2
322.246
322.291
322.335
322.378
322.421
322.461
322.5
322.538
322.575
322.611
322.645
322.677
322.71
322.74
322.769
322.798
322.825
322.852
322.877
322.901
322.924
322.945
322.966
322.985
323.003
323.02
323.036
323.051
323.065
323.078
323.09
323.101
323.111
323.119
323.127
323.135
323.141
323.145
323.149
323.152
323.154
323.156
323.156
323.155
323.153
323.151
323.147
323.143
323.138
323.132
323.125
323.117
323.108
323.099
323.088
323.077
323.065
323.052
323.039
323.025
323.009
322.993
322.977
322.96
322.942
322.923
322.904
322.884
322.864
322.842
322.819
322.795
322.772
322.748
322.724
322.7
322.674
322.646
322.619
322.592
322.564
322.534
322.504
322.474
322.444
322.412
322.379
322.346
322.312
322.278
322.244
322.209
322.173
322.137
322.101
322.064
322.026
321.988
321.95
321.911
321.872
321.833
321.792
321.75
321.708
321.668
321.628
321.588
321.546
321.504
321.461
321.416
321.372
321.327
321.282
321.238
321.193
321.148
321.102
321.055
321.008
320.96
320.912
320.865
320.819
320.771
320.722
320.672
320.62
320.568
320.518
320.469
320.418
320.368
320.318
320.267
320.216
320.165
320.116
320.066
320.017
319.966
319.914
319.863
319.813
319.762
319.711
319.66
319.608
319.557
319.504
319.445
319.369
319.281
319.222
319.172
319.122
319.072
319.021
318.969
318.916
318.862
318.808
318.754
318.699
318.644
318.587
318.53
318.474
318.418
318.363
318.309
318.255
318.201
318.147
318.094
318.04
317.987
317.933
317.879
317.826
317.773
317.72
317.667
317.615
317.562
317.509
317.456
317.403
317.352
317.3
317.248
317.196
317.144
317.092
317.04
316.988
316.936
316.885
316.833
316.781
316.728
316.675
316.623
316.573
316.523
316.471
316.418
316.367
316.318
316.266
316.21
316.152
316.095
316.038
315.984
315.931
315.88
315.831
315.783
315.735
315.687
315.639
315.591
315.542
315.494
315.446
315.399
315.351
315.305
315.258
315.211
315.164
315.116
315.066
315.016
314.967
314.921
314.877
314.834
314.792
314.749
314.706
314.662
314.617
314.573
314.531
314.488
314.446
314.404
314.362
314.32
314.279
314.238
314.198
314.158
314.119
314.081
314.043
314.005
313.962
313.913
313.865
313.824
313.785
313.747
313.708
313.668
313.629
313.589
313.551
313.514
313.479
313.444
313.41
313.376
313.343
313.31
313.276
313.243
313.209
313.176
313.144
313.113
313.082
313.051
313.021
312.99
312.96
312.928
312.898
312.868
312.839
312.81
312.782
312.753
312.725
312.697
312.669
312.642
312.616
312.59
312.564
312.539
312.515
312.491
312.468
312.445
312.423
312.4
312.378
312.357
312.335
312.314
312.293
312.273
312.253
312.234
312.214
312.195
312.177
312.158
312.141
312.123
312.106
312.09
312.074
312.058
312.043
312.028
312.013
311.998
311.984
311.969
311.955
311.942
311.93
311.918
311.907
311.896
311.885
311.875
311.866
311.857
311.848
311.839
311.831
311.823
311.815
311.808
311.801
311.795
311.789
311.783
311.778
311.773
311.769
311.765
311.761
311.758
311.755
311.753
311.75
311.749
311.747
311.746
311.746
311.745
320.045
320.136
320.224
320.312
320.401
320.488
320.573
320.656
320.738
320.816
320.893
320.968
321.043
321.119
321.191
321.261
321.33
321.4
321.466
321.53
321.593
321.656
321.717
321.776
321.832
321.888
321.944
321.998
322.05
322.102
322.152
322.199
322.245
322.291
322.336
322.379
322.421
322.46
322.499
322.538
322.575
322.61
322.645
322.677
322.71
322.74
322.77
322.798
322.826
322.852
322.877
322.901
322.924
322.945
322.966
322.985
323.003
323.02
323.036
323.051
323.065
323.078
323.09
323.101
323.111
323.12
323.128
323.135
323.141
323.146
323.149
323.152
323.155
323.156
323.156
323.155
323.153
323.151
323.147
323.143
323.138
323.132
323.125
323.117
323.108
323.099
323.088
323.077
323.065
323.052
323.039
323.025
323.01
322.994
322.977
322.96
322.942
322.924
322.904
322.884
322.863
322.841
322.818
322.795
322.772
322.749
322.725
322.7
322.673
322.646
322.619
322.592
322.563
322.534
322.505
322.475
322.444
322.412
322.379
322.346
322.312
322.278
322.244
322.209
322.172
322.136
322.101
322.065
322.027
321.987
321.949
321.912
321.873
321.833
321.791
321.75
321.709
321.668
321.628
321.588
321.546
321.503
321.46
321.417
321.372
321.327
321.283
321.239
321.193
321.148
321.102
321.055
321.008
320.96
320.911
320.865
320.818
320.77
320.722
320.671
320.619
320.568
320.518
320.468
320.417
320.367
320.318
320.268
320.216
320.166
320.116
320.067
320.016
319.965
319.914
319.864
319.814
319.763
319.712
319.662
319.611
319.559
319.502
319.433
319.342
319.268
319.217
319.171
319.123
319.072
319.02
318.968
318.916
318.863
318.809
318.754
318.699
318.644
318.588
318.531
318.475
318.419
318.364
318.31
318.257
318.203
318.149
318.095
318.04
317.987
317.933
317.88
317.827
317.774
317.721
317.668
317.616
317.563
317.509
317.456
317.404
317.352
317.3
317.248
317.196
317.143
317.091
317.04
316.988
316.937
316.885
316.833
316.78
316.726
316.673
316.622
316.572
316.52
316.466
316.414
316.363
316.313
316.261
316.206
316.15
316.094
316.039
315.986
315.934
315.883
315.834
315.785
315.737
315.689
315.641
315.592
315.544
315.495
315.447
315.399
315.352
315.305
315.258
315.211
315.163
315.114
315.064
315.015
314.967
314.922
314.878
314.835
314.792
314.749
314.706
314.661
314.617
314.574
314.531
314.488
314.446
314.404
314.362
314.321
314.28
314.239
314.198
314.158
314.119
314.081
314.042
314.001
313.956
313.908
313.863
313.823
313.784
313.746
313.707
313.668
313.629
313.59
313.552
313.515
313.48
313.446
313.411
313.377
313.343
313.31
313.276
313.243
313.21
313.177
313.145
313.113
313.082
313.051
313.021
312.99
312.959
312.928
312.898
312.868
312.839
312.81
312.782
312.753
312.725
312.697
312.67
312.643
312.616
312.59
312.564
312.539
312.515
312.491
312.468
312.445
312.423
312.4
312.378
312.357
312.335
312.314
312.293
312.273
312.253
312.234
312.214
312.195
312.177
312.159
312.141
312.123
312.106
312.09
312.073
312.058
312.042
312.027
312.013
311.998
311.983
311.969
311.955
311.942
311.93
311.918
311.907
311.896
311.885
311.875
311.866
311.857
311.848
311.839
311.831
311.823
311.815
311.808
311.801
311.795
311.789
311.783
311.778
311.773
311.769
311.765
311.761
311.758
311.755
311.753
311.75
311.749
311.747
311.746
311.746
311.745
320.046
320.136
320.224
320.313
320.401
320.488
320.574
320.656
320.737
320.815
320.893
320.969
321.045
321.12
321.192
321.261
321.331
321.4
321.465
321.529
321.593
321.656
321.717
321.776
321.833
321.889
321.945
321.998
322.05
322.102
322.151
322.199
322.245
322.291
322.336
322.379
322.42
322.46
322.499
322.538
322.575
322.61
322.644
322.677
322.71
322.74
322.77
322.798
322.826
322.852
322.877
322.901
322.923
322.945
322.965
322.984
323.003
323.02
323.036
323.051
323.065
323.078
323.09
323.101
323.111
323.12
323.128
323.135
323.141
323.146
323.15
323.153
323.155
323.156
323.156
323.155
323.153
323.151
323.147
323.143
323.138
323.132
323.125
323.117
323.108
323.099
323.088
323.077
323.065
323.052
323.039
323.025
323.01
322.994
322.978
322.96
322.942
322.924
322.904
322.884
322.863
322.841
322.818
322.795
322.772
322.749
322.724
322.7
322.674
322.647
322.621
322.592
322.564
322.534
322.504
322.474
322.443
322.411
322.379
322.346
322.312
322.278
322.244
322.209
322.173
322.136
322.1
322.064
322.027
321.989
321.95
321.912
321.872
321.832
321.791
321.75
321.709
321.668
321.629
321.588
321.546
321.503
321.46
321.416
321.372
321.328
321.284
321.239
321.193
321.148
321.102
321.055
321.008
320.96
320.912
320.864
320.817
320.769
320.721
320.671
320.62
320.568
320.517
320.466
320.416
320.367
320.318
320.269
320.218
320.167
320.116
320.067
320.016
319.965
319.915
319.865
319.814
319.763
319.714
319.663
319.61
319.553
319.485
319.402
319.326
319.269
319.221
319.173
319.123
319.072
319.02
318.968
318.916
318.863
318.809
318.754
318.699
318.644
318.588
318.533
318.476
318.42
318.365
318.312
318.258
318.205
318.15
318.096
318.042
317.988
317.935
317.881
317.828
317.775
317.722
317.669
317.616
317.564
317.51
317.457
317.405
317.353
317.301
317.248
317.196
317.144
317.092
317.041
316.988
316.936
316.885
316.833
316.779
316.724
316.671
316.62
316.569
316.515
316.462
316.411
316.36
316.309
316.257
316.204
316.15
316.095
316.041
315.988
315.936
315.885
315.836
315.787
315.738
315.69
315.641
315.593
315.545
315.497
315.448
315.4
315.352
315.304
315.257
315.209
315.161
315.113
315.064
315.016
314.969
314.923
314.879
314.835
314.792
314.749
314.705
314.661
314.617
314.574
314.531
314.489
314.446
314.404
314.363
314.321
314.28
314.239
314.198
314.158
314.119
314.08
314.04
313.996
313.951
313.906
313.864
313.824
313.784
313.745
313.706
313.667
313.628
313.59
313.553
313.516
313.481
313.446
313.412
313.378
313.344
313.31
313.276
313.243
313.21
313.178
313.146
313.114
313.082
313.051
313.02
312.989
312.959
312.928
312.898
312.868
312.839
312.81
312.782
312.753
312.725
312.698
312.67
312.643
312.617
312.59
312.565
312.539
312.515
312.491
312.468
312.445
312.423
312.401
312.378
312.357
312.335
312.314
312.293
312.273
312.253
312.234
312.215
312.196
312.177
312.158
312.141
312.123
312.106
312.09
312.073
312.058
312.042
312.027
312.012
311.998
311.983
311.969
311.955
311.942
311.93
311.918
311.907
311.896
311.885
311.875
311.866
311.857
311.848
311.839
311.831
311.823
311.816
311.808
311.801
311.795
311.789
311.783
311.778
311.773
311.769
311.765
311.761
311.758
311.755
311.752
311.75
311.749
311.747
311.746
311.746
311.745
320.047
320.138
320.226
320.312
320.401
320.488
320.572
320.655
320.736
320.815
320.892
320.969
321.045
321.119
321.192
321.262
321.331
321.399
321.465
321.528
321.592
321.657
321.718
321.776
321.834
321.89
321.945
321.998
322.051
322.102
322.15
322.199
322.246
322.291
322.335
322.379
322.421
322.461
322.499
322.538
322.575
322.61
322.644
322.678
322.71
322.74
322.77
322.799
322.826
322.853
322.877
322.901
322.923
322.945
322.965
322.985
323.003
323.02
323.036
323.051
323.065
323.078
323.09
323.101
323.111
323.12
323.128
323.135
323.141
323.146
323.15
323.153
323.155
323.156
323.156
323.155
323.153
323.151
323.147
323.143
323.138
323.132
323.125
323.117
323.108
323.099
323.088
323.077
323.065
323.052
323.039
323.025
323.01
322.994
322.978
322.961
322.943
322.924
322.904
322.883
322.863
322.841
322.818
322.796
322.773
322.749
322.724
322.699
322.674
322.648
322.621
322.593
322.564
322.534
322.504